<event>
12    7  0.1661464E-007  0.1129787E+04  0.7818608E-02  0.9176636E-01
         -1   -1    0    0    0  501 -0.00000000000E+00  0.00000000000E+00  0.65500193265E+03  0.65500193265E+03  0.00000000000E+00 0.  1.
          2   -1    0    0  501    0  0.00000000000E+00 -0.00000000000E+00 -0.48718089809E+03  0.48718089809E+03  0.00000000000E+00 0. -1.
         24    2    1    2    0    0  0.37449533219E+02 -0.13541235525E+03  0.15105829943E+03  0.22104713947E+03  0.79399335934E+02 0.  0.
        254    2    1    2    0    0 -0.37449533219E+02  0.13541235525E+03  0.16762735132E+02  0.92113569128E+03  0.91020382276E+03 0.  0.
         23    2    4    4    0    0 -0.21143041873E+03  0.45388541468E+03 -0.12347297536E+03  0.52352646364E+03  0.90108772387E+02 0.  0.
         23    2    4    4    0    0  0.17398088551E+03 -0.31847305943E+03  0.14023571049E+03  0.39760922764E+03  0.82052454566E+02 0.  0.
          4    1    3    3  502    0 -0.49953954080E+01  0.13087281940E+01 -0.64101167797E+01  0.82314240504E+01  0.00000000000E+00 0. -1.
         -3    1    3    3    0  502  0.42444928627E+02 -0.13672108345E+03  0.15746841621E+03  0.21281571542E+03  0.00000000000E+00 0.  1.
         13    1    5    5    0    0 -0.18201691784E+03  0.43991916995E+03 -0.11288400049E+03  0.48928706506E+03  0.00000000000E+00 0.  1.
        -13    1    5    5    0    0 -0.29413500883E+02  0.13966244735E+02 -0.10588974874E+02  0.34239398579E+02  0.00000000000E+00 0. -1.
          1    1    6    6  503    0  0.27962243426E+02 -0.16301282635E+02  0.30627589769E+02  0.44560836258E+02  0.00000000000E+00 0. -1.
         -1    1    6    6    0  503  0.14601864208E+03 -0.30217177680E+03  0.10960812072E+03  0.35304839138E+03  0.00000000000E+00 0.  1.
<mgrwt>
<rscale>  0 0.11297866E+04</rscale>
<asrwt>0</asrwt>
<pdfrwt beam="1">  1        2 0.74950907E-01 0.11297866E+04</pdfrwt>
<pdfrwt beam="2">  1       -1 0.10076953E+00 0.11297866E+04</pdfrwt>
<totfact> 0.67412203E+01</totfact>
</mgrwt>
</event>
<event>
12    7  0.1661464E-007  0.2905442E+04  0.7818608E-02  0.8271260E-01
         -1   -1    0    0    0  501 -0.00000000000E+00  0.00000000000E+00  0.87111513157E+03  0.87111513157E+03  0.00000000000E+00 0.  1.
          2   -1    0    0  501    0  0.00000000000E+00 -0.00000000000E+00 -0.24226405991E+04  0.24226405991E+04  0.00000000000E+00 0. -1.
         24    2    1    2    0    0 -0.62822217504E+03  0.76796335399E+03 -0.16780724443E+04  0.19510856964E+04  0.79858951031E+02 0.  0.
        254    2    1    2    0    0  0.62822217504E+03 -0.76796335399E+03  0.12654697674E+03  0.13426700343E+04  0.89572198222E+03 0.  0.
         23    2    4    4    0    0  0.84258915534E+03 -0.55852222420E+03  0.30480365664E+02  0.10154263429E+04  0.90873788570E+02 0.  0.
         23    2    4    4    0    0 -0.21436698031E+03 -0.20944112979E+03  0.96066611072E+02  0.32724369145E+03  0.89670790884E+02 0.  0.
          2    1    3    3  502    0 -0.39033892351E+03  0.46563828350E+03 -0.11012727068E+04  0.12577698760E+04  0.00000000000E+00 0. -1.
         -1    1    3    3    0  502 -0.23788325153E+03  0.30232507049E+03 -0.57679973751E+03  0.69331582038E+03  0.00000000000E+00 0.  1.
         13    1    5    5    0    0  0.54318176515E+03 -0.35399261363E+03  0.62838279342E+02  0.65138763409E+03  0.00000000000E+00 0.  1.
        -13    1    5    5    0    0  0.29940739019E+03 -0.20452961057E+03 -0.32357913678E+02  0.36403870877E+03  0.00000000000E+00 0. -1.
          1    1    6    6  503    0 -0.13059040948E+03 -0.80612556334E+02  0.79054565091E+02  0.17263216256E+03  0.00000000000E+00 0. -1.
         -1    1    6    6    0  503 -0.83776570821E+02 -0.12882857346E+03  0.17012045981E+02  0.15461152889E+03  0.00000000000E+00 0.  1.
<mgrwt>
<rscale>  0 0.29054424E+04</rscale>
<asrwt>0</asrwt>
<pdfrwt beam="1">  1        2 0.37271394E+00 0.29054424E+04</pdfrwt>
<pdfrwt beam="2">  1       -1 0.13401771E+00 0.29054424E+04</pdfrwt>
<totfact> 0.17755913E+00</totfact>
</mgrwt>
</event>
<event>
12    7  0.1661464E-007  0.2049613E+04  0.7818608E-02  0.8583770E-01
          2   -1    0    0  501    0  0.00000000000E+00  0.00000000000E+00  0.13657627684E+04  0.13657627684E+04  0.00000000000E+00 0. -1.
         -1   -1    0    0    0  501 -0.00000000000E+00 -0.00000000000E+00 -0.76896817047E+03  0.76896817047E+03  0.00000000000E+00 0.  1.
         24    2    1    2    0    0  0.13465959699E+03 -0.65675327429E+03  0.73940166082E+03  0.10013736810E+04  0.81094775633E+02 0.  0.
        254    2    1    2    0    0 -0.13465959699E+03  0.65675327429E+03 -0.14260706285E+03  0.11333572579E+04  0.90260945560E+03 0.  0.
         23    2    4    4    0    0 -0.15201219798E+03 -0.16678482059E+03  0.10949734497E+03  0.26661075567E+03  0.90370026937E+02 0.  0.
         23    2    4    4    0    0  0.17352600990E+02  0.82353809488E+03 -0.25210440782E+03  0.86674650224E+03  0.95795408220E+02 0.  0.
          2    1    3    3  502    0  0.10318517645E+03 -0.45032746710E+03  0.56084687153E+03  0.72663004450E+03  0.00000000000E+00 0. -1.
         -1    1    3    3    0  502  0.31474420539E+02 -0.20642580719E+03  0.17855478929E+03  0.27474363651E+03  0.00000000000E+00 0.  1.
         13    1    5    5    0    0 -0.14388712253E+03 -0.12813296229E+03  0.11837498294E+03  0.22612871697E+03  0.00000000000E+00 0.  1.
        -13    1    5    5    0    0 -0.81250754500E+01 -0.38651858299E+02 -0.88776379642E+01  0.40482038694E+02  0.00000000000E+00 0. -1.
          1    1    6    6  503    0  0.37966714001E+02  0.17767533657E+03 -0.76374307686E+02  0.19708635537E+03  0.00000000000E+00 0. -1.
         -1    1    6    6    0  503 -0.20614113011E+02  0.64586275830E+03 -0.17573010014E+03  0.66966014688E+03  0.00000000000E+00 0.  1.
<mgrwt>
<rscale>  0 0.20496127E+04</rscale>
<asrwt>0</asrwt>
<pdfrwt beam="1">  1        2 0.21011735E+00 0.20496127E+04</pdfrwt>
<pdfrwt beam="2">  1       -1 0.11830280E+00 0.20496127E+04</pdfrwt>
<totfact> 0.10236636E+01</totfact>
</mgrwt>
</event>
<event>
12    7  0.1661464E-007  0.1633888E+04  0.7818608E-02  0.8799995E-01
         -1   -1    0    0    0  501 -0.00000000000E+00  0.00000000000E+00  0.47737473493E+03  0.47737473493E+03  0.00000000000E+00 0.  1.
          2   -1    0    0  501    0  0.00000000000E+00 -0.00000000000E+00 -0.13980586582E+04  0.13980586582E+04  0.00000000000E+00 0. -1.
         24    2    1    2    0    0 -0.14921266734E+03 -0.76339501515E+02 -0.94954803385E+03  0.96751105389E+03  0.79649427088E+02 0.  0.
        254    2    1    2    0    0  0.14921266734E+03  0.76339501515E+02  0.28864110612E+02  0.90792233920E+03  0.89185071483E+03 0.  0.
         23    2    4    4    0    0 -0.33572119330E+03  0.10188845721E+03  0.16049234181E+03  0.39678419598E+03  0.92681870162E+02 0.  0.
         23    2    4    4    0    0  0.48493386064E+03 -0.25548955692E+02 -0.13162823120E+03  0.51113814322E+03  0.90125533943E+02 0.  0.
          2    1    3    3  502    0 -0.13743698660E+03 -0.41604720011E+02 -0.64672075648E+03  0.66247084077E+03  0.00000000000E+00 0. -1.
         -3    1    3    3    0  502 -0.11775680748E+02 -0.34734781504E+02 -0.30282727737E+03  0.30504021312E+03  0.00000000000E+00 0.  1.
         13    1    5    5    0    0 -0.21382492354E+03  0.99943051836E+02  0.74180760274E+02  0.24741159377E+03  0.00000000000E+00 0. -1.
        -13    1    5    5    0    0 -0.12189626976E+03  0.19454053707E+01  0.86311581537E+02  0.14937260221E+03  0.00000000000E+00 0.  1.
          3    1    6    6  503    0  0.42923593755E+03 -0.22511924984E+02 -0.14527467489E+03  0.45371247285E+03  0.00000000000E+00 0. -1.
         -3    1    6    6    0  503  0.55697923094E+02 -0.30370307080E+01  0.13646443690E+02  0.57425670374E+02  0.00000000000E+00 0.  1.
<mgrwt>
<rscale>  0 0.16338885E+04</rscale>
<asrwt>0</asrwt>
<pdfrwt beam="1">  1        2 0.21508595E+00 0.16338885E+04</pdfrwt>
<pdfrwt beam="2">  1       -1 0.73442268E-01 0.16338885E+04</pdfrwt>
<totfact> 0.29543301E+01</totfact>
</mgrwt>
</event>
<event>
12    7  0.1661464E-007  0.2486709E+04  0.7818608E-02  0.8407736E-01
         -1   -1    0    0    0  501 -0.00000000000E+00  0.00000000000E+00  0.84682243627E+03  0.84682243627E+03  0.00000000000E+00 0.  1.
          2   -1    0    0  501    0  0.00000000000E+00 -0.00000000000E+00 -0.18255663557E+04  0.18255663557E+04  0.00000000000E+00 0. -1.
         24    2    1    2    0    0  0.91010767521E+03  0.32130201168E+03 -0.94155759412E+03  0.13507847538E+04  0.80980151660E+02 0.  0.
        254    2    1    2    0    0 -0.91010767521E+03 -0.32130201168E+03 -0.37186325286E+02  0.13216040381E+04  0.90206621021E+03 0.  0.
         23    2    4    4    0    0 -0.63538395221E+03 -0.62401516032E+03 -0.88504321796E+02  0.89960620904E+03  0.91381777874E+02 0.  0.
         23    2    4    4    0    0 -0.27472372300E+03  0.30271314864E+03  0.51317996511E+02  0.42199782908E+03  0.91325005604E+02 0.  0.
          2    1    3    3  502    0  0.76243643280E+03  0.29830036322E+03 -0.80970196963E+03  0.11514815241E+04  0.00000000000E+00 0. -1.
         -1    1    3    3    0  502  0.14767124241E+03  0.23001648457E+02 -0.13185562449E+03  0.19930322972E+03  0.00000000000E+00 0.  1.
         13    1    5    5    0    0 -0.24349172135E+03 -0.27886923372E+03 -0.16123223697E+01  0.37021462352E+03  0.00000000000E+00 0.  1.
        -13    1    5    5    0    0 -0.39189223086E+03 -0.34514592660E+03 -0.86891999427E+02  0.52939158552E+03  0.00000000000E+00 0. -1.
          1    1    6    6  503    0 -0.23221966306E+01  0.32628941884E+02  0.17004791146E+02  0.36867375383E+02  0.00000000000E+00 0. -1.
         -1    1    6    6    0  503 -0.27240152637E+03  0.27008420675E+03  0.34313205364E+02  0.38513045370E+03  0.00000000000E+00 0.  1.
<mgrwt>
<rscale>  0 0.24867091E+04</rscale>
<asrwt>0</asrwt>
<pdfrwt beam="1">  1        2 0.28085636E+00 0.24867091E+04</pdfrwt>
<pdfrwt beam="2">  1       -1 0.13028038E+00 0.24867091E+04</pdfrwt>
<totfact> 0.42808652E+00</totfact>
</mgrwt>
</event>
<event>
12    7  0.1661464E-007  0.1218634E+04  0.7818608E-02  0.9096701E-01
         -1   -1    0    0    0  501 -0.00000000000E+00  0.00000000000E+00  0.33226461500E+03  0.33226461500E+03  0.00000000000E+00 0.  1.
          2   -1    0    0  501    0  0.00000000000E+00 -0.00000000000E+00 -0.11173835415E+04  0.11173835415E+04  0.00000000000E+00 0. -1.
         24    2    1    2    0    0  0.21143221958E+03 -0.95504410893E+02  0.41815054046E+02  0.24880435708E+03  0.79564020648E+02 0.  0.
        254    2    1    2    0    0 -0.21143221958E+03  0.95504410893E+02 -0.82693398050E+03  0.12008437994E+04  0.83927429748E+03 0.  0.
         23    2    4    4    0    0 -0.16536884030E+03 -0.28470559472E+03 -0.71333674236E+03  0.79077160526E+03  0.89812552986E+02 0.  0.
         23    2    4    4    0    0 -0.46063379285E+02  0.38021000561E+03 -0.11359723814E+03  0.41007219412E+03  0.92592594729E+02 0.  0.
          2    1    3    3  502    0  0.72194526688E+02 -0.57521579648E+02 -0.15339554741E+02  0.93573948023E+02  0.00000000000E+00 0. -1.
         -1    1    3    3    0  502  0.13923769289E+03 -0.37982831245E+02  0.57154608787E+02  0.15523040906E+03  0.00000000000E+00 0.  1.
         13    1    5    5    0    0 -0.95345237945E+02 -0.21473265347E+03 -0.57049346316E+03  0.61697943108E+03  0.00000000000E+00 0. -1.
        -13    1    5    5    0    0 -0.70023602351E+02 -0.69972941244E+02 -0.14284327920E+03  0.17379217418E+03  0.00000000000E+00 0.  1.
          1    1    6    6  503    0 -0.29831512865E+02  0.21774481604E+03 -0.17166761967E+02  0.22044822927E+03  0.00000000000E+00 0. -1.
         -1    1    6    6    0  503 -0.16231866420E+02  0.16246518957E+03 -0.96430476172E+02  0.18962396485E+03  0.00000000000E+00 0.  1.
<mgrwt>
<rscale>  0 0.12186337E+04</rscale>
<asrwt>0</asrwt>
<pdfrwt beam="1">  1        2 0.17190516E+00 0.12186337E+04</pdfrwt>
<pdfrwt beam="2">  1       -1 0.51117634E-01 0.12186337E+04</pdfrwt>
<totfact> 0.91889532E+01</totfact>
</mgrwt>
</event>
<event>
12    7  0.1661464E-007  0.1233184E+04  0.7818608E-02  0.9084296E-01
         -1   -1    0    0    0  501 -0.00000000000E+00  0.00000000000E+00  0.49256592341E+03  0.49256592341E+03  0.00000000000E+00 0.  1.
          2   -1    0    0  501    0  0.00000000000E+00 -0.00000000000E+00 -0.77184733712E+03  0.77184733712E+03  0.00000000000E+00 0. -1.
         24    2    1    2    0    0  0.23643370041E+03 -0.96098600238E+02  0.16192791363E+03  0.31246155599E+03  0.79219562604E+02 0.  0.
        254    2    1    2    0    0 -0.23643370041E+03  0.96098600238E+02 -0.44120932733E+03  0.95195170454E+03  0.80399660547E+03 0.  0.
         23    2    4    4    0    0  0.70195466960E+02  0.17757793398E+03 -0.56134427220E+03  0.59978954817E+03  0.90436629425E+02 0.  0.
         23    2    4    4    0    0 -0.30662916737E+03 -0.81479333738E+02  0.12013494487E+03  0.35216215637E+03  0.94474606599E+02 0.  0.
          2    1    3    3  502    0  0.65346518937E+02 -0.41833699758E+02  0.11833011844E+02  0.78487235535E+02  0.00000000000E+00 0. -1.
         -1    1    3    3    0  502  0.17108718148E+03 -0.54264900480E+02  0.15009490178E+03  0.23397432045E+03  0.00000000000E+00 0.  1.
         13    1    5    5    0    0  0.72500520945E+02  0.14443529050E+03 -0.34581084117E+03  0.38171064506E+03  0.00000000000E+00 0. -1.
        -13    1    5    5    0    0 -0.23050539857E+01  0.33142643479E+02 -0.21553343103E+03  0.21807890311E+03  0.00000000000E+00 0.  1.
          3    1    6    6  503    0 -0.27990541487E+03 -0.95197834497E+02  0.88672853649E+02  0.30866250816E+03  0.00000000000E+00 0. -1.
         -3    1    6    6    0  503 -0.26723752501E+02  0.13718500759E+02  0.31462091224E+02  0.43499648216E+02  0.00000000000E+00 0.  1.
<mgrwt>
<rscale>  0 0.12331840E+04</rscale>
<asrwt>0</asrwt>
<pdfrwt beam="1">  1        2 0.11874574E+00 0.12331840E+04</pdfrwt>
<pdfrwt beam="2">  1       -1 0.75779373E-01 0.12331840E+04</pdfrwt>
<totfact> 0.71069922E+01</totfact>
</mgrwt>
</event>
<event>
12    7  0.1661464E-007  0.1314467E+04  0.7818608E-02  0.9018170E-01
          4   -1    0    0  501    0  0.00000000000E+00  0.00000000000E+00  0.12691854665E+04  0.12691854665E+04  0.00000000000E+00 0. -1.
         -3   -1    0    0    0  501 -0.00000000000E+00 -0.00000000000E+00 -0.34034124449E+03  0.34034124449E+03  0.00000000000E+00 0.  1.
         24    2    1    2    0    0 -0.93820855625E+02  0.74175436076E+02  0.64674518507E+03  0.66246734679E+03  0.79242052505E+02 0.  0.
        254    2    1    2    0    0  0.93820855625E+02 -0.74175436076E+02  0.28209903697E+03  0.94705936423E+03  0.89612344263E+03 0.  0.
         23    2    4    4    0    0 -0.14459681000E+03  0.82685510429E+02 -0.26243150880E+03  0.32550129306E+03  0.96621239268E+02 0.  0.
         23    2    4    4    0    0  0.23841766563E+03 -0.15686094650E+03  0.54453054577E+03  0.62155807116E+03  0.91501807244E+02 0.  0.
          2    1    3    3  502    0 -0.94048866412E+01  0.44672786481E+02  0.33680914551E+03  0.33988896753E+03  0.00000000000E+00 0. -1.
         -1    1    3    3    0  502 -0.84415968984E+02  0.29502649595E+02  0.30993603956E+03  0.32257837927E+03  0.00000000000E+00 0.  1.
         13    1    5    5    0    0 -0.13606974306E+03  0.61230830204E+02 -0.15319806054E+03  0.21385470605E+03  0.00000000000E+00 0. -1.
        -13    1    5    5    0    0 -0.85270669384E+01  0.21454680225E+02 -0.10923344826E+03  0.11164658702E+03  0.00000000000E+00 0.  1.
          4    1    6    6  503    0  0.22719193221E+03 -0.12075838068E+03  0.43164894900E+03  0.50251325927E+03  0.00000000000E+00 0. -1.
         -4    1    6    6    0  503  0.11225733415E+02 -0.36102565824E+02  0.11288159677E+03  0.11904481189E+03  0.00000000000E+00 0.  1.
<mgrwt>
<rscale>  0 0.13144674E+04</rscale>
<asrwt>0</asrwt>
<pdfrwt beam="1">  1        4 0.19525930E+00 0.13144674E+04</pdfrwt>
<pdfrwt beam="2">  1       -3 0.52360192E-01 0.13144674E+04</pdfrwt>
<totfact> 0.11432227E+00</totfact>
</mgrwt>
</event>
<event>
12    7  0.1661464E-007  0.1740331E+04  0.7818608E-02  0.8738691E-01
         -1   -1    0    0    0  501 -0.00000000000E+00  0.00000000000E+00  0.63883891044E+03  0.63883891044E+03  0.00000000000E+00 0.  1.
          2   -1    0    0  501    0  0.00000000000E+00 -0.00000000000E+00 -0.11852560543E+04  0.11852560543E+04  0.00000000000E+00 0. -1.
         24    2    1    2    0    0 -0.31816175433E+03 -0.56438568114E+03 -0.15458446487E+03  0.67103245589E+03  0.81425432626E+02 0.  0.
        254    2    1    2    0    0  0.31816175433E+03  0.56438568114E+03 -0.39183267897E+03  0.11530625088E+04  0.86963337217E+03 0.  0.
         23    2    4    4    0    0  0.14771563809E+03  0.74973600961E+03 -0.13744740246E+03  0.78176949205E+03  0.91366057245E+02 0.  0.
         23    2    4    4    0    0  0.17044611623E+03 -0.18535032846E+03 -0.25438527651E+03  0.37129301679E+03  0.98691502241E+02 0.  0.
          4    1    3    3  502    0 -0.77959631870E+02 -0.15121883377E+03 -0.48209016157E+01  0.17020012039E+03  0.00000000000E+00 0. -1.
         -3    1    3    3    0  502 -0.24020212246E+03 -0.41316684737E+03 -0.14976356326E+03  0.50083233550E+03  0.00000000000E+00 0.  1.
         13    1    5    5    0    0  0.75764078536E+01  0.21973148002E+03 -0.61602335575E+02  0.22832908929E+03  0.00000000000E+00 0. -1.
        -13    1    5    5    0    0  0.14013923024E+03  0.53000452959E+03 -0.75845066887E+02  0.55344040276E+03  0.00000000000E+00 0.  1.
          2    1    6    6  503    0  0.17642906398E+03 -0.14380633995E+03 -0.20338827579E+03  0.30524460479E+03  0.00000000000E+00 0. -1.
         -2    1    6    6    0  503 -0.59829477476E+01 -0.41543988514E+02 -0.50997000718E+02  0.66048411999E+02  0.00000000000E+00 0.  1.
<mgrwt>
<rscale>  0 0.17403306E+04</rscale>
<asrwt>0</asrwt>
<pdfrwt beam="1">  1        2 0.18234709E+00 0.17403306E+04</pdfrwt>
<pdfrwt beam="2">  1       -1 0.98282909E-01 0.17403306E+04</pdfrwt>
<totfact> 0.20734479E+01</totfact>
</mgrwt>
</event>
<event>
12    7  0.1661464E-007  0.1414150E+04  0.7818608E-02  0.8943639E-01
         -1   -1    0    0    0  501 -0.00000000000E+00  0.00000000000E+00  0.69342070602E+03  0.69342070602E+03  0.00000000000E+00 0.  1.
          2   -1    0    0  501    0  0.00000000000E+00 -0.00000000000E+00 -0.72099805511E+03  0.72099805511E+03  0.00000000000E+00 0. -1.
         24    2    1    2    0    0  0.38698745589E+03  0.29823804151E+02 -0.14844435606E+03  0.42309970796E+03  0.79554294183E+02 0.  0.
        254    2    1    2    0    0 -0.38698745589E+03 -0.29823804151E+02  0.12086700696E+03  0.99131905317E+03  0.90413266808E+03 0.  0.
         23    2    4    4    0    0  0.16645082025E+03 -0.27998161016E+03 -0.71505475235E+02  0.34779811739E+03  0.98766997949E+02 0.  0.
         23    2    4    4    0    0 -0.55343827614E+03  0.25015780601E+03  0.19237248220E+03  0.64352093578E+03  0.90769870941E+02 0.  0.
          4    1    3    3  502    0  0.25761256150E+03 -0.16733888256E+02 -0.10742058037E+03  0.27961301105E+03  0.00000000000E+00 0. -1.
         -3    1    3    3    0  502  0.12937489439E+03  0.46557692407E+02 -0.41023775686E+02  0.14348669691E+03  0.00000000000E+00 0.  1.
         13    1    5    5    0    0  0.10547563143E+03 -0.25218827524E+03 -0.57205967780E+02  0.27927863818E+03  0.00000000000E+00 0.  1.
        -13    1    5    5    0    0  0.60975188823E+02 -0.27793334915E+02 -0.14299507456E+02  0.68519479210E+02  0.00000000000E+00 0. -1.
          3    1    6    6  503    0 -0.16817786726E+03  0.32437183299E+02  0.62631161577E+02  0.18236948291E+03  0.00000000000E+00 0. -1.
         -3    1    6    6    0  503 -0.38526040888E+03  0.21772062271E+03  0.12974132062E+03  0.46115145286E+03  0.00000000000E+00 0.  1.
<mgrwt>
<rscale>  0 0.14141499E+04</rscale>
<asrwt>0</asrwt>
<pdfrwt beam="1">  1        2 0.11092278E+00 0.14141499E+04</pdfrwt>
<pdfrwt beam="2">  1       -1 0.10668011E+00 0.14141499E+04</pdfrwt>
<totfact> 0.35959597E+01</totfact>
</mgrwt>
</event>
<event>
12    7  0.1661464E-007  0.2696841E+04  0.7818608E-02  0.8336031E-01
          2   -1    0    0  501    0  0.00000000000E+00  0.00000000000E+00  0.23764377932E+04  0.23764377932E+04  0.00000000000E+00 0. -1.
         -1   -1    0    0    0  501 -0.00000000000E+00 -0.00000000000E+00 -0.76511067549E+03  0.76511067549E+03  0.00000000000E+00 0.  1.
         24    2    1    2    0    0 -0.19521095882E+03  0.99235158139E+03 -0.29085930694E+02  0.10163831257E+04  0.96538527866E+02 0.  0.
        254    2    1    2    0    0  0.19521095882E+03 -0.99235158139E+03  0.16404130484E+04  0.21251653430E+04  0.89582575649E+03 0.  0.
         23    2    4    4    0    0  0.48027039163E+03 -0.24748536126E+03  0.64687861300E+03  0.84788979015E+03  0.92501368471E+02 0.  0.
         23    2    4    4    0    0 -0.28505943281E+03 -0.74486622013E+03  0.99353443541E+03  0.12772755528E+04  0.90761210529E+02 0.  0.
          4    1    3    3  502    0 -0.19105620780E+02  0.17025082982E+03 -0.38443247597E+02  0.17557976275E+03  0.00000000000E+00 0. -1.
         -3    1    3    3    0  502 -0.17610533804E+03  0.82210075157E+03  0.93573169030E+01  0.84080336298E+03  0.00000000000E+00 0.  1.
         13    1    5    5    0    0  0.20563022273E+03 -0.88416744880E+02  0.33517117465E+03  0.40303973203E+03  0.00000000000E+00 0.  1.
        -13    1    5    5    0    0  0.27464016889E+03 -0.15906861638E+03  0.31170743835E+03  0.44485005812E+03  0.00000000000E+00 0. -1.
          4    1    6    6  503    0 -0.20045792418E+03 -0.42411724275E+03  0.62456095068E+03  0.78111151322E+03  0.00000000000E+00 0. -1.
         -4    1    6    6    0  503 -0.84601508632E+02 -0.32074897738E+03  0.36897348473E+03  0.49616403959E+03  0.00000000000E+00 0.  1.
<mgrwt>
<rscale>  0 0.26968411E+04</rscale>
<asrwt>0</asrwt>
<pdfrwt beam="1">  1        2 0.36560581E+00 0.26968411E+04</pdfrwt>
<pdfrwt beam="2">  1       -1 0.11770934E+00 0.26968411E+04</pdfrwt>
<totfact> 0.26549171E+00</totfact>
</mgrwt>
</event>
<event>
12    7  0.1661464E-007  0.1310016E+04  0.7818608E-02  0.9021660E-01
         -1   -1    0    0    0  501 -0.00000000000E+00  0.00000000000E+00  0.21338974239E+03  0.21338974239E+03  0.00000000000E+00 0.  1.
          2   -1    0    0  501    0  0.00000000000E+00 -0.00000000000E+00 -0.20105723813E+04  0.20105723813E+04  0.00000000000E+00 0. -1.
         24    2    1    2    0    0 -0.61820564773E+02 -0.18068072390E+03 -0.86558051245E+03  0.88998942392E+03  0.79901470238E+02 0.  0.
        254    2    1    2    0    0  0.61820564773E+02  0.18068072390E+03 -0.93160212645E+03  0.13339726998E+04  0.93548561478E+03 0.  0.
         23    2    4    4    0    0 -0.39628444873E+03  0.25374585091E+03 -0.41774674525E+03  0.63579043550E+03  0.91042921446E+02 0.  0.
         23    2    4    4    0    0  0.45810501351E+03 -0.73065127008E+02 -0.51385538121E+03  0.69818226425E+03  0.90622321408E+02 0.  0.
          2    1    3    3  502    0 -0.76970263145E+02 -0.16249025562E+03 -0.69986269749E+03  0.72258930238E+03  0.00000000000E+00 0. -1.
         -1    1    3    3    0  502  0.15149698372E+02 -0.18190468281E+02 -0.16571781496E+03  0.16740012154E+03  0.00000000000E+00 0.  1.
         13    1    5    5    0    0 -0.22206440575E+03  0.18504886538E+03 -0.28738955890E+03  0.40761310264E+03  0.00000000000E+00 0. -1.
        -13    1    5    5    0    0 -0.17422004299E+03  0.68696985531E+02 -0.13035718635E+03  0.22817733286E+03  0.00000000000E+00 0.  1.
          2    1    6    6  503    0  0.22007496709E+03 -0.17763174285E+02 -0.18243645942E+03  0.28641156266E+03  0.00000000000E+00 0. -1.
         -2    1    6    6    0  503  0.23803004642E+03 -0.55301952723E+02 -0.33141892178E+03  0.41177070159E+03  0.00000000000E+00 0.  1.
<mgrwt>
<rscale>  0 0.13100161E+04</rscale>
<asrwt>0</asrwt>
<pdfrwt beam="1">  1        2 0.30931883E+00 0.13100161E+04</pdfrwt>
<pdfrwt beam="2">  1       -1 0.32829191E-01 0.13100161E+04</pdfrwt>
<totfact> 0.64045855E+01</totfact>
</mgrwt>
</event>
<event>
12    7  0.1661464E-007  0.3363695E+04  0.7818608E-02  0.8146875E-01
          2   -1    0    0  501    0  0.00000000000E+00  0.00000000000E+00  0.23616692869E+04  0.23616692869E+04  0.00000000000E+00 0. -1.
         -1   -1    0    0    0  501 -0.00000000000E+00 -0.00000000000E+00 -0.11977171439E+04  0.11977171439E+04  0.00000000000E+00 0.  1.
         24    2    1    2    0    0 -0.10184734155E+04  0.11604213579E+04  0.76346501608E+03  0.17242534996E+04  0.79407015619E+02 0.  0.
        254    2    1    2    0    0  0.10184734155E+04 -0.11604213579E+04  0.40048712696E+03  0.18351329312E+04  0.90744537599E+03 0.  0.
         23    2    4    4    0    0  0.61563080400E+03 -0.80964078683E+03 -0.18478285219E+03  0.10376662330E+04  0.89927849764E+02 0.  0.
         23    2    4    4    0    0  0.40284261147E+03 -0.35078057107E+03  0.58526997915E+03  0.79746669818E+03  0.89905547894E+02 0.  0.
          2    1    3    3  502    0 -0.89329202533E+03  0.98686326360E+03  0.67784157694E+03  0.14937666976E+04  0.00000000000E+00 0. -1.
         -1    1    3    3    0  502 -0.12518139015E+03  0.17355809431E+03  0.85623439145E+02  0.23048680194E+03  0.00000000000E+00 0.  1.
         13    1    5    5    0    0  0.44424131718E+02 -0.93623500510E+02 -0.19301266821E+01  0.10364646022E+03  0.00000000000E+00 0. -1.
        -13    1    5    5    0    0  0.57120667228E+03 -0.71601728632E+03 -0.18285272551E+03  0.93401977281E+03  0.00000000000E+00 0.  1.
          4    1    6    6  503    0  0.72188746438E+02 -0.27739500604E+02  0.60935225734E+02  0.98457080707E+02  0.00000000000E+00 0. -1.
         -4    1    6    6    0  503  0.33065386504E+03 -0.32304107047E+03  0.52433475342E+03  0.69900961747E+03  0.00000000000E+00 0.  1.
<mgrwt>
<rscale>  0 0.33636955E+04</rscale>
<asrwt>0</asrwt>
<pdfrwt beam="1">  1        2 0.36333374E+00 0.33636955E+04</pdfrwt>
<pdfrwt beam="2">  1       -1 0.18426418E+00 0.33636955E+04</pdfrwt>
<totfact> 0.76606283E-01</totfact>
</mgrwt>
</event>
<event>
12    7  0.1661464E-007  0.2949744E+04  0.7818608E-02  0.8258229E-01
         -1   -1    0    0    0  501 -0.00000000000E+00  0.00000000000E+00  0.19335609081E+04  0.19335609081E+04  0.00000000000E+00 0.  1.
          2   -1    0    0  501    0  0.00000000000E+00 -0.00000000000E+00 -0.11249952321E+04  0.11249952321E+04  0.00000000000E+00 0. -1.
         24    2    1    2    0    0  0.12725823159E+04  0.11549149000E+03 -0.15795312244E+01  0.12803317320E+04  0.80267142069E+02 0.  0.
        254    2    1    2    0    0 -0.12725823159E+04 -0.11549149000E+03  0.81014520722E+03  0.17782244082E+04  0.93431405545E+03 0.  0.
         23    2    4    4    0    0  0.13755016907E+03 -0.29183495721E+02  0.87941131224E+02  0.18866418628E+03  0.89937796216E+02 0.  0.
         23    2    4    4    0    0 -0.14101324850E+04 -0.86307994277E+02  0.72220407600E+03  0.15895602219E+04  0.95918073169E+02 0.  0.
          4    1    3    3  502    0  0.93045410555E+03  0.10689961381E+03  0.26463874369E+02  0.93694861471E+03  0.00000000000E+00 0. -1.
         -3    1    3    3    0  502  0.34212821034E+03  0.85918761859E+01 -0.28043405594E+02  0.34338311729E+03  0.00000000000E+00 0.  1.
         13    1    5    5    0    0  0.13452338844E+03 -0.22660613330E+02  0.42830855097E+02  0.14298436132E+03  0.00000000000E+00 0. -1.
        -13    1    5    5    0    0  0.30267806316E+01 -0.65228823916E+01  0.45110276127E+02  0.45679824955E+02  0.00000000000E+00 0.  1.
          1    1    6    6  503    0 -0.13675782426E+04 -0.79800686500E+02  0.68046264947E+03  0.15295972727E+04  0.00000000000E+00 0. -1.
         -1    1    6    6    0  503 -0.42554242345E+02 -0.65073077770E+01  0.41741426527E+02  0.59962949265E+02  0.00000000000E+00 0.  1.
<mgrwt>
<rscale>  0 0.29497436E+04</rscale>
<asrwt>0</asrwt>
<pdfrwt beam="1">  1        2 0.17307619E+00 0.29497436E+04</pdfrwt>
<pdfrwt beam="2">  1       -1 0.29747091E+00 0.29497436E+04</pdfrwt>
<totfact> 0.70626348E-01</totfact>
</mgrwt>
</event>
<event>
12    7  0.1661464E-007  0.2004941E+04  0.7818608E-02  0.8604314E-01
          2   -1    0    0  501    0  0.00000000000E+00  0.00000000000E+00  0.35319775789E+03  0.35319775789E+03  0.00000000000E+00 0. -1.
         -3   -1    0    0    0  501 -0.00000000000E+00 -0.00000000000E+00 -0.28452824991E+04  0.28452824991E+04  0.00000000000E+00 0.  1.
         24    2    1    2    0    0 -0.95086114279E+02  0.73564721781E+02 -0.22518295884E+04  0.22565217828E+04  0.81859170987E+02 0.  0.
        254    2    1    2    0    0  0.95086114279E+02 -0.73564721781E+02 -0.24025515283E+03  0.94195847416E+03  0.90283447606E+03 0.  0.
         23    2    4    4    0    0  0.43439468604E+03 -0.25728393280E+03 -0.11175105119E+03  0.52511958681E+03  0.91479602487E+02 0.  0.
         23    2    4    4    0    0 -0.33930857176E+03  0.18371921102E+03 -0.12850410164E+03  0.41683888736E+03  0.91423730554E+02 0.  0.
          2    1    3    3  502    0 -0.31497930491E+02  0.20593567793E+02 -0.23494046819E+03  0.23793536570E+03  0.00000000000E+00 0. -1.
         -1    1    3    3    0  502 -0.63588183788E+02  0.52971153987E+02 -0.20168891202E+04  0.20185864171E+04  0.00000000000E+00 0.  1.
         13    1    5    5    0    0  0.15058942022E+03 -0.11513046394E+03 -0.81263981020E+02  0.20624265276E+03  0.00000000000E+00 0.  1.
        -13    1    5    5    0    0  0.28380526582E+03 -0.14215346887E+03 -0.30487070166E+02  0.31887693404E+03  0.00000000000E+00 0. -1.
          4    1    6    6  503    0 -0.14678621548E+03  0.90304270682E+02 -0.10440332502E+03  0.20149716781E+03  0.00000000000E+00 0. -1.
         -4    1    6    6    0  503 -0.19252235627E+03  0.93414940340E+02 -0.24100776616E+02  0.21534171955E+03  0.00000000000E+00 0.  1.
<mgrwt>
<rscale>  0 0.20049413E+04</rscale>
<asrwt>0</asrwt>
<pdfrwt beam="1">  1        2 0.54338115E-01 0.20049413E+04</pdfrwt>
<pdfrwt beam="2">  1       -3 0.43773578E+00 0.20049413E+04</pdfrwt>
<totfact> 0.34629953E-01</totfact>
</mgrwt>
</event>
<event>
12    7  0.1661464E-007  0.3488276E+04  0.7818608E-02  0.8116574E-01
         -1   -1    0    0    0  501 -0.00000000000E+00  0.00000000000E+00  0.92976286797E+03  0.92976286797E+03  0.00000000000E+00 0.  1.
          2   -1    0    0  501    0  0.00000000000E+00 -0.00000000000E+00 -0.32718210479E+04  0.32718210479E+04  0.00000000000E+00 0. -1.
         24    2    1    2    0    0 -0.83909131154E+03 -0.13854334477E+04 -0.12863130239E+04  0.20712535767E+04  0.10949939026E+03 0.  0.
        254    2    1    2    0    0  0.83909131154E+03  0.13854334477E+04 -0.10557451561E+04  0.21303303392E+04  0.89454427067E+03 0.  0.
         23    2    4    4    0    0  0.53918194181E+03  0.11672083344E+04 -0.36279645105E+03  0.13392021984E+04  0.93535025212E+02 0.  0.
         23    2    4    4    0    0  0.29990936972E+03  0.21822511332E+03 -0.69294870500E+03  0.79112814077E+03  0.90210848767E+02 0.  0.
          4    1    3    3  502    0 -0.14031389613E+03 -0.27257466529E+03 -0.29231886955E+03  0.42359799233E+03  0.00000000000E+00 0. -1.
         -3    1    3    3    0  502 -0.69877741541E+03 -0.11128587824E+04 -0.99399415433E+03  0.16476555844E+04  0.00000000000E+00 0.  1.
         13    1    5    5    0    0  0.45275345274E+03  0.10138006172E+04 -0.34264552084E+03  0.11619738953E+04  0.00000000000E+00 0.  1.
        -13    1    5    5    0    0  0.86428489079E+02  0.15340771726E+03 -0.20150930217E+02  0.17722830313E+03  0.00000000000E+00 0. -1.
          3    1    6    6  503    0  0.96608117217E+02  0.12305140269E+03 -0.30994792484E+03  0.34719229849E+03  0.00000000000E+00 0. -1.
         -3    1    6    6    0  503  0.20330125251E+03  0.95173710632E+02 -0.38300078015E+03  0.44393584228E+03  0.00000000000E+00 0.  1.
<mgrwt>
<rscale>  0 0.34882762E+04</rscale>
<asrwt>0</asrwt>
<pdfrwt beam="1">  1        2 0.50335707E+00 0.34882762E+04</pdfrwt>
<pdfrwt beam="2">  1       -1 0.14304044E+00 0.34882762E+04</pdfrwt>
<totfact> 0.42969996E-01</totfact>
</mgrwt>
</event>
<event>
12    7  0.1661464E-007  0.3434567E+04  0.7818608E-02  0.8129474E-01
         -1   -1    0    0    0  501 -0.00000000000E+00  0.00000000000E+00  0.29725751411E+04  0.29725751411E+04  0.00000000000E+00 0.  1.
          2   -1    0    0  501    0  0.00000000000E+00 -0.00000000000E+00 -0.99209006025E+03  0.99209006025E+03  0.00000000000E+00 0. -1.
         24    2    1    2    0    0  0.20836659243E+03 -0.67326787000E+03  0.25805614424E+04  0.26762768613E+04  0.80338154153E+02 0.  0.
        254    2    1    2    0    0 -0.20836659243E+03  0.67326787000E+03 -0.60007636157E+03  0.12883883400E+04  0.89618447501E+03 0.  0.
         23    2    4    4    0    0  0.18197660126E+03  0.39264952794E+03  0.80634847162E+02  0.44991080895E+03  0.92890377487E+02 0.  0.
         23    2    4    4    0    0 -0.39034319369E+03  0.28061834206E+03 -0.68071120874E+03  0.83847753103E+03  0.92533008083E+02 0.  0.
          4    1    3    3  502    0  0.59782758432E+02 -0.32411213603E+03  0.11606147768E+04  0.12065029279E+04  0.00000000000E+00 0. -1.
         -3    1    3    3    0  502  0.14858383400E+03 -0.34915573397E+03  0.14199466656E+04  0.14697739335E+04  0.00000000000E+00 0.  1.
         13    1    5    5    0    0  0.12612803651E+03  0.34221460362E+03  0.85144371598E+02  0.37452460605E+03  0.00000000000E+00 0. -1.
        -13    1    5    5    0    0  0.55848564748E+02  0.50434924325E+02 -0.45095244365E+01  0.75386202894E+02  0.00000000000E+00 0.  1.
          4    1    6    6  503    0 -0.38683351022E+03  0.25646987889E+03 -0.63343491549E+03  0.78527495539E+03  0.00000000000E+00 0. -1.
         -4    1    6    6    0  503 -0.35096834726E+01  0.24148463166E+02 -0.47276293247E+02  0.53202575638E+02  0.00000000000E+00 0.  1.
<mgrwt>
<rscale>  0 0.34345668E+04</rscale>
<asrwt>0</asrwt>
<pdfrwt beam="1">  1        2 0.15262924E+00 0.34345668E+04</pdfrwt>
<pdfrwt beam="2">  1       -1 0.45731925E+00 0.34345668E+04</pdfrwt>
<totfact> 0.69064901E-02</totfact>
</mgrwt>
</event>
<event>
12    7  0.1661464E-007  0.1295463E+04  0.7818608E-02  0.9033170E-01
         -1   -1    0    0    0  501 -0.00000000000E+00  0.00000000000E+00  0.84169944540E+03  0.84169944540E+03  0.00000000000E+00 0.  1.
          2   -1    0    0  501    0  0.00000000000E+00 -0.00000000000E+00 -0.49846339434E+03  0.49846339434E+03  0.00000000000E+00 0. -1.
         24    2    1    2    0    0  0.20117404190E+03 -0.13458204169E+03  0.32937710635E+03  0.41643485533E+03  0.79657952971E+02 0.  0.
        254    2    1    2    0    0 -0.20117404190E+03  0.13458204169E+03  0.13858944719E+02  0.92372798441E+03  0.89134617167E+03 0.  0.
         23    2    4    4    0    0 -0.38481577649E+03  0.23448412161E+03 -0.28967919806E+03  0.54352488026E+03  0.91865513365E+02 0.  0.
         23    2    4    4    0    0  0.18364173460E+03 -0.99902079922E+02  0.30353814278E+03  0.38020310415E+03  0.93350329508E+02 0.  0.
          2    1    3    3  502    0 -0.66770944553E+01 -0.39508109927E+01  0.20258234475E+02  0.21693053310E+02  0.00000000000E+00 0. -1.
         -1    1    3    3    0  502  0.20785113635E+03 -0.13063123070E+03  0.30911887187E+03  0.39474180202E+03  0.00000000000E+00 0.  1.
         13    1    5    5    0    0 -0.97264394201E+02  0.25233443621E+02 -0.94091741031E+02  0.13766025129E+03  0.00000000000E+00 0. -1.
        -13    1    5    5    0    0 -0.28755138229E+03  0.20925067799E+03 -0.19558745703E+03  0.40586462897E+03  0.00000000000E+00 0.  1.
          2    1    6    6  503    0  0.42549247690E+02  0.16778727614E+01  0.12029490331E+03  0.12760923751E+03  0.00000000000E+00 0. -1.
         -2    1    6    6    0  503  0.14109248691E+03 -0.10157995268E+03  0.18324323948E+03  0.25259386664E+03  0.00000000000E+00 0.  1.
<mgrwt>
<rscale>  0 0.12954634E+04</rscale>
<asrwt>0</asrwt>
<pdfrwt beam="1">  1        2 0.76686676E-01 0.12954634E+04</pdfrwt>
<pdfrwt beam="2">  1       -1 0.12949222E+00 0.12954634E+04</pdfrwt>
<totfact> 0.35501209E+01</totfact>
</mgrwt>
</event>
<event>
12    7  0.1661464E-007  0.1931450E+04  0.7818608E-02  0.8639358E-01
          2   -1    0    0  501    0  0.00000000000E+00  0.00000000000E+00  0.30073784641E+04  0.30073784641E+04  0.00000000000E+00 0. -1.
         -1   -1    0    0    0  501 -0.00000000000E+00 -0.00000000000E+00 -0.31011229975E+03  0.31011229975E+03  0.00000000000E+00 0.  1.
         24    2    1    2    0    0 -0.21216852585E+03  0.91092476965E+02 -0.16820156890E+03  0.29677982693E+03  0.80456044962E+02 0.  0.
        254    2    1    2    0    0  0.21216852585E+03 -0.91092476965E+02  0.28654677333E+04  0.30207109370E+04  0.92761840829E+03 0.  0.
         23    2    4    4    0    0  0.37434994284E+03 -0.42201732533E+03  0.15771464450E+04  0.16775241479E+04  0.91977471104E+02 0.  0.
         23    2    4    4    0    0 -0.16218141699E+03  0.33092484837E+03  0.12883212883E+04  0.13431867890E+04  0.92546967385E+02 0.  0.
          2    1    3    3  502    0 -0.42216637167E+02  0.27087266317E+02 -0.13720934733E+01  0.50178153521E+02  0.00000000000E+00 0. -1.
         -3    1    3    3    0  502 -0.16995188868E+03  0.64005210648E+02 -0.16682947543E+03  0.24660167341E+03  0.00000000000E+00 0.  1.
         13    1    5    5    0    0  0.34839791123E+03 -0.39100939375E+03  0.15186362650E+04  0.16064014305E+04  0.00000000000E+00 0.  1.
        -13    1    5    5    0    0  0.25952031618E+02 -0.31007931583E+02  0.58510180068E+02  0.71122717452E+02  0.00000000000E+00 0. -1.
          3    1    6    6  503    0  0.60214320891E+01  0.65240092606E+02  0.22385700273E+03  0.23324769023E+03  0.00000000000E+00 0. -1.
         -3    1    6    6    0  503 -0.16820284908E+03  0.26568475576E+03  0.10644642855E+04  0.11099390988E+04  0.00000000000E+00 0.  1.
<mgrwt>
<rscale>  0 0.19314503E+04</rscale>
<asrwt>0</asrwt>
<pdfrwt beam="1">  1        2 0.46267359E+00 0.19314503E+04</pdfrwt>
<pdfrwt beam="2">  1       -1 0.47709587E-01 0.19314503E+04</pdfrwt>
<totfact> 0.80610393E+00</totfact>
</mgrwt>
</event>
<event>
12    7  0.1661464E-007  0.1452703E+04  0.7818608E-02  0.8916529E-01
          2   -1    0    0  501    0  0.00000000000E+00  0.00000000000E+00  0.12837182896E+04  0.12837182896E+04  0.00000000000E+00 0. -1.
         -1   -1    0    0    0  501 -0.00000000000E+00 -0.00000000000E+00 -0.41098285620E+03  0.41098285620E+03  0.00000000000E+00 0.  1.
         24    2    1    2    0    0  0.18219110023E+03 -0.11468321836E+03 -0.14973556076E+03  0.27416471183E+03  0.79998209231E+02 0.  0.
        254    2    1    2    0    0 -0.18219110023E+03  0.11468321836E+03  0.10224709941E+04  0.14205364339E+04  0.96235699650E+03 0.  0.
         23    2    4    4    0    0  0.67377208902E+02 -0.33791247606E+03  0.74731190131E+03  0.82799566932E+03  0.91527158869E+02 0.  0.
         23    2    4    4    0    0 -0.24956830913E+03  0.45259569442E+03  0.27515909281E+03  0.59254076461E+03  0.90911098513E+02 0.  0.
          4    1    3    3  502    0  0.24036714157E+02 -0.29171444709E+01 -0.51732428614E+02  0.57118451744E+02  0.00000000000E+00 0. -1.
         -3    1    3    3    0  502  0.15815438607E+03 -0.11176607389E+03 -0.98003132147E+02  0.21704626009E+03  0.00000000000E+00 0.  1.
         13    1    5    5    0    0  0.57577070019E+02 -0.10149461443E+03  0.19693833398E+03  0.22891261027E+03  0.00000000000E+00 0.  1.
        -13    1    5    5    0    0  0.98001388835E+01 -0.23641786163E+03  0.55037356733E+03  0.59908305904E+03  0.00000000000E+00 0. -1.
          3    1    6    6  503    0 -0.11506535594E+03  0.24619001342E+03  0.97144705807E+02  0.28859427006E+03  0.00000000000E+00 0. -1.
         -3    1    6    6    0  503 -0.13450295320E+03  0.20640568100E+03  0.17801438700E+03  0.30394649455E+03  0.00000000000E+00 0.  1.
<mgrwt>
<rscale>  0 0.14527026E+04</rscale>
<asrwt>0</asrwt>
<pdfrwt beam="1">  1        2 0.19749512E+00 0.14527026E+04</pdfrwt>
<pdfrwt beam="2">  1       -1 0.63228132E-01 0.14527026E+04</pdfrwt>
<totfact> 0.47384835E+01</totfact>
</mgrwt>
</event>
<event>
12    7  0.1661464E-007  0.1894067E+04  0.7818608E-02  0.8657815E-01
         -1   -1    0    0    0  501 -0.00000000000E+00  0.00000000000E+00  0.74387120718E+03  0.74387120718E+03  0.00000000000E+00 0.  1.
          2   -1    0    0  501    0  0.00000000000E+00 -0.00000000000E+00 -0.12056824609E+04  0.12056824609E+04  0.00000000000E+00 0. -1.
         24    2    1    2    0    0 -0.59206607444E+03 -0.14099212757E+03  0.22522083671E+03  0.65511254382E+03  0.89593544637E+02 0.  0.
        254    2    1    2    0    0  0.59206607444E+03  0.14099212757E+03 -0.68703209045E+03  0.12944411243E+04  0.91276706469E+03 0.  0.
         23    2    4    4    0    0  0.31899660635E+03  0.44290502715E+03 -0.82031296016E+02  0.55951566667E+03  0.91678513202E+02 0.  0.
         23    2    4    4    0    0  0.27306946810E+03 -0.30191289958E+03 -0.60500079443E+03  0.73492545762E+03  0.91493899531E+02 0.  0.
          4    1    3    3  502    0 -0.17106087243E+03 -0.58688190323E+02  0.28112295714E+02  0.18302029103E+03  0.00000000000E+00 0. -1.
         -3    1    3    3    0  502 -0.42100520202E+03 -0.82303937249E+02  0.19710854100E+03  0.47209225279E+03  0.00000000000E+00 0.  1.
         13    1    5    5    0    0  0.23595850121E+03  0.37443928940E+03 -0.89832735870E+02  0.45160947308E+03  0.00000000000E+00 0.  1.
        -13    1    5    5    0    0  0.83038105143E+02  0.68465737745E+02  0.78014398539E+01  0.10790619359E+03  0.00000000000E+00 0. -1.
          3    1    6    6  503    0 -0.26383989458E+01 -0.75364086236E+01 -0.39683827748E+02  0.40479189575E+02  0.00000000000E+00 0. -1.
         -3    1    6    6    0  503  0.27570786704E+03 -0.29437649095E+03 -0.56531696669E+03  0.69444626804E+03  0.00000000000E+00 0.  1.
<mgrwt>
<rscale>  0 0.18940670E+04</rscale>
<asrwt>0</asrwt>
<pdfrwt beam="1">  1        2 0.18548961E+00 0.18940670E+04</pdfrwt>
<pdfrwt beam="2">  1       -1 0.11444172E+00 0.18940670E+04</pdfrwt>
<totfact> 0.13945103E+01</totfact>
</mgrwt>
</event>
<event>
12    7  0.1661464E-007  0.1384938E+04  0.7818608E-02  0.8964794E-01
          2   -1    0    0  501    0  0.00000000000E+00  0.00000000000E+00  0.16837455591E+04  0.16837455591E+04  0.00000000000E+00 0. -1.
         -1   -1    0    0    0  501 -0.00000000000E+00 -0.00000000000E+00 -0.28478956821E+03  0.28478956821E+03  0.00000000000E+00 0.  1.
         24    2    1    2    0    0  0.10196543576E+03  0.62059840340E+02  0.92757595570E+03  0.93857964286E+03  0.79285676696E+02 0.  0.
        254    2    1    2    0    0 -0.10196543576E+03 -0.62059840340E+02  0.47138003516E+03  0.10299554844E+04  0.90794316366E+03 0.  0.
         23    2    4    4    0    0  0.18968857296E+03  0.30045159565E+03  0.87865990117E+01  0.36761859760E+03  0.93879246598E+02 0.  0.
         23    2    4    4    0    0 -0.29165400872E+03 -0.36251143599E+03  0.46259343615E+03  0.66233688681E+03  0.90668971755E+02 0.  0.
          4    1    3    3  502    0  0.10388914855E+03  0.75335614463E+02  0.79048011170E+03  0.80082908101E+03  0.00000000000E+00 0. -1.
         -3    1    3    3    0  502 -0.19237127855E+01 -0.13275774123E+02  0.13709584400E+03  0.13775056185E+03  0.00000000000E+00 0.  1.
         13    1    5    5    0    0  0.12136293139E+03  0.23663793608E+03  0.40254426548E+02  0.26897377709E+03  0.00000000000E+00 0. -1.
        -13    1    5    5    0    0  0.68325641564E+02  0.63813659569E+02 -0.31467827537E+02  0.98644820506E+02  0.00000000000E+00 0.  1.
          2    1    6    6  503    0 -0.16432890286E+03 -0.26722865670E+03  0.28357137223E+03  0.42288043987E+03  0.00000000000E+00 0. -1.
         -2    1    6    6    0  503 -0.12732510587E+03 -0.95282779282E+02  0.17902206391E+03  0.23945644694E+03  0.00000000000E+00 0.  1.
<mgrwt>
<rscale>  0 0.13849378E+04</rscale>
<asrwt>0</asrwt>
<pdfrwt beam="1">  1        2 0.25903777E+00 0.13849378E+04</pdfrwt>
<pdfrwt beam="2">  1       -1 0.43813781E-01 0.13849378E+04</pdfrwt>
<totfact> 0.57216455E+01</totfact>
</mgrwt>
</event>
<event>
12    7  0.1661464E-007  0.1823312E+04  0.7818608E-02  0.8694000E-01
         -1   -1    0    0    0  501 -0.00000000000E+00  0.00000000000E+00  0.49346550725E+03  0.49346550725E+03  0.00000000000E+00 0.  1.
          2   -1    0    0  501    0  0.00000000000E+00 -0.00000000000E+00 -0.16842454067E+04  0.16842454067E+04  0.00000000000E+00 0. -1.
         24    2    1    2    0    0 -0.61443294006E+03  0.73289936488E+02 -0.96627941298E+02  0.63175901491E+03  0.82965301557E+02 0.  0.
        254    2    1    2    0    0  0.61443294006E+03 -0.73289936488E+02 -0.10941519581E+04  0.15459518990E+04  0.89994417270E+03 0.  0.
         23    2    4    4    0    0  0.78484271941E+03 -0.60826313508E+01 -0.54645126323E+03  0.96085689290E+03  0.92854148802E+02 0.  0.
         23    2    4    4    0    0 -0.17040977934E+03 -0.67207305137E+02 -0.54770069489E+03  0.58509500610E+03  0.93828568279E+02 0.  0.
          2    1    3    3  502    0 -0.22445084237E+02  0.15615254888E+02 -0.15585242011E+02  0.31472492119E+02  0.00000000000E+00 0. -1.
         -1    1    3    3    0  502 -0.59198785582E+03  0.57674681600E+02 -0.81042699286E+02  0.60028652280E+03  0.00000000000E+00 0.  1.
         13    1    5    5    0    0  0.67613972104E+03 -0.33197395574E+02 -0.48783152336E+03  0.83441391685E+03  0.00000000000E+00 0. -1.
        -13    1    5    5    0    0  0.10870299836E+03  0.27114764224E+02 -0.58619739870E+02  0.12644297606E+03  0.00000000000E+00 0.  1.
          1    1    6    6  503    0 -0.90456981840E+02  0.83938603533E+01 -0.18553380043E+03  0.20658100967E+03  0.00000000000E+00 0. -1.
         -1    1    6    6    0  503 -0.79952797504E+02 -0.75601165490E+02 -0.36216689446E+03  0.37851399643E+03  0.00000000000E+00 0.  1.
<mgrwt>
<rscale>  0 0.18233124E+04</rscale>
<asrwt>0</asrwt>
<pdfrwt beam="1">  1        2 0.25911468E+00 0.18233124E+04</pdfrwt>
<pdfrwt beam="2">  1       -1 0.75917770E-01 0.18233124E+04</pdfrwt>
<totfact> 0.18719976E+01</totfact>
</mgrwt>
</event>
<event>
12    7  0.1661464E-007  0.2911092E+04  0.7818608E-02  0.8269585E-01
          2   -1    0    0  501    0  0.00000000000E+00  0.00000000000E+00  0.12131210914E+04  0.12131210914E+04  0.00000000000E+00 0. -1.
         -1   -1    0    0    0  501 -0.00000000000E+00 -0.00000000000E+00 -0.17464164315E+04  0.17464164315E+04  0.00000000000E+00 0.  1.
         24    2    1    2    0    0 -0.86936597685E+02 -0.12842491377E+04 -0.50048000632E+03  0.13850482586E+04  0.10499820051E+03 0.  0.
        254    2    1    2    0    0  0.86936597685E+02  0.12842491377E+04 -0.32815333832E+02  0.15744892643E+04  0.90613783591E+03 0.  0.
         23    2    4    4    0    0 -0.36060327891E+01  0.87475300114E+03 -0.44024836867E+03  0.98391938495E+03  0.95251842431E+02 0.  0.
         23    2    4    4    0    0  0.90542630474E+02  0.40949613656E+03  0.40743303484E+03  0.59056987939E+03  0.82982231658E+02 0.  0.
          4    1    3    3  502    0 -0.63572952623E+02 -0.91965407980E+03 -0.30692619522E+03  0.97160117132E+03  0.00000000000E+00 0. -1.
         -3    1    3    3    0  502 -0.23363645062E+02 -0.36459505791E+03 -0.19355381109E+03  0.41344708724E+03  0.00000000000E+00 0.  1.
         13    1    5    5    0    0 -0.10172545822E+02  0.59606895551E+03 -0.25015846332E+03  0.64651445242E+03  0.00000000000E+00 0.  1.
        -13    1    5    5    0    0  0.65665130327E+01  0.27868404563E+03 -0.19008990535E+03  0.33740493254E+03  0.00000000000E+00 0. -1.
          2    1    6    6  503    0  0.12294328133E+02  0.24392186957E+03  0.24063926944E+03  0.34286482315E+03  0.00000000000E+00 0. -1.
         -2    1    6    6    0  503  0.78248302341E+02  0.16557426699E+03  0.16679376540E+03  0.24770505624E+03  0.00000000000E+00 0.  1.
<mgrwt>
<rscale>  0 0.29110923E+04</rscale>
<asrwt>0</asrwt>
<pdfrwt beam="1">  1        2 0.18663402E+00 0.29110923E+04</pdfrwt>
<pdfrwt beam="2">  1       -1 0.26867945E+00 0.29110923E+04</pdfrwt>
<totfact> 0.96298515E-01</totfact>
</mgrwt>
</event>
<event>
12    7  0.1661464E-007  0.2139904E+04  0.7818608E-02  0.8543866E-01
         -1   -1    0    0    0  501 -0.00000000000E+00  0.00000000000E+00  0.50652715282E+03  0.50652715282E+03  0.00000000000E+00 0.  1.
          2   -1    0    0  501    0  0.00000000000E+00 -0.00000000000E+00 -0.22600908521E+04  0.22600908521E+04  0.00000000000E+00 0. -1.
         24    2    1    2    0    0  0.60974775471E+03 -0.88057931806E+02 -0.15269429821E+04  0.16484757795E+04  0.79818552528E+02 0.  0.
        254    2    1    2    0    0 -0.60974775471E+03  0.88057931806E+02 -0.22662071724E+03  0.11181422255E+04  0.90517322272E+03 0.  0.
         23    2    4    4    0    0  0.14861499523E+03  0.45701215870E+02  0.17792631144E+03  0.25291013795E+03  0.90170658399E+02 0.  0.
         23    2    4    4    0    0 -0.75836274994E+03  0.42356715935E+02 -0.40454702868E+03  0.86523208751E+03  0.89778142991E+02 0.  0.
          4    1    3    3  502    0  0.50015000550E+03 -0.52723749137E+02 -0.11728663549E+04  0.12761447051E+04  0.00000000000E+00 0. -1.
         -3    1    3    3    0  502  0.10959774922E+03 -0.35334182669E+02 -0.35407662712E+03  0.37233107441E+03  0.00000000000E+00 0.  1.
         13    1    5    5    0    0  0.93573944462E+02  0.33736181180E+01  0.15252937064E+03  0.17897673952E+03  0.00000000000E+00 0.  1.
        -13    1    5    5    0    0  0.55041050764E+02  0.42327597752E+02  0.25396940795E+02  0.73933398424E+02  0.00000000000E+00 0. -1.
          2    1    6    6  503    0 -0.38914235425E+03 -0.23193470109E+02 -0.20459967847E+03  0.44026212346E+03  0.00000000000E+00 0. -1.
         -2    1    6    6    0  503 -0.36922039569E+03  0.65550186045E+02 -0.19994735021E+03  0.42496996405E+03  0.00000000000E+00 0.  1.
<mgrwt>
<rscale>  0 0.21399041E+04</rscale>
<asrwt>0</asrwt>
<pdfrwt beam="1">  1        2 0.34770628E+00 0.21399041E+04</pdfrwt>
<pdfrwt beam="2">  1       -1 0.77927254E-01 0.21399041E+04</pdfrwt>
<totfact> 0.82353228E+00</totfact>
</mgrwt>
</event>
<event>
12    7  0.1661464E-007  0.1576335E+04  0.7818608E-02  0.8835219E-01
          2   -1    0    0  501    0  0.00000000000E+00  0.00000000000E+00  0.12872610309E+04  0.12872610309E+04  0.00000000000E+00 0. -1.
         -1   -1    0    0    0  501 -0.00000000000E+00 -0.00000000000E+00 -0.48258145280E+03  0.48258145280E+03  0.00000000000E+00 0.  1.
         24    2    1    2    0    0  0.22753107613E+03 -0.18439408037E+02 -0.25869819599E+03  0.35536569473E+03  0.85144688681E+02 0.  0.
        254    2    1    2    0    0 -0.22753107613E+03  0.18439408037E+02  0.10633777741E+04  0.14144767890E+04  0.90435717156E+03 0.  0.
         23    2    4    4    0    0  0.28163130326E+03 -0.15184822405E+03  0.18187428253E+03  0.37829068910E+03  0.87472948319E+02 0.  0.
         23    2    4    4    0    0 -0.50916237939E+03  0.17028763209E+03  0.88150349160E+03  0.10361860999E+04  0.91591602911E+02 0.  0.
          4    1    3    3  502    0  0.43193963288E+01  0.12251058692E+02 -0.37237109356E+02  0.39437899753E+02  0.00000000000E+00 0. -1.
         -3    1    3    3    0  502  0.22321167980E+03 -0.30690466729E+02 -0.22146108663E+03  0.31592779498E+03  0.00000000000E+00 0.  1.
         13    1    5    5    0    0  0.17943341625E+03 -0.99182921323E+02  0.16269694724E+03  0.26173249587E+03  0.00000000000E+00 0. -1.
        -13    1    5    5    0    0  0.10219788701E+03 -0.52665302727E+02  0.19177335288E+02  0.11655819323E+03  0.00000000000E+00 0.  1.
          1    1    6    6  503    0 -0.28955762635E+03  0.74395331827E+02  0.41168205991E+03  0.50878325722E+03  0.00000000000E+00 0. -1.
         -1    1    6    6    0  503 -0.21960475304E+03  0.95892300261E+02  0.46982143169E+03  0.52740284270E+03  0.00000000000E+00 0.  1.
<mgrwt>
<rscale>  0 0.15763354E+04</rscale>
<asrwt>0</asrwt>
<pdfrwt beam="1">  1        2 0.19804016E+00 0.15763354E+04</pdfrwt>
<pdfrwt beam="2">  1       -1 0.74243301E-01 0.15763354E+04</pdfrwt>
<totfact> 0.33637488E+01</totfact>
</mgrwt>
</event>
<event>
12    7  0.1661464E-007  0.2155487E+04  0.7818608E-02  0.8537187E-01
         -1   -1    0    0    0  501 -0.00000000000E+00  0.00000000000E+00  0.83526332901E+03  0.83526332901E+03  0.00000000000E+00 0.  1.
          2   -1    0    0  501    0  0.00000000000E+00 -0.00000000000E+00 -0.13906165507E+04  0.13906165507E+04  0.00000000000E+00 0. -1.
         24    2    1    2    0    0 -0.88529039231E+03 -0.46079584937E+02 -0.15887323059E+03  0.90419604736E+03  0.80420033513E+02 0.  0.
        254    2    1    2    0    0  0.88529039231E+03  0.46079584937E+02 -0.39647999106E+03  0.13216838323E+04  0.89654300644E+03 0.  0.
         23    2    4    4    0    0  0.20247455240E+03 -0.41124977738E+02  0.27491231038E+03  0.35590550479E+03  0.91677378745E+02 0.  0.
         23    2    4    4    0    0  0.68281583991E+03  0.87204562675E+02 -0.67139230144E+03  0.96577832752E+03  0.90100213598E+02 0.  0.
          2    1    3    3  502    0 -0.72857367182E+03 -0.59768687557E+02 -0.15247022026E+03  0.74675234137E+03  0.00000000000E+00 0. -1.
         -1    1    3    3    0  502 -0.15671672049E+03  0.13689102621E+02 -0.64030103289E+01  0.15744370598E+03  0.00000000000E+00 0.  1.
         13    1    5    5    0    0  0.35258585269E+02 -0.14972230988E+02  0.68938470138E+01  0.38921210960E+02  0.00000000000E+00 0.  1.
        -13    1    5    5    0    0  0.16721596713E+03 -0.26152746750E+02  0.26801846337E+03  0.31698429383E+03  0.00000000000E+00 0. -1.
          4    1    6    6  503    0  0.63786764368E+03  0.66300077080E+02 -0.59563584828E+03  0.87524447718E+03  0.00000000000E+00 0. -1.
         -4    1    6    6    0  503  0.44948196227E+02  0.20904485595E+02 -0.75756453154E+02  0.90533850335E+02  0.00000000000E+00 0.  1.
<mgrwt>
<rscale>  0 0.21554870E+04</rscale>
<asrwt>0</asrwt>
<pdfrwt beam="1">  1        2 0.21394101E+00 0.21554870E+04</pdfrwt>
<pdfrwt beam="2">  1       -1 0.12850205E+00 0.21554870E+04</pdfrwt>
<totfact> 0.79984569E+00</totfact>
</mgrwt>
</event>
<event>
12    7  0.1661464E-007  0.2450367E+04  0.7818608E-02  0.8420884E-01
         -1   -1    0    0    0  501 -0.00000000000E+00  0.00000000000E+00  0.84310542456E+03  0.84310542456E+03  0.00000000000E+00 0.  1.
          2   -1    0    0  501    0  0.00000000000E+00 -0.00000000000E+00 -0.17804113750E+04  0.17804113750E+04  0.00000000000E+00 0. -1.
         24    2    1    2    0    0  0.59578727774E+03 -0.53721486617E+03 -0.11465186406E+04  0.14016299809E+04  0.80618344301E+02 0.  0.
        254    2    1    2    0    0 -0.59578727774E+03  0.53721486617E+03  0.20921269023E+03  0.12218868186E+04  0.89759409250E+03 0.  0.
         23    2    4    4    0    0  0.16024381206E+03 -0.10028963916E+03  0.60298090118E+02  0.21766822107E+03  0.89484656595E+02 0.  0.
         23    2    4    4    0    0 -0.75603108980E+03  0.63750450533E+03  0.14891460011E+03  0.10042185975E+04  0.91018846185E+02 0.  0.
          4    1    3    3  502    0  0.49519559248E+03 -0.42953823890E+03 -0.98282505609E+03  0.11813834536E+04  0.00000000000E+00 0. -1.
         -3    1    3    3    0  502  0.10059168525E+03 -0.10767662727E+03 -0.16369358453E+03  0.22024652737E+03  0.00000000000E+00 0.  1.
         13    1    5    5    0    0 -0.73655616089E+00 -0.34216796769E+00 -0.14084248228E+02  0.14107644809E+02  0.00000000000E+00 0.  1.
        -13    1    5    5    0    0  0.16098036822E+03 -0.99947471195E+02  0.74382338346E+02  0.20356057627E+03  0.00000000000E+00 0. -1.
          1    1    6    6  503    0 -0.57409340106E+03  0.44773437417E+03  0.13860399480E+03  0.74112102273E+03  0.00000000000E+00 0. -1.
         -1    1    6    6    0  503 -0.18193768874E+03  0.18977013116E+03  0.10310605309E+02  0.26309757477E+03  0.00000000000E+00 0.  1.
<mgrwt>
<rscale>  0 0.24503669E+04</rscale>
<asrwt>0</asrwt>
<pdfrwt beam="1">  1        2 0.27390944E+00 0.24503669E+04</pdfrwt>
<pdfrwt beam="2">  1       -1 0.12970853E+00 0.24503669E+04</pdfrwt>
<totfact> 0.46002701E+00</totfact>
</mgrwt>
</event>
<event>
12    7  0.1661464E-007  0.2374277E+04  0.7818608E-02  0.8449197E-01
         -1   -1    0    0    0  501 -0.00000000000E+00  0.00000000000E+00  0.18832739871E+04  0.18832739871E+04  0.00000000000E+00 0.  1.
          2   -1    0    0  501    0  0.00000000000E+00 -0.00000000000E+00 -0.74832319312E+03  0.74832319312E+03  0.00000000000E+00 0. -1.
         24    2    1    2    0    0 -0.20644587680E+03  0.82797714156E+03 -0.12566851189E+03  0.86622479718E+03  0.79917315901E+02 0.  0.
        254    2    1    2    0    0  0.20644587680E+03 -0.82797714156E+03  0.12606193059E+04  0.17653723831E+04  0.89398689560E+03 0.  0.
         23    2    4    4    0    0  0.34801512554E+03 -0.16738273135E+03  0.84788998560E+02  0.40615181819E+03  0.92944170257E+02 0.  0.
         23    2    4    4    0    0 -0.14156924874E+03 -0.66059441021E+03  0.11758303073E+04  0.13592205649E+04  0.92069567959E+02 0.  0.
          2    1    3    3  502    0 -0.16619146017E+03  0.67331903969E+03 -0.13334851535E+03  0.70622939417E+03  0.00000000000E+00 0. -1.
         -1    1    3    3    0  502 -0.40254416628E+02  0.15465810187E+03  0.76800034624E+01  0.15999540302E+03  0.00000000000E+00 0.  1.
         13    1    5    5    0    0  0.79849989405E+02 -0.39060001604E+02  0.61218405045E+02  0.10793237535E+03  0.00000000000E+00 0.  1.
        -13    1    5    5    0    0  0.26816513614E+03 -0.12832272975E+03  0.23570593515E+02  0.29821944284E+03  0.00000000000E+00 0. -1.
          4    1    6    6  503    0 -0.85721898708E+02 -0.55903571347E+03  0.95866408033E+03  0.11130615400E+04  0.00000000000E+00 0. -1.
         -4    1    6    6    0  503 -0.55847350035E+02 -0.10155869674E+03  0.21716622699E+03  0.24615902489E+03  0.00000000000E+00 0.  1.
<mgrwt>
<rscale>  0 0.23742768E+04</rscale>
<asrwt>0</asrwt>
<pdfrwt beam="1">  1        2 0.11512665E+00 0.23742768E+04</pdfrwt>
<pdfrwt beam="2">  1       -1 0.28973446E+00 0.23742768E+04</pdfrwt>
<totfact> 0.14884801E+00</totfact>
</mgrwt>
</event>
<event>
12    7  0.1661464E-007  0.2738055E+04  0.7818608E-02  0.8322762E-01
          2   -1    0    0  501    0  0.00000000000E+00  0.00000000000E+00  0.23207118899E+04  0.23207118899E+04  0.00000000000E+00 0. -1.
         -1   -1    0    0    0  501 -0.00000000000E+00 -0.00000000000E+00 -0.80761240142E+03  0.80761240142E+03  0.00000000000E+00 0.  1.
         24    2    1    2    0    0 -0.75157236008E+03  0.86026992729E+03  0.11527245346E+04  0.16248341502E+04  0.79917475709E+02 0.  0.
        254    2    1    2    0    0  0.75157236008E+03 -0.86026992729E+03  0.36037495391E+03  0.15034901411E+04  0.90867328381E+03 0.  0.
         23    2    4    4    0    0  0.91265402064E+03 -0.54613322372E+03  0.14649344333E+03  0.10780500836E+04  0.97636029565E+02 0.  0.
         23    2    4    4    0    0 -0.16108166056E+03 -0.31413670356E+03  0.21388151058E+03  0.42544005753E+03  0.10307653511E+03 0.  0.
          2    1    3    3  502    0 -0.54740408139E+03  0.62883131827E+03  0.89034851463E+03  0.12197542919E+04  0.00000000000E+00 0. -1.
         -1    1    3    3    0  502 -0.20416827869E+03  0.23143860902E+03  0.26237601994E+03  0.40507985831E+03  0.00000000000E+00 0.  1.
         13    1    5    5    0    0  0.71753315340E+03 -0.39236510441E+03  0.13881990590E+03  0.82950296423E+03  0.00000000000E+00 0. -1.
        -13    1    5    5    0    0  0.19512086724E+03 -0.15376811931E+03  0.76735374322E+01  0.24854711933E+03  0.00000000000E+00 0.  1.
          2    1    6    6  503    0 -0.16375355322E+03 -0.23919486639E+03  0.14729310901E+03  0.32515330270E+03  0.00000000000E+00 0. -1.
         -2    1    6    6    0  503  0.26718926622E+01 -0.74941837177E+02  0.66588401571E+02  0.10028675483E+03  0.00000000000E+00 0.  1.
<mgrwt>
<rscale>  0 0.27380546E+04</rscale>
<asrwt>0</asrwt>
<pdfrwt beam="1">  1        2 0.35703260E+00 0.27380546E+04</pdfrwt>
<pdfrwt beam="2">  1       -1 0.12424806E+00 0.27380546E+04</pdfrwt>
<totfact> 0.24924927E+00</totfact>
</mgrwt>
</event>
<event>
12    7  0.1661464E-007  0.3069633E+04  0.7818608E-02  0.8224122E-01
          2   -1    0    0  501    0  0.00000000000E+00  0.00000000000E+00  0.14093384416E+04  0.14093384416E+04  0.00000000000E+00 0. -1.
         -1   -1    0    0    0  501 -0.00000000000E+00 -0.00000000000E+00 -0.16714660377E+04  0.16714660377E+04  0.00000000000E+00 0.  1.
         24    2    1    2    0    0 -0.64347205873E+03  0.57173524923E+03  0.94087165746E+03  0.12777246193E+04  0.80020256821E+02 0.  0.
        254    2    1    2    0    0  0.64347205873E+03 -0.57173524923E+03 -0.12029992536E+04  0.18030798599E+04  0.10309957767E+04 0.  0.
         23    2    4    4    0    0  0.40807013429E+02 -0.62685239386E+03 -0.27585750522E+03  0.69221407594E+03  0.91944699181E+02 0.  0.
         23    2    4    4    0    0  0.60266504530E+03  0.55117144636E+02 -0.92714174835E+03  0.11108657840E+04  0.90487081859E+02 0.  0.
          2    1    3    3  502    0 -0.51564552434E+03  0.48859792622E+03  0.74340318372E+03  0.10282346687E+04  0.00000000000E+00 0. -1.
         -1    1    3    3    0  502 -0.12782653439E+03  0.83137323009E+02  0.19746847374E+03  0.24948995069E+03  0.00000000000E+00 0.  1.
         13    1    5    5    0    0  0.55304069105E+02 -0.44341596156E+03 -0.15930655384E+03  0.47439944469E+03  0.00000000000E+00 0. -1.
        -13    1    5    5    0    0 -0.14497055676E+02 -0.18343643230E+03 -0.11655095138E+03  0.21781463125E+03  0.00000000000E+00 0.  1.
          1    1    6    6  503    0  0.26914588164E+03  0.35358819271E+02 -0.49596521467E+03  0.56539476993E+03  0.00000000000E+00 0. -1.
         -1    1    6    6    0  503  0.33351916366E+03  0.19758325365E+02 -0.43117653368E+03  0.54547101403E+03  0.00000000000E+00 0.  1.
<mgrwt>
<rscale>  0 0.30696328E+04</rscale>
<asrwt>0</asrwt>
<pdfrwt beam="1">  1        2 0.21682130E+00 0.30696328E+04</pdfrwt>
<pdfrwt beam="2">  1       -1 0.25714862E+00 0.30696328E+04</pdfrwt>
<totfact> 0.86753716E-01</totfact>
</mgrwt>
</event>
<event>
12    7  0.1661464E-007  0.1611346E+04  0.7818608E-02  0.8813608E-01
         -1   -1    0    0    0  501 -0.00000000000E+00  0.00000000000E+00  0.52826384476E+03  0.52826384476E+03  0.00000000000E+00 0.  1.
          2   -1    0    0  501    0  0.00000000000E+00 -0.00000000000E+00 -0.12287588769E+04  0.12287588769E+04  0.00000000000E+00 0. -1.
         24    2    1    2    0    0 -0.76998045049E+02  0.53569530077E+02 -0.83214243054E+03  0.84121984710E+03  0.79946312885E+02 0.  0.
        254    2    1    2    0    0  0.76998045049E+02 -0.53569530077E+02  0.13164739842E+03  0.91580287454E+03  0.90142413658E+03 0.  0.
         23    2    4    4    0    0  0.25429366653E+03  0.24480518797E+03 -0.20957742053E+03  0.42087770652E+03  0.92846646445E+02 0.  0.
         23    2    4    4    0    0 -0.17729562148E+03 -0.29837471804E+03  0.34122481895E+03  0.49492516802E+03  0.89751518704E+02 0.  0.
          4    1    3    3  502    0 -0.50840411164E+01  0.46906554363E+02 -0.43622178344E+03  0.43876590190E+03  0.00000000000E+00 0. -1.
         -3    1    3    3    0  502 -0.71914003932E+02  0.66629757140E+01 -0.39592064710E+03  0.40245394520E+03  0.00000000000E+00 0.  1.
         13    1    5    5    0    0  0.12290063589E+03  0.56661100555E+02 -0.71548735909E+02  0.15308255364E+03  0.00000000000E+00 0. -1.
        -13    1    5    5    0    0  0.13139303065E+03  0.18814408741E+03 -0.13802868462E+03  0.26779515288E+03  0.00000000000E+00 0.  1.
          3    1    6    6  503    0 -0.96634063988E+02 -0.85790846115E+02  0.99688379479E+02  0.16320534490E+03  0.00000000000E+00 0. -1.
         -3    1    6    6    0  503 -0.80661557496E+02 -0.21258387193E+03  0.24153643947E+03  0.33171982312E+03  0.00000000000E+00 0.  1.
<mgrwt>
<rscale>  0 0.16113459E+04</rscale>
<asrwt>0</asrwt>
<pdfrwt beam="1">  1        2 0.18903983E+00 0.16113459E+04</pdfrwt>
<pdfrwt beam="2">  1       -1 0.81271360E-01 0.16113459E+04</pdfrwt>
<totfact> 0.30001433E+01</totfact>
</mgrwt>
</event>
<event>
12    7  0.1661464E-007  0.1819652E+04  0.7818608E-02  0.8695918E-01
         -1   -1    0    0    0  501 -0.00000000000E+00  0.00000000000E+00  0.58882767173E+03  0.58882767173E+03  0.00000000000E+00 0.  1.
          2   -1    0    0  501    0  0.00000000000E+00 -0.00000000000E+00 -0.14058158801E+04  0.14058158801E+04  0.00000000000E+00 0. -1.
         24    2    1    2    0    0 -0.41413830130E+03 -0.20252502342E+03  0.24808831951E+03  0.52956636582E+03  0.79785987569E+02 0.  0.
        254    2    1    2    0    0  0.41413830130E+03  0.20252502342E+03 -0.10650765279E+04  0.14650771860E+04  0.89416789978E+03 0.  0.
         23    2    4    4    0    0  0.60724184202E+03 -0.87071394040E+02 -0.82119030643E+03  0.10290741925E+04  0.91192608857E+02 0.  0.
         23    2    4    4    0    0 -0.19310354072E+03  0.28959641746E+03 -0.24388622143E+03  0.43600299350E+03  0.97278254986E+02 0.  0.
          4    1    3    3  502    0 -0.87987057242E+02 -0.75761239291E+02  0.42029125655E+02  0.12348252923E+03  0.00000000000E+00 0. -1.
         -3    1    3    3    0  502 -0.32615124406E+03 -0.12676378413E+03  0.20605919386E+03  0.40608383659E+03  0.00000000000E+00 0.  1.
         13    1    5    5    0    0  0.48059180335E+03 -0.10520631308E+03 -0.63898690411E+03  0.80643729662E+03  0.00000000000E+00 0.  1.
        -13    1    5    5    0    0  0.12665003868E+03  0.18134919041E+02 -0.18220340232E+03  0.22263689587E+03  0.00000000000E+00 0. -1.
          1    1    6    6  503    0 -0.19862633971E+03  0.27054444131E+03 -0.20758846008E+03  0.39463867817E+03  0.00000000000E+00 0. -1.
         -1    1    6    6    0  503  0.55227989848E+01  0.19051976150E+02 -0.36297761348E+02  0.41364315330E+02  0.00000000000E+00 0.  1.
<mgrwt>
<rscale>  0 0.18196519E+04</rscale>
<asrwt>0</asrwt>
<pdfrwt beam="1">  1        2 0.21627937E+00 0.18196519E+04</pdfrwt>
<pdfrwt beam="2">  1       -1 0.90588873E-01 0.18196519E+04</pdfrwt>
<totfact> 0.18367780E+01</totfact>
</mgrwt>
</event>
<event>
12    7  0.1661464E-007  0.1946466E+04  0.7818608E-02  0.8632067E-01
          2   -1    0    0  501    0  0.00000000000E+00  0.00000000000E+00  0.21734779022E+04  0.21734779022E+04  0.00000000000E+00 0. -1.
         -1   -1    0    0    0  501 -0.00000000000E+00 -0.00000000000E+00 -0.43579125393E+03  0.43579125393E+03  0.00000000000E+00 0.  1.
         24    2    1    2    0    0 -0.10114802423E+03  0.43211067497E+03  0.15250313846E+04  0.15901064305E+04  0.75941939775E+02 0.  0.
        254    2    1    2    0    0  0.10114802423E+03 -0.43211067497E+03  0.21265526364E+03  0.10191627256E+04  0.89247960302E+03 0.  0.
         23    2    4    4    0    0 -0.20850231878E+03 -0.57774731536E+03  0.23284700477E+03  0.66363133008E+03  0.94465005595E+02 0.  0.
         23    2    4    4    0    0  0.30965034301E+03  0.14563664040E+03 -0.20191741123E+02  0.35553139549E+03  0.94347765287E+02 0.  0.
          2    1    3    3  502    0 -0.10196732521E+03  0.32021562565E+03  0.12096021288E+04  0.12554173379E+04  0.00000000000E+00 0. -1.
         -1    1    3    3    0  502  0.81930098403E+00  0.11189504932E+03  0.31542925584E+03  0.33468909267E+03  0.00000000000E+00 0.  1.
         13    1    5    5    0    0 -0.19319398704E+03 -0.52069659346E+03  0.23822572164E+03  0.60431808969E+03  0.00000000000E+00 0. -1.
        -13    1    5    5    0    0 -0.15308331741E+02 -0.57050721903E+02 -0.53787168743E+01  0.59313240390E+02  0.00000000000E+00 0.  1.
          2    1    6    6  503    0  0.26152231253E+03  0.13023590472E+03 -0.50672457383E+02  0.29651814239E+03  0.00000000000E+00 0. -1.
         -2    1    6    6    0  503  0.48128030486E+02  0.15400735674E+02  0.30480716260E+02  0.59013253101E+02  0.00000000000E+00 0.  1.
<mgrwt>
<rscale>  0 0.19464662E+04</rscale>
<asrwt>0</asrwt>
<pdfrwt beam="1">  1        2 0.33438121E+00 0.19464662E+04</pdfrwt>
<pdfrwt beam="2">  1       -1 0.67044810E-01 0.19464662E+04</pdfrwt>
<totfact> 0.12795673E+01</totfact>
</mgrwt>
</event>
<event>
12    7  0.1661464E-007  0.1729892E+04  0.7818608E-02  0.8744497E-01
         -1   -1    0    0    0  501 -0.00000000000E+00  0.00000000000E+00  0.45439643690E+03  0.45439643690E+03  0.00000000000E+00 0.  1.
          2   -1    0    0  501    0  0.00000000000E+00 -0.00000000000E+00 -0.16464293374E+04  0.16464293374E+04  0.00000000000E+00 0. -1.
         24    2    1    2    0    0  0.10600557857E+03  0.61808189973E+03 -0.40172164637E+03  0.74927801230E+03  0.82309422867E+02 0.  0.
        254    2    1    2    0    0 -0.10600557857E+03 -0.61808189973E+03 -0.79031125409E+03  0.13515477620E+04  0.89934812896E+03 0.  0.
         23    2    4    4    0    0 -0.71284594787E+01  0.21516421978E+02  0.16705015095E+03  0.19163098145E+03  0.91120298342E+02 0.  0.
         23    2    4    4    0    0 -0.98877119094E+02 -0.63959832171E+03 -0.95736140505E+03  0.11599167805E+04  0.10001689878E+03 0.  0.
          4    1    3    3  502    0  0.73769160949E+02  0.36060511241E+03 -0.18910895994E+03  0.41381171435E+03  0.00000000000E+00 0. -1.
         -3    1    3    3    0  502  0.32236417624E+02  0.25747678732E+03 -0.21261268643E+03  0.33546629795E+03  0.00000000000E+00 0.  1.
         13    1    5    5    0    0  0.11147060370E+02 -0.33202198146E+02  0.48898268038E+02  0.60147182259E+02  0.00000000000E+00 0. -1.
        -13    1    5    5    0    0 -0.18275519849E+02  0.54718620124E+02  0.11815188291E+03  0.13148379919E+03  0.00000000000E+00 0.  1.
          3    1    6    6  503    0 -0.92390996735E+02 -0.32368796643E+03 -0.54210833071E+03  0.63811553665E+03  0.00000000000E+00 0. -1.
         -3    1    6    6    0  503 -0.64861223594E+01 -0.31591035528E+03 -0.41525307433E+03  0.52180124386E+03  0.00000000000E+00 0.  1.
<mgrwt>
<rscale>  0 0.17298920E+04</rscale>
<asrwt>0</asrwt>
<pdfrwt beam="1">  1        2 0.25329682E+00 0.17298920E+04</pdfrwt>
<pdfrwt beam="2">  1       -1 0.69907144E-01 0.17298920E+04</pdfrwt>
<totfact> 0.23503583E+01</totfact>
</mgrwt>
</event>
<event>
12    7  0.1661464E-007  0.1939940E+04  0.7818608E-02  0.8635227E-01
          2   -1    0    0  501    0  0.00000000000E+00  0.00000000000E+00  0.75547794543E+03  0.75547794543E+03  0.00000000000E+00 0. -1.
         -1   -1    0    0    0  501 -0.00000000000E+00 -0.00000000000E+00 -0.12453596217E+04  0.12453596217E+04  0.00000000000E+00 0.  1.
         24    2    1    2    0    0  0.36400007529E+03 -0.66034744332E+03 -0.10930884885E+03  0.76629422986E+03  0.81875646977E+02 0.  0.
        254    2    1    2    0    0 -0.36400007529E+03  0.66034744332E+03 -0.38057282746E+03  0.12345433373E+04  0.90039256661E+03 0.  0.
         23    2    4    4    0    0 -0.47822611307E+03  0.77347638977E+02  0.47603781416E+02  0.49638862346E+03  0.97224858058E+02 0.  0.
         23    2    4    4    0    0  0.11422603778E+03  0.58299980434E+03 -0.42817660888E+03  0.73815471386E+03  0.92740571619E+02 0.  0.
          2    1    3    3  502    0  0.27142042429E+03 -0.54820577504E+03 -0.70370548307E+02  0.61575208695E+03  0.00000000000E+00 0. -1.
         -1    1    3    3    0  502  0.92579650993E+02 -0.11214166828E+03 -0.38938300543E+02  0.15054214291E+03  0.00000000000E+00 0.  1.
         13    1    5    5    0    0 -0.75432599806E+02  0.20568229089E+02  0.43750034153E+02  0.89594612839E+02  0.00000000000E+00 0. -1.
        -13    1    5    5    0    0 -0.40279351326E+03  0.56779409887E+02  0.38537472633E+01  0.40679401062E+03  0.00000000000E+00 0.  1.
          1    1    6    6  503    0  0.56709583004E+01  0.12245343158E+03 -0.49844175633E+02  0.13233081469E+03  0.00000000000E+00 0. -1.
         -1    1    6    6    0  503  0.10855507948E+03  0.46054637277E+03 -0.37833243325E+03  0.60582389916E+03  0.00000000000E+00 0.  1.
<mgrwt>
<rscale>  0 0.19399399E+04</rscale>
<asrwt>0</asrwt>
<pdfrwt beam="1">  1        2 0.11622738E+00 0.19399399E+04</pdfrwt>
<pdfrwt beam="2">  1       -1 0.19159379E+00 0.19399399E+04</pdfrwt>
<totfact> 0.68161531E+00</totfact>
</mgrwt>
</event>
<event>
12    7  0.1661464E-007  0.1542697E+04  0.7818608E-02  0.8856546E-01
          2   -1    0    0  501    0  0.00000000000E+00  0.00000000000E+00  0.10090075691E+04  0.10090075691E+04  0.00000000000E+00 0. -1.
         -1   -1    0    0    0  501 -0.00000000000E+00 -0.00000000000E+00 -0.58966741584E+03  0.58966741584E+03  0.00000000000E+00 0.  1.
         24    2    1    2    0    0  0.30792123556E+03 -0.35743897711E+03 -0.62904964519E+02  0.48272513734E+03  0.80550692060E+02 0.  0.
        254    2    1    2    0    0 -0.30792123556E+03  0.35743897711E+03  0.48224511782E+03  0.11159498476E+04  0.88893509275E+03 0.  0.
         23    2    4    4    0    0 -0.46793015182E+03  0.53699124861E+03  0.22574158412E+03  0.75310031041E+03  0.94247475643E+02 0.  0.
         23    2    4    4    0    0  0.16000891626E+03 -0.17955227150E+03  0.25650353370E+03  0.36284953723E+03  0.89575958738E+02 0.  0.
          4    1    3    3  502    0  0.12323212064E+03 -0.20287992280E+03 -0.21286159959E+02  0.23832649714E+03  0.00000000000E+00 0. -1.
         -3    1    3    3    0  502  0.18468911492E+03 -0.15455905431E+03 -0.41618804559E+02  0.24439864020E+03  0.00000000000E+00 0.  1.
         13    1    5    5    0    0 -0.29341532899E+03  0.33315701498E+03  0.18805478218E+03  0.48213146860E+03  0.00000000000E+00 0. -1.
        -13    1    5    5    0    0 -0.17451482283E+03  0.20383423364E+03  0.37686801942E+02  0.27096884181E+03  0.00000000000E+00 0.  1.
          1    1    6    6  503    0  0.14163615090E+03 -0.14048401587E+03  0.15527182073E+03  0.25279615557E+03  0.00000000000E+00 0. -1.
         -1    1    6    6    0  503  0.18372765362E+02 -0.39068255629E+02  0.10123171296E+03  0.11005338166E+03  0.00000000000E+00 0.  1.
<mgrwt>
<rscale>  0 0.15426975E+04</rscale>
<asrwt>0</asrwt>
<pdfrwt beam="1">  1        2 0.15523193E+00 0.15426975E+04</pdfrwt>
<pdfrwt beam="2">  1       -1 0.90718064E-01 0.15426975E+04</pdfrwt>
<totfact> 0.32422262E+01</totfact>
</mgrwt>
</event>
<event>
12    7  0.1661464E-007  0.4581298E+04  0.7818608E-02  0.7896556E-01
          2   -1    0    0  501    0  0.00000000000E+00  0.00000000000E+00  0.26717554270E+04  0.26717554270E+04  0.00000000000E+00 0. -1.
         -1   -1    0    0    0  501 -0.00000000000E+00 -0.00000000000E+00 -0.19639047656E+04  0.19639047656E+04  0.00000000000E+00 0.  1.
         24    2    1    2    0    0 -0.93124098278E+03 -0.12611612877E+04  0.18772823565E+04  0.24471256857E+04  0.80607159619E+02 0.  0.
        254    2    1    2    0    0  0.93124098278E+03  0.12611612877E+04 -0.11694316950E+04  0.21885345069E+04  0.98202608780E+03 0.  0.
         23    2    4    4    0    0  0.87492161035E+03  0.14139382975E+04 -0.10400989434E+04  0.19634855821E+04  0.93597465784E+02 0.  0.
         23    2    4    4    0    0  0.56319372424E+02 -0.15277700982E+03 -0.12933275161E+03  0.22504892483E+03  0.86066087907E+02 0.  0.
          4    1    3    3  502    0 -0.89152289978E+03 -0.12154286624E+04  0.17794980577E+04  0.23321006093E+04  0.00000000000E+00 0. -1.
         -3    1    3    3    0  502 -0.39718082992E+02 -0.45732625235E+02  0.97784298716E+02  0.11502507641E+03  0.00000000000E+00 0.  1.
         13    1    5    5    0    0  0.14808999267E+03  0.17891856575E+03 -0.15235031996E+03  0.27776450293E+03  0.00000000000E+00 0.  1.
        -13    1    5    5    0    0  0.72683161768E+03  0.12350197317E+04 -0.88774862343E+03  0.16857210791E+04  0.00000000000E+00 0. -1.
          3    1    6    6  503    0  0.79140500451E+02 -0.12647023297E+03 -0.10114589936E+03  0.18024547594E+03  0.00000000000E+00 0. -1.
         -3    1    6    6    0  503 -0.22821128026E+02 -0.26306776849E+02 -0.28186852251E+02  0.44803448890E+02  0.00000000000E+00 0.  1.
<mgrwt>
<rscale>  0 0.45812982E+04</rscale>
<asrwt>0</asrwt>
<pdfrwt beam="1">  1        2 0.41103929E+00 0.45812982E+04</pdfrwt>
<pdfrwt beam="2">  1       -1 0.30213920E+00 0.45812982E+04</pdfrwt>
<totfact> 0.75549099E-02</totfact>
</mgrwt>
</event>
<event>
12    7  0.1661464E-007  0.2552201E+04  0.7818608E-02  0.8384621E-01
          2   -1    0    0  501    0  0.00000000000E+00  0.00000000000E+00  0.72515982535E+03  0.72515982535E+03  0.00000000000E+00 0. -1.
         -1   -1    0    0    0  501 -0.00000000000E+00 -0.00000000000E+00 -0.22456191670E+04  0.22456191670E+04  0.00000000000E+00 0.  1.
         24    2    1    2    0    0 -0.92652996300E+03  0.40027815964E+03 -0.11947886184E+03  0.10193482694E+04  0.78200502260E+02 0.  0.
        254    2    1    2    0    0  0.92652996300E+03 -0.40027815964E+03 -0.14009804798E+04  0.19514307229E+04  0.90920579850E+03 0.  0.
         23    2    4    4    0    0  0.42652839887E+03 -0.46954931189E+03 -0.12696219902E+04  0.14222363377E+04  0.91723338793E+02 0.  0.
         23    2    4    4    0    0  0.50000156414E+03  0.69271152242E+02 -0.13135848956E+03  0.52919438518E+03  0.89395681405E+02 0.  0.
          2    1    3    3  502    0 -0.45344329053E+03  0.23115279648E+03 -0.38036581226E+02  0.51038144026E+03  0.00000000000E+00 0. -1.
         -3    1    3    3    0  502 -0.47308667247E+03  0.16912536316E+03 -0.81442280618E+02  0.50896682918E+03  0.00000000000E+00 0.  1.
         13    1    5    5    0    0  0.31278167773E+02 -0.55301694750E+02 -0.18757566024E+03  0.19804350415E+03  0.00000000000E+00 0.  1.
        -13    1    5    5    0    0  0.39525023109E+03 -0.41424761714E+03 -0.10820463300E+04  0.12241928336E+04  0.00000000000E+00 0. -1.
          3    1    6    6  503    0  0.10746058502E+03  0.51744326625E+02 -0.39812449407E+02  0.12573895100E+03  0.00000000000E+00 0. -1.
         -3    1    6    6    0  503  0.39254097911E+03  0.17526825618E+02 -0.91546040154E+02  0.40345543418E+03  0.00000000000E+00 0.  1.
<mgrwt>
<rscale>  0 0.25522012E+04</rscale>
<asrwt>0</asrwt>
<pdfrwt beam="1">  1        2 0.11156305E+00 0.25522012E+04</pdfrwt>
<pdfrwt beam="2">  1       -1 0.34547987E+00 0.25522012E+04</pdfrwt>
<totfact> 0.66058801E-01</totfact>
</mgrwt>
</event>
<event>
12    7  0.1661464E-007  0.2850598E+04  0.7818608E-02  0.8287730E-01
         -1   -1    0    0    0  501 -0.00000000000E+00  0.00000000000E+00  0.21856813209E+04  0.21856813209E+04  0.00000000000E+00 0.  1.
          2   -1    0    0  501    0  0.00000000000E+00 -0.00000000000E+00 -0.92944774507E+03  0.92944774507E+03  0.00000000000E+00 0. -1.
         24    2    1    2    0    0  0.83653672669E+03  0.97221318699E+03  0.47969595750E+03  0.13715643622E+04  0.78028276052E+02 0.  0.
        254    2    1    2    0    0 -0.83653672669E+03 -0.97221318699E+03  0.77653761831E+03  0.17435647038E+04  0.88995226141E+03 0.  0.
         23    2    4    4    0    0 -0.29980211315E+03 -0.70819226207E+03  0.20196977803E+02  0.77465152033E+03  0.90881642474E+02 0.  0.
         23    2    4    4    0    0 -0.53673461355E+03 -0.26402092492E+03  0.75634064051E+03  0.96891318346E+03  0.94607073827E+02 0.  0.
          2    1    3    3  502    0  0.75137011688E+03  0.87042861500E+03  0.45473313721E+03  0.12365214323E+04  0.00000000000E+00 0. -1.
         -1    1    3    3    0  502  0.85166609814E+02  0.10178457199E+03  0.24962820287E+02  0.13504292991E+03  0.00000000000E+00 0.  1.
         13    1    5    5    0    0 -0.59948104873E+02 -0.99663066012E+02 -0.25138375611E+02  0.11898924293E+03  0.00000000000E+00 0. -1.
        -13    1    5    5    0    0 -0.23985400827E+03 -0.60852919606E+03  0.45335353414E+02  0.65566227740E+03  0.00000000000E+00 0.  1.
          1    1    6    6  503    0 -0.20551185297E+03 -0.15241144563E+03  0.30708399469E+03  0.39970607985E+03  0.00000000000E+00 0. -1.
         -1    1    6    6    0  503 -0.33122276058E+03 -0.11160947929E+03  0.44925664582E+03  0.56920710361E+03  0.00000000000E+00 0.  1.
<mgrwt>
<rscale>  0 0.28505975E+04</rscale>
<asrwt>0</asrwt>
<pdfrwt beam="1">  1        2 0.14299196E+00 0.28505975E+04</pdfrwt>
<pdfrwt beam="2">  1       -1 0.33625866E+00 0.28505975E+04</pdfrwt>
<totfact> 0.52988092E-01</totfact>
</mgrwt>
</event>
<event>
12    7  0.1661464E-007  0.1431669E+04  0.7818608E-02  0.8931209E-01
         -1   -1    0    0    0  501 -0.00000000000E+00  0.00000000000E+00  0.25564277432E+03  0.25564277432E+03  0.00000000000E+00 0.  1.
          2   -1    0    0  501    0  0.00000000000E+00 -0.00000000000E+00 -0.20044342947E+04  0.20044342947E+04  0.00000000000E+00 0. -1.
         24    2    1    2    0    0 -0.74137190626E+02  0.26623715931E+01  0.13515883480E+03  0.16962552266E+03  0.70721256040E+02 0.  0.
        254    2    1    2    0    0  0.74137190626E+02 -0.26623715931E+01 -0.18839503552E+04  0.20904515463E+04  0.90289274869E+03 0.  0.
         23    2    4    4    0    0  0.23030231136E+03 -0.33364348022E+03 -0.47282102351E+03  0.62971571271E+03  0.92871050662E+02 0.  0.
         23    2    4    4    0    0 -0.15616512074E+03  0.33098110862E+03 -0.14111293316E+04  0.14607358336E+04  0.92342546031E+02 0.  0.
          2    1    3    3  502    0 -0.21371758230E+02  0.34702423918E+02  0.54694560472E+02  0.68209275182E+02  0.00000000000E+00 0. -1.
         -1    1    3    3    0  502 -0.52765432396E+02 -0.32040052325E+02  0.80464274327E+02  0.10141624747E+03  0.00000000000E+00 0.  1.
         13    1    5    5    0    0  0.37453612276E+02 -0.10187643632E+02 -0.35520854492E+02  0.52614563185E+02  0.00000000000E+00 0.  1.
        -13    1    5    5    0    0  0.19284869909E+03 -0.32345583659E+03 -0.43730016902E+03  0.57710114953E+03  0.00000000000E+00 0. -1.
          1    1    6    6  503    0 -0.12054328139E+03  0.26549763825E+03 -0.12443343322E+04  0.12780405349E+04  0.00000000000E+00 0. -1.
         -1    1    6    6    0  503 -0.35621839344E+02  0.65483470372E+02 -0.16679499949E+03  0.18269529875E+03  0.00000000000E+00 0.  1.
<mgrwt>
<rscale>  0 0.14316692E+04</rscale>
<asrwt>0</asrwt>
<pdfrwt beam="1">  1        2 0.30837451E+00 0.14316692E+04</pdfrwt>
<pdfrwt beam="2">  1       -1 0.39329658E-01 0.14316692E+04</pdfrwt>
<totfact> 0.46191933E+01</totfact>
</mgrwt>
</event>
<event>
12    7  0.1661464E-007  0.1711831E+04  0.7818608E-02  0.8754645E-01
          2   -1    0    0  501    0  0.00000000000E+00  0.00000000000E+00  0.20180581452E+04  0.20180581452E+04  0.00000000000E+00 0. -1.
         -1   -1    0    0    0  501 -0.00000000000E+00 -0.00000000000E+00 -0.36301784843E+03  0.36301784843E+03  0.00000000000E+00 0.  1.
         24    2    1    2    0    0 -0.58481987168E+03  0.12467376473E+01  0.33942960738E+03  0.68093136120E+03  0.80244773279E+02 0.  0.
        254    2    1    2    0    0  0.58481987168E+03 -0.12467376473E+01  0.13156106894E+04  0.17001446324E+04  0.90423694266E+03 0.  0.
         23    2    4    4    0    0  0.32013949050E+03 -0.21990001757E+03  0.69922791838E+02  0.40528869807E+03  0.92327790263E+02 0.  0.
         23    2    4    4    0    0  0.26468038118E+03  0.21865327992E+03  0.12456878975E+04  0.12948559344E+04  0.83955891063E+02 0.  0.
          2    1    3    3  502    0 -0.24517893531E+03 -0.15707757335E+01  0.97183875558E+02  0.26374207728E+03  0.00000000000E+00 0. -1.
         -1    1    3    3    0  502 -0.33964093637E+03  0.28175133809E+01  0.24224573182E+03  0.41718928393E+03  0.00000000000E+00 0.  1.
         13    1    5    5    0    0  0.13271457408E+03 -0.61720719370E+02 -0.11646364321E+02  0.14682725624E+03  0.00000000000E+00 0.  1.
        -13    1    5    5    0    0  0.18742491643E+03 -0.15817929820E+03  0.81569156159E+02  0.25846144183E+03  0.00000000000E+00 0. -1.
          4    1    6    6  503    0  0.13073114823E+02  0.42655432008E+02  0.11938528654E+03  0.12744896569E+03  0.00000000000E+00 0. -1.
         -4    1    6    6    0  503  0.25160726635E+03  0.17599784791E+03  0.11263026110E+04  0.11674069687E+04  0.00000000000E+00 0.  1.
<mgrwt>
<rscale>  0 0.17118307E+04</rscale>
<asrwt>0</asrwt>
<pdfrwt beam="1">  1        2 0.31047048E+00 0.17118307E+04</pdfrwt>
<pdfrwt beam="2">  1       -1 0.55848901E-01 0.17118307E+04</pdfrwt>
<totfact> 0.22925453E+01</totfact>
</mgrwt>
</event>
<event>
12    7  0.1661464E-007  0.1222012E+04  0.7818608E-02  0.9093805E-01
          2   -1    0    0  501    0  0.00000000000E+00  0.00000000000E+00  0.62303867169E+03  0.62303867169E+03  0.00000000000E+00 0. -1.
         -1   -1    0    0    0  501 -0.00000000000E+00 -0.00000000000E+00 -0.59920536660E+03  0.59920536660E+03  0.00000000000E+00 0.  1.
         24    2    1    2    0    0 -0.25910712415E+03  0.31257318234E+02 -0.86981139704E+02  0.28635988015E+03  0.79515662408E+02 0.  0.
        254    2    1    2    0    0  0.25910712415E+03 -0.31257318234E+02  0.11081444479E+03  0.93588415814E+03  0.89190010346E+03 0.  0.
         23    2    4    4    0    0 -0.14607165849E+03  0.10956254349E+03  0.37211125363E+03  0.42534206704E+03  0.95436935005E+02 0.  0.
         23    2    4    4    0    0  0.40517878264E+03 -0.14081986173E+03 -0.26129680884E+03  0.51054209110E+03  0.91526636094E+02 0.  0.
          4    1    3    3  502    0 -0.12450370136E+03  0.32830416673E+02 -0.79953914576E+02  0.15156396791E+03  0.00000000000E+00 0. -1.
         -3    1    3    3    0  502 -0.13460342279E+03 -0.15730984386E+01 -0.70272251271E+01  0.13479591224E+03  0.00000000000E+00 0.  1.
         13    1    5    5    0    0 -0.15303214073E+03  0.10638511096E+03  0.30246615145E+03  0.35527792038E+03  0.00000000000E+00 0. -1.
        -13    1    5    5    0    0  0.69604822405E+01  0.31774325343E+01  0.69645102176E+02  0.70064146663E+02  0.00000000000E+00 0.  1.
          3    1    6    6  503    0  0.33842037991E+03 -0.13639810470E+03 -0.18509380315E+03  0.40913630060E+03  0.00000000000E+00 0. -1.
         -3    1    6    6    0  503  0.66758402727E+02 -0.44217570247E+01 -0.76203005688E+02  0.10140579049E+03  0.00000000000E+00 0.  1.
<mgrwt>
<rscale>  0 0.12220116E+04</rscale>
<asrwt>0</asrwt>
<pdfrwt beam="1">  1        2 0.95852104E-01 0.12220116E+04</pdfrwt>
<pdfrwt beam="2">  1       -1 0.92185441E-01 0.12220116E+04</pdfrwt>
<totfact> 0.61120638E+01</totfact>
</mgrwt>
</event>
<event>
12    7  0.1661464E-007  0.1153559E+04  0.7818608E-02  0.9154506E-01
          2   -1    0    0  501    0  0.00000000000E+00  0.00000000000E+00  0.10465524868E+04  0.10465524868E+04  0.00000000000E+00 0. -1.
         -1   -1    0    0    0  501 -0.00000000000E+00 -0.00000000000E+00 -0.31787686485E+03  0.31787686485E+03  0.00000000000E+00 0.  1.
         24    2    1    2    0    0 -0.12729297729E+03  0.97363861955E+02  0.25866725508E+03  0.31461790925E+03  0.79952837876E+02 0.  0.
        254    2    1    2    0    0  0.12729297729E+03 -0.97363861955E+02  0.47000836690E+03  0.10498114424E+04  0.92493944453E+03 0.  0.
         23    2    4    4    0    0  0.32091382799E+03 -0.74282008364E+02  0.67196895064E+03  0.75457327727E+03  0.96618105881E+02 0.  0.
         23    2    4    4    0    0 -0.19362085070E+03 -0.23081853592E+02 -0.20196058374E+03  0.29523816517E+03  0.91409468847E+02 0.  0.
          2    1    3    3  502    0 -0.11604769687E+03  0.98145140373E+02  0.26197491462E+03  0.30287025674E+03  0.00000000000E+00 0. -1.
         -1    1    3    3    0  502 -0.11245280421E+02 -0.78127841793E+00 -0.33076595408E+01  0.11747652504E+02  0.00000000000E+00 0.  1.
         13    1    5    5    0    0  0.36313828844E+02 -0.33911769756E+02  0.15868034590E+03  0.16627734202E+03  0.00000000000E+00 0. -1.
        -13    1    5    5    0    0  0.28459999915E+03 -0.40370238608E+02  0.51328860474E+03  0.58829593525E+03  0.00000000000E+00 0.  1.
          2    1    6    6  503    0 -0.26544178963E+02  0.26059394889E+02 -0.59817518749E+02  0.70440194833E+02  0.00000000000E+00 0. -1.
         -2    1    6    6    0  503 -0.16707667174E+03 -0.49141248480E+02 -0.14214306499E+03  0.22479797034E+03  0.00000000000E+00 0.  1.
<mgrwt>
<rscale>  0 0.11535594E+04</rscale>
<asrwt>0</asrwt>
<pdfrwt beam="1">  1        2 0.16100807E+00 0.11535594E+04</pdfrwt>
<pdfrwt beam="2">  1       -1 0.48904134E-01 0.11535594E+04</pdfrwt>
<totfact> 0.11112531E+02</totfact>
</mgrwt>
</event>
<event>
12    7  0.1661464E-007  0.1263222E+04  0.7818608E-02  0.9059250E-01
         -1   -1    0    0    0  501 -0.00000000000E+00  0.00000000000E+00  0.16867469827E+03  0.16867469827E+03  0.00000000000E+00 0.  1.
          2   -1    0    0  501    0  0.00000000000E+00 -0.00000000000E+00 -0.23650994825E+04  0.23650994825E+04  0.00000000000E+00 0. -1.
         24    2    1    2    0    0  0.48182551580E+02 -0.19599515732E+02  0.51349471213E+02  0.10823865361E+03  0.79831940023E+02 0.  0.
        254    2    1    2    0    0 -0.48182551580E+02  0.19599515732E+02 -0.22477742554E+04  0.24255355272E+04  0.90996032375E+03 0.  0.
         23    2    4    4    0    0  0.13610510189E+03 -0.40509461125E+03 -0.97853083347E+03  0.10713735190E+04  0.87706227106E+02 0.  0.
         23    2    4    4    0    0 -0.18428765347E+03  0.42469412699E+03 -0.12692434220E+04  0.13541620082E+04  0.91917568995E+02 0.  0.
          4    1    3    3  502    0  0.44204047774E+02  0.17862295920E+02  0.41624981105E+01  0.47857975779E+02  0.00000000000E+00 0. -1.
         -3    1    3    3    0  502  0.39785038057E+01 -0.37461811652E+02  0.47186973103E+02  0.60380677832E+02  0.00000000000E+00 0.  1.
         13    1    5    5    0    0  0.10071912698E+03 -0.37920968150E+03 -0.87496447422E+03  0.95890935767E+03  0.00000000000E+00 0. -1.
        -13    1    5    5    0    0  0.35385974910E+02 -0.25884929759E+02 -0.10356635925E+03  0.11246416130E+03  0.00000000000E+00 0.  1.
          4    1    6    6  503    0 -0.15818640007E+03  0.35218409573E+03 -0.94368672551E+03  0.10196083613E+04  0.00000000000E+00 0. -1.
         -4    1    6    6    0  503 -0.26101253402E+02  0.72510031254E+02 -0.32555669646E+03  0.33455364693E+03  0.00000000000E+00 0.  1.
<mgrwt>
<rscale>  0 0.12632220E+04</rscale>
<asrwt>0</asrwt>
<pdfrwt beam="1">  1        2 0.36386144E+00 0.12632220E+04</pdfrwt>
<pdfrwt beam="2">  1       -1 0.25949955E-01 0.12632220E+04</pdfrwt>
<totfact> 0.61435011E+01</totfact>
</mgrwt>
</event>
<event>
12    7  0.1661464E-007  0.1115952E+04  0.7818608E-02  0.9189782E-01
         -3   -1    0    0    0  501 -0.00000000000E+00  0.00000000000E+00  0.17520620853E+03  0.17520620853E+03  0.00000000000E+00 0.  1.
          2   -1    0    0  501    0  0.00000000000E+00 -0.00000000000E+00 -0.17769774043E+04  0.17769774043E+04  0.00000000000E+00 0. -1.
         24    2    1    2    0    0 -0.78727994995E+02  0.14805960003E+03 -0.17832964957E+03  0.25777510871E+03  0.80788615531E+02 0.  0.
        254    2    1    2    0    0  0.78727994995E+02 -0.14805960003E+03 -0.14234415462E+04  0.16944085041E+04  0.90372263499E+03 0.  0.
         23    2    4    4    0    0 -0.17791828970E+02 -0.50828061480E+03 -0.97908674530E+03  0.11073963064E+04  0.95131446479E+02 0.  0.
         23    2    4    4    0    0  0.96519823965E+02  0.36022101476E+03 -0.44435480089E+03  0.58701219768E+03  0.89760098314E+02 0.  0.
          2    1    3    3  502    0 -0.70519053682E+02  0.97240597679E+02 -0.16589549295E+03  0.20481695572E+03  0.00000000000E+00 0. -1.
         -1    1    3    3    0  502 -0.82089413138E+01  0.50819002355E+02 -0.12434156619E+02  0.52958152996E+02  0.00000000000E+00 0.  1.
         13    1    5    5    0    0 -0.53195921888E+02 -0.34218342833E+03 -0.69282393545E+03  0.77454781019E+03  0.00000000000E+00 0.  1.
        -13    1    5    5    0    0  0.35404092919E+02 -0.16609718646E+03 -0.28626280985E+03  0.33284849624E+03  0.00000000000E+00 0. -1.
          1    1    6    6  503    0 -0.18468024223E+01  0.16288582810E+03 -0.19793465562E+03  0.25634611674E+03  0.00000000000E+00 0. -1.
         -1    1    6    6    0  503  0.98366626387E+02  0.19733518667E+03 -0.24642014527E+03  0.33066608093E+03  0.00000000000E+00 0.  1.
<mgrwt>
<rscale>  0 0.11159525E+04</rscale>
<asrwt>0</asrwt>
<pdfrwt beam="1">  1        2 0.27338115E+00 0.11159525E+04</pdfrwt>
<pdfrwt beam="2">  1       -3 0.26954800E-01 0.11159525E+04</pdfrwt>
<totfact> 0.75666715E+01</totfact>
</mgrwt>
</event>
<event>
12    7  0.1661464E-007  0.2903901E+04  0.7818608E-02  0.8271718E-01
          2   -1    0    0  501    0  0.00000000000E+00  0.00000000000E+00  0.13322180569E+04  0.13322180569E+04  0.00000000000E+00 0. -1.
         -1   -1    0    0    0  501 -0.00000000000E+00 -0.00000000000E+00 -0.15824437199E+04  0.15824437199E+04  0.00000000000E+00 0.  1.
         24    2    1    2    0    0  0.10948789309E+04  0.44247330127E+02  0.61028402291E+03  0.12567466794E+04  0.79043836202E+02 0.  0.
        254    2    1    2    0    0 -0.10948789309E+04 -0.44247330127E+02 -0.86050968593E+03  0.16579150974E+04  0.89860327798E+03 0.  0.
         23    2    4    4    0    0 -0.29848317408E+03  0.34427634606E+02 -0.78951395363E+03  0.84946633193E+03  0.89349308158E+02 0.  0.
         23    2    4    4    0    0 -0.79639575678E+03 -0.78674964733E+02 -0.70995732296E+02  0.80844876549E+03  0.90072531420E+02 0.  0.
          4    1    3    3  502    0  0.69594991482E+03  0.16684758808E+02  0.34571280279E+03  0.77726572491E+03  0.00000000000E+00 0. -1.
         -3    1    3    3    0  502  0.39892901604E+03  0.27562571319E+02  0.26457122012E+03  0.47948095447E+03  0.00000000000E+00 0.  1.
         13    1    5    5    0    0 -0.25892376922E+03  0.57203657950E+02 -0.62952056448E+03  0.68308851392E+03  0.00000000000E+00 0. -1.
        -13    1    5    5    0    0 -0.39559404859E+02 -0.22776023344E+02 -0.15999338915E+03  0.16637781801E+03  0.00000000000E+00 0.  1.
          4    1    6    6  503    0 -0.75178877353E+03 -0.52654546372E+02 -0.64156449428E+02  0.75635633882E+03  0.00000000000E+00 0. -1.
         -4    1    6    6    0  503 -0.44606983247E+02 -0.26020418361E+02 -0.68392828687E+01  0.52092426668E+02  0.00000000000E+00 0.  1.
<mgrwt>
<rscale>  0 0.29039009E+04</rscale>
<asrwt>0</asrwt>
<pdfrwt beam="1">  1        2 0.20495663E+00 0.29039009E+04</pdfrwt>
<pdfrwt beam="2">  1       -1 0.24345288E+00 0.29039009E+04</pdfrwt>
<totfact> 0.11973292E+00</totfact>
</mgrwt>
</event>
<event>
12    7  0.1661464E-007  0.1321531E+04  0.7818608E-02  0.9012663E-01
         -1   -1    0    0    0  501 -0.00000000000E+00  0.00000000000E+00  0.29429056280E+03  0.29429056280E+03  0.00000000000E+00 0.  1.
          2   -1    0    0  501    0  0.00000000000E+00 -0.00000000000E+00 -0.14836063810E+04  0.14836063810E+04  0.00000000000E+00 0. -1.
         24    2    1    2    0    0  0.11621397500E+03 -0.12326481260E+03 -0.73474755430E+03  0.75816100735E+03  0.79083768931E+02 0.  0.
        254    2    1    2    0    0 -0.11621397500E+03  0.12326481260E+03 -0.45456826391E+03  0.10197359365E+04  0.89695550142E+03 0.  0.
         23    2    4    4    0    0  0.35289164361E+03 -0.10671194075E+03 -0.15028194902E+03  0.40819473461E+03  0.90101757685E+02 0.  0.
         23    2    4    4    0    0 -0.46910561861E+03  0.22997675335E+03 -0.30428631489E+03  0.61154120184E+03  0.91886297295E+02 0.  0.
          2    1    3    3  502    0  0.10587146057E+03 -0.11876076719E+03 -0.72763359532E+03  0.74482449948E+03  0.00000000000E+00 0. -1.
         -1    1    3    3    0  502  0.10342514432E+02 -0.45040454122E+01 -0.71139589788E+01  0.13336507872E+02  0.00000000000E+00 0.  1.
         13    1    5    5    0    0  0.33928916793E+03 -0.10008207602E+03 -0.16198366427E+03  0.38906589276E+03  0.00000000000E+00 0. -1.
        -13    1    5    5    0    0  0.13602475677E+02 -0.66298647348E+01  0.11701715253E+02  0.19128841858E+02  0.00000000000E+00 0.  1.
          2    1    6    6  503    0 -0.43216401196E+03  0.22609225517E+03 -0.25666015311E+03  0.55114233667E+03  0.00000000000E+00 0. -1.
         -2    1    6    6    0  503 -0.36941606653E+02  0.38844981792E+01 -0.47626161776E+02  0.60398865169E+02  0.00000000000E+00 0.  1.
<mgrwt>
<rscale>  0 0.13215315E+04</rscale>
<asrwt>0</asrwt>
<pdfrwt beam="1">  1        2 0.22824714E+00 0.13215315E+04</pdfrwt>
<pdfrwt beam="2">  1       -1 0.45275470E-01 0.13215315E+04</pdfrwt>
<totfact> 0.70006652E+01</totfact>
</mgrwt>
</event>
<event>
12    7  0.1661464E-007  0.1655021E+04  0.7818608E-02  0.8787441E-01
         -1   -1    0    0    0  501 -0.00000000000E+00  0.00000000000E+00  0.45485657060E+03  0.45485657060E+03  0.00000000000E+00 0.  1.
          2   -1    0    0  501    0  0.00000000000E+00 -0.00000000000E+00 -0.15054721007E+04  0.15054721007E+04  0.00000000000E+00 0. -1.
         24    2    1    2    0    0 -0.47733200989E+02 -0.18673927057E+03 -0.10377034035E+04  0.10585766301E+04  0.81278007307E+02 0.  0.
        254    2    1    2    0    0  0.47733200989E+02  0.18673927057E+03 -0.12912126669E+02  0.90175204128E+03  0.88081780596E+03 0.  0.
         23    2    4    4    0    0  0.27013822927E+03 -0.16268041755E+03  0.24073895163E+03  0.40749747264E+03  0.93055715621E+02 0.  0.
         23    2    4    4    0    0 -0.22240502828E+03  0.34941968812E+03 -0.25365107830E+03  0.49425456864E+03  0.91600185854E+02 0.  0.
          2    1    3    3  502    0  0.20865894266E+02 -0.56957791611E+02 -0.24515847859E+03  0.25255149018E+03  0.00000000000E+00 0. -1.
         -1    1    3    3    0  502 -0.68599095255E+02 -0.12978147896E+03 -0.79254492489E+03  0.80602513988E+03  0.00000000000E+00 0.  1.
         13    1    5    5    0    0  0.25496886805E+03 -0.16442160391E+03  0.19842663180E+03  0.36251443518E+03  0.00000000000E+00 0.  1.
        -13    1    5    5    0    0  0.15169361219E+02  0.17411863567E+01  0.42312319832E+02  0.44983037462E+02  0.00000000000E+00 0. -1.
          1    1    6    6  503    0  0.77927688124E+01  0.22472027046E+02 -0.20419839518E+02  0.31347872196E+02  0.00000000000E+00 0. -1.
         -1    1    6    6    0  503 -0.23019779710E+03  0.32694766107E+03 -0.23323123878E+03  0.46290669644E+03  0.00000000000E+00 0.  1.
<mgrwt>
<rscale>  0 0.16550213E+04</rscale>
<asrwt>0</asrwt>
<pdfrwt beam="1">  1        2 0.23161109E+00 0.16550213E+04</pdfrwt>
<pdfrwt beam="2">  1       -1 0.69977935E-01 0.16550213E+04</pdfrwt>
<totfact> 0.28313056E+01</totfact>
</mgrwt>
</event>
<event>
12    7  0.1661464E-007  0.1608814E+04  0.7818608E-02  0.8815152E-01
         -1   -1    0    0    0  501 -0.00000000000E+00  0.00000000000E+00  0.73882929628E+03  0.73882929628E+03  0.00000000000E+00 0.  1.
          2   -1    0    0  501    0  0.00000000000E+00 -0.00000000000E+00 -0.87580522574E+03  0.87580522574E+03  0.00000000000E+00 0. -1.
         24    2    1    2    0    0 -0.15730263047E+03 -0.52321741140E+03 -0.36045630843E+02  0.55364729659E+03  0.82008928601E+02 0.  0.
        254    2    1    2    0    0  0.15730263047E+03  0.52321741140E+03 -0.10093029862E+03  0.10609872254E+04  0.90388405795E+03 0.  0.
         23    2    4    4    0    0 -0.19124578619E+02  0.18695494036E+03  0.38482643551E+03  0.43799028708E+03  0.91794372807E+02 0.  0.
         23    2    4    4    0    0  0.17642720909E+03  0.33626247104E+03 -0.48575673413E+03  0.62299693835E+03  0.89255649158E+02 0.  0.
          4    1    3    3  502    0  0.80627365246E+01 -0.83922800121E+01 -0.23067080213E+01  0.11864189225E+02  0.00000000000E+00 0. -1.
         -3    1    3    3    0  502 -0.16536536700E+03 -0.51482513139E+03 -0.33738922822E+02  0.54178310736E+03  0.00000000000E+00 0.  1.
         13    1    5    5    0    0  0.21423537635E+02  0.87323808255E+02  0.24895467689E+03  0.26469387337E+03  0.00000000000E+00 0.  1.
        -13    1    5    5    0    0 -0.40548116254E+02  0.99631132103E+02  0.13587175862E+03  0.17329641372E+03  0.00000000000E+00 0. -1.
          3    1    6    6  503    0  0.66158311716E+02  0.91778627938E+02 -0.20868049815E+03  0.23737689244E+03  0.00000000000E+00 0. -1.
         -3    1    6    6    0  503  0.11026889738E+03  0.24448384310E+03 -0.27707623598E+03  0.38562004591E+03  0.00000000000E+00 0.  1.
<mgrwt>
<rscale>  0 0.16088139E+04</rscale>
<asrwt>0</asrwt>
<pdfrwt beam="1">  1        2 0.13473927E+00 0.16088139E+04</pdfrwt>
<pdfrwt beam="2">  1       -1 0.11366605E+00 0.16088139E+04</pdfrwt>
<totfact> 0.23521439E+01</totfact>
</mgrwt>
</event>
<event>
12    7  0.1661464E-007  0.2408629E+04  0.7818608E-02  0.8436280E-01
          2   -1    0    0  501    0  0.00000000000E+00  0.00000000000E+00  0.18195340862E+04  0.18195340862E+04  0.00000000000E+00 0. -1.
         -1   -1    0    0    0  501 -0.00000000000E+00 -0.00000000000E+00 -0.79711235042E+03  0.79711235042E+03  0.00000000000E+00 0.  1.
         24    2    1    2    0    0  0.56024061374E+03 -0.64379174410E+03  0.10803937226E+04  0.13790580719E+04  0.78823948538E+02 0.  0.
        254    2    1    2    0    0 -0.56024061374E+03  0.64379174410E+03 -0.57971986825E+02  0.12375883647E+04  0.89438630025E+03 0.  0.
         23    2    4    4    0    0 -0.41236162665E+03  0.72832241676E+03  0.24639856294E+03  0.87720900514E+03  0.91036986907E+02 0.  0.
         23    2    4    4    0    0 -0.14787898708E+03 -0.84530672664E+02 -0.30437054977E+03  0.36037935954E+03  0.90654408452E+02 0.  0.
          4    1    3    3  502    0  0.27083113823E+03 -0.35953726822E+03  0.60568357088E+03  0.75463179148E+03  0.00000000000E+00 0. -1.
         -3    1    3    3    0  502  0.28940947550E+03 -0.28425447587E+03  0.47471015171E+03  0.62442628044E+03  0.00000000000E+00 0.  1.
         13    1    5    5    0    0 -0.96811376226E+01  0.10845437757E+02  0.18395591701E+02  0.23446657328E+02  0.00000000000E+00 0.  1.
        -13    1    5    5    0    0 -0.40268048903E+03  0.71747697900E+03  0.22800297124E+03  0.85376234781E+03  0.00000000000E+00 0. -1.
          4    1    6    6  503    0 -0.93947742185E+02 -0.96021099631E+02 -0.18246563044E+03  0.22658317706E+03  0.00000000000E+00 0. -1.
         -4    1    6    6    0  503 -0.53931244899E+02  0.11490426967E+02 -0.12190491933E+03  0.13379618247E+03  0.00000000000E+00 0.  1.
<mgrwt>
<rscale>  0 0.24086287E+04</rscale>
<asrwt>0</asrwt>
<pdfrwt beam="1">  1        2 0.27992832E+00 0.24086287E+04</pdfrwt>
<pdfrwt beam="2">  1       -1 0.12263267E+00 0.24086287E+04</pdfrwt>
<totfact> 0.50518464E+00</totfact>
</mgrwt>
</event>
<event>
12    7  0.1661464E-007  0.3358833E+04  0.7818608E-02  0.8148085E-01
          2   -1    0    0  501    0  0.00000000000E+00  0.00000000000E+00  0.27301163118E+04  0.27301163118E+04  0.00000000000E+00 0. -1.
         -1   -1    0    0    0  501 -0.00000000000E+00 -0.00000000000E+00 -0.10330841414E+04  0.10330841414E+04  0.00000000000E+00 0.  1.
         24    2    1    2    0    0 -0.15199076579E+04  0.27991780962E+03  0.79549034412E+03  0.17400043958E+04  0.79606161797E+02 0.  0.
        254    2    1    2    0    0  0.15199076579E+04 -0.27991780962E+03  0.90154182632E+03  0.20231960574E+04  0.94449529040E+03 0.  0.
         23    2    4    4    0    0  0.63577437872E+03  0.12230392667E+03 -0.55886512710E+02  0.65634958429E+03  0.92218020847E+02 0.  0.
         23    2    4    4    0    0  0.88413327917E+03 -0.40222173629E+03  0.95742833903E+03  0.13668464732E+04  0.90145861389E+02 0.  0.
          2    1    3    3  502    0 -0.43876245871E+03  0.10539857565E+03  0.26264040428E+03  0.52211237955E+03  0.00000000000E+00 0. -1.
         -1    1    3    3    0  502 -0.10811451992E+04  0.17451923397E+03  0.53284993984E+03  0.12178920162E+04  0.00000000000E+00 0.  1.
         13    1    5    5    0    0  0.26996253733E+03  0.60710183236E+01 -0.28770864255E+02  0.27155918592E+03  0.00000000000E+00 0.  1.
        -13    1    5    5    0    0  0.36581184139E+03  0.11623290835E+03 -0.27115648455E+02  0.38479039837E+03  0.00000000000E+00 0. -1.
          4    1    6    6  503    0  0.51203210534E+02 -0.45618578381E+02  0.53329751380E+02  0.86872814187E+02  0.00000000000E+00 0. -1.
         -4    1    6    6    0  503  0.83293006863E+03 -0.35660315791E+03  0.90409858765E+03  0.12799736590E+04  0.00000000000E+00 0.  1.
<mgrwt>
<rscale>  0 0.33588331E+04</rscale>
<asrwt>0</asrwt>
<pdfrwt beam="1">  1        2 0.42001789E+00 0.33588331E+04</pdfrwt>
<pdfrwt beam="2">  1       -1 0.15893602E+00 0.33588331E+04</pdfrwt>
<totfact> 0.71601379E-01</totfact>
</mgrwt>
</event>
<event>
12    7  0.1661464E-007  0.1061338E+04  0.7818608E-02  0.9243716E-01
          2   -1    0    0  501    0  0.00000000000E+00  0.00000000000E+00  0.18612906416E+04  0.18612906416E+04  0.00000000000E+00 0. -1.
         -1   -1    0    0    0  501 -0.00000000000E+00 -0.00000000000E+00 -0.15129795777E+03  0.15129795777E+03  0.00000000000E+00 0.  1.
         24    2    1    2    0    0 -0.10991073014E+03  0.58016990442E+02  0.24447655358E+03  0.28525018248E+03  0.78438138501E+02 0.  0.
        254    2    1    2    0    0  0.10991073014E+03 -0.58016990442E+02  0.14655161303E+04  0.17273384169E+04  0.90582235493E+03 0.  0.
         23    2    4    4    0    0  0.57006526897E+02 -0.97344436533E+02  0.15691194847E+04  0.15757837706E+04  0.90735058518E+02 0.  0.
         23    2    4    4    0    0  0.52904203246E+02  0.39327446091E+02 -0.10360335444E+03  0.15155464635E+03  0.88823718924E+02 0.  0.
          4    1    3    3  502    0 -0.99265605144E+02  0.12532606212E+02  0.15963898578E+03  0.18840204979E+03  0.00000000000E+00 0. -1.
         -3    1    3    3    0  502 -0.10645124999E+02  0.45484384230E+02  0.84837567801E+02  0.96848132690E+02  0.00000000000E+00 0.  1.
         13    1    5    5    0    0  0.49063286774E+02 -0.28917687541E+01  0.45841788313E+03  0.46104503468E+03  0.00000000000E+00 0.  1.
        -13    1    5    5    0    0  0.79432401237E+01 -0.94452667779E+02  0.11107016016E+04  0.11147387359E+04  0.00000000000E+00 0. -1.
          4    1    6    6  503    0  0.76892672672E+02  0.19444633380E+02 -0.70866197706E+02  0.10636068285E+03  0.00000000000E+00 0. -1.
         -4    1    6    6    0  503 -0.23988469426E+02  0.19882812711E+02 -0.32737156730E+02  0.45193963507E+02  0.00000000000E+00 0.  1.
<mgrwt>
<rscale>  0 0.10613378E+04</rscale>
<asrwt>0</asrwt>
<pdfrwt beam="1">  1        2 0.28635239E+00 0.10613378E+04</pdfrwt>
<pdfrwt beam="2">  1       -1 0.23276610E-01 0.10613378E+04</pdfrwt>
<totfact> 0.14334414E+02</totfact>
</mgrwt>
</event>
<event>
12    7  0.1661464E-007  0.1682953E+04  0.7818608E-02  0.8771147E-01
         -1   -1    0    0    0  501 -0.00000000000E+00  0.00000000000E+00  0.32668309131E+03  0.32668309131E+03  0.00000000000E+00 0.  1.
          2   -1    0    0  501    0  0.00000000000E+00 -0.00000000000E+00 -0.21674917781E+04  0.21674917781E+04  0.00000000000E+00 0. -1.
         24    2    1    2    0    0  0.12409534954E+03  0.29047747126E+03  0.91736179441E+02  0.33844299579E+03  0.79695154792E+02 0.  0.
        254    2    1    2    0    0 -0.12409534954E+03 -0.29047747126E+03 -0.19325448662E+04  0.21557318736E+04  0.90148401754E+03 0.  0.
         23    2    4    4    0    0  0.17141982189E+03  0.25268382337E+03 -0.47980532670E+03  0.57426463825E+03  0.79579226464E+02 0.  0.
         23    2    4    4    0    0 -0.29551517142E+03 -0.54316129463E+03 -0.14527395395E+04  0.15814672354E+04  0.90736091649E+02 0.  0.
          4    1    3    3  502    0  0.11741109968E+02  0.67964349937E+02 -0.90626213744E+01  0.69563910412E+02  0.00000000000E+00 0. -1.
         -3    1    3    3    0  502  0.11235423957E+03  0.22251312132E+03  0.10079880082E+03  0.26887908538E+03  0.00000000000E+00 0.  1.
         13    1    5    5    0    0  0.15710223388E+03  0.25349576070E+03 -0.43654759327E+03  0.52869179469E+03  0.00000000000E+00 0. -1.
        -13    1    5    5    0    0  0.14317588004E+02 -0.81193732888E+00 -0.43257733429E+02  0.45572843557E+02  0.00000000000E+00 0.  1.
          4    1    6    6  503    0 -0.42108201131E+01 -0.28748572808E+02 -0.12053263641E+03  0.12398519219E+03  0.00000000000E+00 0. -1.
         -4    1    6    6    0  503 -0.29130435131E+03 -0.51441272182E+03 -0.13322069031E+04  0.14574820432E+04  0.00000000000E+00 0.  1.
<mgrwt>
<rscale>  0 0.16829533E+04</rscale>
<asrwt>0</asrwt>
<pdfrwt beam="1">  1        2 0.33346027E+00 0.16829533E+04</pdfrwt>
<pdfrwt beam="2">  1       -1 0.50258937E-01 0.16829533E+04</pdfrwt>
<totfact> 0.23239210E+01</totfact>
</mgrwt>
</event>
<event>
12    7  0.1661464E-007  0.1146513E+04  0.7818608E-02  0.9161006E-01
          2   -1    0    0  501    0  0.00000000000E+00  0.00000000000E+00  0.23578623671E+03  0.23578623671E+03  0.00000000000E+00 0. -1.
         -1   -1    0    0    0  501 -0.00000000000E+00 -0.00000000000E+00 -0.13937336361E+04  0.13937336361E+04  0.00000000000E+00 0.  1.
         24    2    1    2    0    0 -0.54415103630E+02  0.68024882966E+02 -0.47446238678E+03  0.49371623460E+03  0.10513218169E+03 0.  0.
        254    2    1    2    0    0  0.54415103630E+02 -0.68024882966E+02 -0.68348501257E+03  0.11358036382E+04  0.90294504477E+03 0.  0.
         23    2    4    4    0    0 -0.26357581059E+03 -0.71954700224E+02 -0.74535352137E+03  0.79880814778E+03  0.88841985187E+02 0.  0.
         23    2    4    4    0    0  0.31799091422E+03  0.39298172579E+01  0.61868508798E+02  0.33699549039E+03  0.92760892482E+02 0.  0.
          4    1    3    3  502    0 -0.27329057489E+02  0.93019612520E+01 -0.21082204671E+02  0.35747212761E+02  0.00000000000E+00 0. -1.
         -3    1    3    3    0  502 -0.27086046141E+02  0.58722921714E+02 -0.45338018211E+03  0.45796902184E+03  0.00000000000E+00 0.  1.
         13    1    5    5    0    0 -0.41673957371E+02 -0.19203129432E+02 -0.54323224572E+02  0.71109012304E+02  0.00000000000E+00 0.  1.
        -13    1    5    5    0    0 -0.22190185322E+03 -0.52751570792E+02 -0.69103029679E+03  0.72769913547E+03  0.00000000000E+00 0. -1.
          3    1    6    6  503    0  0.27323485017E+03  0.30161223613E+02  0.31018659898E+02  0.27663900668E+03  0.00000000000E+00 0. -1.
         -3    1    6    6    0  503  0.44756064052E+02 -0.26231406355E+02  0.30849848900E+02  0.60356483711E+02  0.00000000000E+00 0.  1.
<mgrwt>
<rscale>  0 0.11465133E+04</rscale>
<asrwt>0</asrwt>
<pdfrwt beam="1">  1        2 0.36274804E-01 0.11465133E+04</pdfrwt>
<pdfrwt beam="2">  1       -1 0.21442057E+00 0.11465133E+04</pdfrwt>
<totfact> 0.19604591E+01</totfact>
</mgrwt>
</event>
<event>
12    7  0.1661464E-007  0.2242723E+04  0.7818608E-02  0.8500853E-01
          2   -1    0    0  501    0  0.00000000000E+00  0.00000000000E+00  0.32133844006E+04  0.32133844006E+04  0.00000000000E+00 0. -1.
         -1   -1    0    0    0  501 -0.00000000000E+00 -0.00000000000E+00 -0.39131691135E+03  0.39131691135E+03  0.00000000000E+00 0.  1.
         24    2    1    2    0    0 -0.42777998212E+03  0.76749493253E+03  0.68139614465E+03  0.11150776138E+04  0.83983297027E+02 0.  0.
        254    2    1    2    0    0  0.42777998212E+03 -0.76749493253E+03  0.21406713446E+04  0.24896236982E+04  0.91853588303E+03 0.  0.
         23    2    4    4    0    0  0.57846200188E+03 -0.61636264000E+03  0.20837574878E+04  0.22505104325E+04  0.90723463997E+02 0.  0.
         23    2    4    4    0    0 -0.15068201976E+03 -0.15113229254E+03  0.56913856748E+02  0.23911326571E+03  0.91596538253E+02 0.  0.
          4    1    3    3  502    0 -0.38678436743E+03  0.69419021901E+03  0.64522897157E+03  0.10236320788E+04  0.00000000000E+00 0. -1.
         -3    1    3    3    0  502 -0.40995614687E+02  0.73304713522E+02  0.36167173080E+02  0.91445534920E+02  0.00000000000E+00 0.  1.
         13    1    5    5    0    0  0.39548941587E+03 -0.46025919665E+03  0.15716436444E+04  0.16847296967E+04  0.00000000000E+00 0. -1.
        -13    1    5    5    0    0  0.18297258601E+03 -0.15610344334E+03  0.51211384346E+03  0.56578073573E+03  0.00000000000E+00 0.  1.
          2    1    6    6  503    0 -0.56489223003E+02 -0.74524811848E+02 -0.19675656439E+02  0.95562081145E+02  0.00000000000E+00 0. -1.
         -2    1    6    6    0  503 -0.94192796760E+02 -0.76607480687E+02  0.76589513186E+02  0.14355118456E+03  0.00000000000E+00 0.  1.
<mgrwt>
<rscale>  0 0.22427230E+04</rscale>
<asrwt>0</asrwt>
<pdfrwt beam="1">  1        2 0.49436681E+00 0.22427230E+04</pdfrwt>
<pdfrwt beam="2">  1       -1 0.60202604E-01 0.22427230E+04</pdfrwt>
<totfact> 0.36914397E+00</totfact>
</mgrwt>
</event>
<event>
12    7  0.1661464E-007  0.2019185E+04  0.7818608E-02  0.8597703E-01
         -1   -1    0    0    0  501 -0.00000000000E+00  0.00000000000E+00  0.69261571051E+03  0.69261571051E+03  0.00000000000E+00 0.  1.
          2   -1    0    0  501    0  0.00000000000E+00 -0.00000000000E+00 -0.14716342815E+04  0.14716342815E+04  0.00000000000E+00 0. -1.
         24    2    1    2    0    0 -0.43293124202E+03  0.67616272579E+03 -0.29335703881E+03  0.85846615198E+03  0.79248279587E+02 0.  0.
        254    2    1    2    0    0  0.43293124202E+03 -0.67616272579E+03 -0.48566153223E+03  0.13057838401E+04  0.90806322525E+03 0.  0.
         23    2    4    4    0    0 -0.25744288375E+03 -0.16467816549E+03 -0.96265452517E+01  0.31929106355E+03  0.91969431373E+02 0.  0.
         23    2    4    4    0    0  0.69037412577E+03 -0.51148456030E+03 -0.47603498698E+03  0.98649277653E+03  0.91245823807E+02 0.  0.
          2    1    3    3  502    0 -0.27759762661E+03  0.41446765955E+03 -0.22130859466E+03  0.54573013219E+03  0.00000000000E+00 0. -1.
         -1    1    3    3    0  502 -0.15533361541E+03  0.26169506624E+03 -0.72048444151E+02  0.31273601979E+03  0.00000000000E+00 0.  1.
         13    1    5    5    0    0 -0.20882933689E+03 -0.10188888835E+03 -0.37019498632E+02  0.23529020548E+03  0.00000000000E+00 0. -1.
        -13    1    5    5    0    0 -0.48613546858E+02 -0.62789277136E+02  0.27392953380E+02  0.84000858069E+02  0.00000000000E+00 0.  1.
          1    1    6    6  503    0  0.67167583052E+03 -0.48815937127E+03 -0.47496907186E+03  0.95657911972E+03  0.00000000000E+00 0. -1.
         -1    1    6    6    0  503  0.18698295245E+02 -0.23325189038E+02 -0.10659151186E+01  0.29913656810E+02  0.00000000000E+00 0.  1.
<mgrwt>
<rscale>  0 0.20191850E+04</rscale>
<asrwt>0</asrwt>
<pdfrwt beam="1">  1        2 0.22640527E+00 0.20191850E+04</pdfrwt>
<pdfrwt beam="2">  1       -1 0.10655626E+00 0.20191850E+04</pdfrwt>
<totfact> 0.11452347E+01</totfact>
</mgrwt>
</event>
<event>
12    7  0.1661464E-007  0.1941462E+04  0.7818608E-02  0.8634489E-01
          2   -1    0    0  501    0  0.00000000000E+00  0.00000000000E+00  0.11744915094E+04  0.11744915094E+04  0.00000000000E+00 0. -1.
         -1   -1    0    0    0  501 -0.00000000000E+00 -0.00000000000E+00 -0.80232089034E+03  0.80232089034E+03  0.00000000000E+00 0.  1.
         24    2    1    2    0    0 -0.45511599327E+03 -0.27253870533E+03 -0.40578716429E+03  0.67249559274E+03  0.78607800676E+02 0.  0.
        254    2    1    2    0    0  0.45511599327E+03  0.27253870533E+03  0.77795778338E+03  0.13043168070E+04  0.90256086063E+03 0.  0.
         23    2    4    4    0    0  0.14096946155E+03  0.54945047530E+03  0.25648466987E+03  0.62913166147E+03  0.90851789670E+02 0.  0.
         23    2    4    4    0    0  0.31414653172E+03 -0.27691176998E+03  0.52147311351E+03  0.67518514556E+03  0.92588341202E+02 0.  0.
          4    1    3    3  502    0 -0.37693311467E+02 -0.60961394724E+01 -0.49109749920E+02  0.62207042873E+02  0.00000000000E+00 0. -1.
         -3    1    3    3    0  502 -0.41742268180E+03 -0.26644256585E+03 -0.35667741437E+03  0.61028854987E+03  0.00000000000E+00 0.  1.
         13    1    5    5    0    0  0.10302377270E+03  0.22762615904E+03  0.12554938342E+03  0.27962513066E+03  0.00000000000E+00 0. -1.
        -13    1    5    5    0    0  0.37945688852E+02  0.32182431627E+03  0.13093528645E+03  0.34950653081E+03  0.00000000000E+00 0.  1.
          4    1    6    6  503    0  0.42085140545E+02 -0.75760014272E+02  0.14574945133E+03  0.16956898708E+03  0.00000000000E+00 0. -1.
         -4    1    6    6    0  503  0.27206139117E+03 -0.20115175571E+03  0.37572366218E+03  0.50561615848E+03  0.00000000000E+00 0.  1.
<mgrwt>
<rscale>  0 0.19414624E+04</rscale>
<asrwt>0</asrwt>
<pdfrwt beam="1">  1        2 0.18069100E+00 0.19414624E+04</pdfrwt>
<pdfrwt beam="2">  1       -1 0.12343398E+00 0.19414624E+04</pdfrwt>
<totfact> 0.12060880E+01</totfact>
</mgrwt>
</event>
<event>
12    7  0.1661464E-007  0.1878934E+04  0.7818608E-02  0.8665414E-01
          2   -1    0    0  501    0  0.00000000000E+00  0.00000000000E+00  0.91038558448E+03  0.91038558448E+03  0.00000000000E+00 0. -1.
         -1   -1    0    0    0  501 -0.00000000000E+00 -0.00000000000E+00 -0.96947754897E+03  0.96947754897E+03  0.00000000000E+00 0.  1.
         24    2    1    2    0    0 -0.35064086226E+03 -0.60899010177E+03  0.13828092397E+03  0.72091408418E+03  0.82325843411E+02 0.  0.
        254    2    1    2    0    0  0.35064086226E+03  0.60899010177E+03 -0.19737288847E+03  0.11589490493E+04  0.90021602038E+03 0.  0.
         23    2    4    4    0    0 -0.27689952018E+01  0.48020747617E+03  0.26400861473E+03  0.55558100129E+03  0.91448416247E+02 0.  0.
         23    2    4    4    0    0  0.35340985746E+03  0.12878262560E+03 -0.46138150319E+03  0.60336804798E+03  0.98471406157E+02 0.  0.
          4    1    3    3  502    0 -0.13166617890E+03 -0.20019142111E+03  0.10318609478E+02  0.23983131875E+03  0.00000000000E+00 0. -1.
         -3    1    3    3    0  502 -0.21897468336E+03 -0.40879868066E+03  0.12796231449E+03  0.48108276543E+03  0.00000000000E+00 0.  1.
         13    1    5    5    0    0 -0.16270032014E+02  0.55291563489E+02  0.62802578052E+02  0.85241039088E+02  0.00000000000E+00 0. -1.
        -13    1    5    5    0    0  0.13501036812E+02  0.42491591268E+03  0.20120603667E+03  0.47033996220E+03  0.00000000000E+00 0.  1.
          3    1    6    6  503    0  0.26861153413E+03  0.12141553287E+03 -0.29811059687E+03  0.41924195384E+03  0.00000000000E+00 0. -1.
         -3    1    6    6    0  503  0.84798323329E+02  0.73670927372E+01 -0.16327090632E+03  0.18412609414E+03  0.00000000000E+00 0.  1.
<mgrwt>
<rscale>  0 0.18789342E+04</rscale>
<asrwt>0</asrwt>
<pdfrwt beam="1">  1        2 0.14005932E+00 0.18789342E+04</pdfrwt>
<pdfrwt beam="2">  1       -1 0.14915039E+00 0.18789342E+04</pdfrwt>
<totfact> 0.10942846E+01</totfact>
</mgrwt>
</event>
<event>
12    7  0.1661464E-007  0.1570024E+04  0.7818608E-02  0.8839178E-01
          2   -1    0    0  501    0  0.00000000000E+00  0.00000000000E+00  0.81445864647E+03  0.81445864647E+03  0.00000000000E+00 0. -1.
         -1   -1    0    0    0  501 -0.00000000000E+00 -0.00000000000E+00 -0.75663042020E+03  0.75663042020E+03  0.00000000000E+00 0.  1.
         24    2    1    2    0    0 -0.39032609421E+03 -0.20737768021E+03  0.30532072984E+03  0.54307798687E+03  0.79705643987E+02 0.  0.
        254    2    1    2    0    0  0.39032609421E+03  0.20737768021E+03 -0.24749250357E+03  0.10280110798E+04  0.89453578956E+03 0.  0.
         23    2    4    4    0    0  0.32571714165E+03  0.15814298587E+03  0.29240073935E+03  0.47458157059E+03  0.92890335493E+02 0.  0.
         23    2    4    4    0    0  0.64608952560E+02  0.49234694338E+02 -0.53989324292E+03  0.55342950921E+03  0.90560123906E+02 0.  0.
          2    1    3    3  502    0 -0.27573174741E+03 -0.18028811466E+03  0.24648493651E+03  0.41144455853E+03  0.00000000000E+00 0. -1.
         -1    1    3    3    0  502 -0.11459434680E+03 -0.27089565548E+02  0.58835793330E+02  0.13163342834E+03  0.00000000000E+00 0.  1.
         13    1    5    5    0    0  0.25972227550E+02 -0.18856857839E+01 -0.39631535388E+00  0.26043607289E+02  0.00000000000E+00 0. -1.
        -13    1    5    5    0    0  0.29974491410E+03  0.16002867165E+03  0.29279705470E+03  0.44853796330E+03  0.00000000000E+00 0.  1.
          3    1    6    6  503    0 -0.15194588372E+02  0.23249110982E+02 -0.58298404381E+02  0.64576316329E+02  0.00000000000E+00 0. -1.
         -3    1    6    6    0  503  0.79803540932E+02  0.25985583357E+02 -0.48159483853E+03  0.48885319288E+03  0.00000000000E+00 0.  1.
<mgrwt>
<rscale>  0 0.15700244E+04</rscale>
<asrwt>0</asrwt>
<pdfrwt beam="1">  1        2 0.12530133E+00 0.15700244E+04</pdfrwt>
<pdfrwt beam="2">  1       -1 0.11640468E+00 0.15700244E+04</pdfrwt>
<totfact> 0.24605618E+01</totfact>
</mgrwt>
</event>
<event>
12    7  0.1661464E-007  0.1318339E+04  0.7818608E-02  0.9015147E-01
         -1   -1    0    0    0  501 -0.00000000000E+00  0.00000000000E+00  0.30545293543E+03  0.30545293543E+03  0.00000000000E+00 0.  1.
          2   -1    0    0  501    0  0.00000000000E+00 -0.00000000000E+00 -0.14224924388E+04  0.14224924388E+04  0.00000000000E+00 0. -1.
         24    2    1    2    0    0 -0.84978803570E+02 -0.27520831625E+03 -0.56961631279E+03  0.64338355831E+03  0.80738125534E+02 0.  0.
        254    2    1    2    0    0  0.84978803570E+02  0.27520831625E+03 -0.54742319057E+03  0.10845618159E+04  0.89086540430E+03 0.  0.
         23    2    4    4    0    0  0.45305849065E+03  0.26897222465E+03 -0.43565374406E+03  0.68904540413E+03  0.85914670709E+02 0.  0.
         23    2    4    4    0    0 -0.36807968708E+03  0.62360915917E+01 -0.11176944651E+03  0.39551641179E+03  0.91756623409E+02 0.  0.
          2    1    3    3  502    0 -0.55943329996E+02 -0.24714172853E+03 -0.52653005282E+03  0.58433088800E+03  0.00000000000E+00 0. -1.
         -1    1    3    3    0  502 -0.29035473574E+02 -0.28066587717E+02 -0.43086259971E+02  0.59052670304E+02  0.00000000000E+00 0.  1.
         13    1    5    5    0    0  0.42694895994E+03  0.23129679521E+03 -0.37782029270E+03  0.61524937663E+03  0.00000000000E+00 0. -1.
        -13    1    5    5    0    0  0.26109530716E+02  0.37675429443E+02 -0.57833451359E+02  0.73796027495E+02  0.00000000000E+00 0.  1.
          1    1    6    6  503    0 -0.32224365063E+03  0.33591716277E+02 -0.81224014578E+02  0.33401603901E+03  0.00000000000E+00 0. -1.
         -1    1    6    6    0  503 -0.45836036456E+02 -0.27355624685E+02 -0.30545431934E+02  0.61500372779E+02  0.00000000000E+00 0.  1.
<mgrwt>
<rscale>  0 0.13183391E+04</rscale>
<asrwt>0</asrwt>
<pdfrwt beam="1">  1        2 0.21884499E+00 0.13183391E+04</pdfrwt>
<pdfrwt beam="2">  1       -1 0.46992760E-01 0.13183391E+04</pdfrwt>
<totfact> 0.70737909E+01</totfact>
</mgrwt>
</event>
<event>
12    7  0.1661464E-007  0.1144645E+04  0.7818608E-02  0.9162738E-01
          2   -1    0    0  501    0  0.00000000000E+00  0.00000000000E+00  0.15481932114E+04  0.15481932114E+04  0.00000000000E+00 0. -1.
         -1   -1    0    0    0  501 -0.00000000000E+00 -0.00000000000E+00 -0.21157124502E+03  0.21157124502E+03  0.00000000000E+00 0.  1.
         24    2    1    2    0    0  0.14927130978E+03 -0.14794193131E+03  0.26588032876E+03  0.34833844756E+03  0.80489663062E+02 0.  0.
        254    2    1    2    0    0 -0.14927130978E+03  0.14794193131E+03  0.10707416376E+04  0.14114260089E+04  0.89524688494E+03 0.  0.
         23    2    4    4    0    0  0.66183452893E+02 -0.35071876663E+03  0.44299535013E+03  0.57629413167E+03  0.92120265173E+02 0.  0.
         23    2    4    4    0    0 -0.21545476267E+03  0.49866069794E+03  0.62774628750E+03  0.83513187720E+03  0.91085698188E+02 0.  0.
          4    1    3    3  502    0  0.34923518605E+02 -0.35132693584E+02  0.12582814005E+03  0.13522824831E+03  0.00000000000E+00 0. -1.
         -3    1    3    3    0  502  0.11434779118E+03 -0.11280923772E+03  0.14005218871E+03  0.21311019925E+03  0.00000000000E+00 0.  1.
         13    1    5    5    0    0  0.46222906091E+02 -0.31670490278E+03  0.34468503383E+03  0.47036828660E+03  0.00000000000E+00 0. -1.
        -13    1    5    5    0    0  0.19960546802E+02 -0.34013863854E+02  0.98310316304E+02  0.10592584507E+03  0.00000000000E+00 0.  1.
          2    1    6    6  503    0 -0.98843106683E+02  0.21325875530E+03  0.20489251282E+03  0.31181757208E+03  0.00000000000E+00 0.  1.
         -2    1    6    6    0  503 -0.11661165599E+03  0.28540194264E+03  0.42285377468E+03  0.52331430511E+03  0.00000000000E+00 0. -1.
<mgrwt>
<rscale>  0 0.11446452E+04</rscale>
<asrwt>0</asrwt>
<pdfrwt beam="1">  1        2 0.23818356E+00 0.11446452E+04</pdfrwt>
<pdfrwt beam="2">  1       -1 0.32549423E-01 0.11446452E+04</pdfrwt>
<totfact> 0.11877706E+02</totfact>
</mgrwt>
</event>
<event>
12    7  0.1661464E-007  0.1168477E+04  0.7818608E-02  0.9140905E-01
         -1   -1    0    0    0  501 -0.00000000000E+00  0.00000000000E+00  0.44061926213E+03  0.44061926213E+03  0.00000000000E+00 0.  1.
          2   -1    0    0  501    0  0.00000000000E+00 -0.00000000000E+00 -0.77466996197E+03  0.77466996197E+03  0.00000000000E+00 0. -1.
         24    2    1    2    0    0  0.19475643248E+02 -0.22169486088E+03 -0.86470028897E+02  0.25161682070E+03  0.79410619843E+02 0.  0.
        254    2    1    2    0    0 -0.19475643248E+02  0.22169486088E+03 -0.24758067094E+03  0.96367240340E+03  0.90434528828E+03 0.  0.
         23    2    4    4    0    0 -0.32078544205E+03  0.69343567630E+01  0.18948584964E+03  0.38349134922E+03  0.90605422474E+02 0.  0.
         23    2    4    4    0    0  0.30130979880E+03  0.21476050411E+03 -0.43706652059E+03  0.58018105418E+03  0.93130248770E+02 0.  0.
          4    1    3    3  502    0  0.10575561417E+02 -0.19613978977E+03 -0.10103425080E+03  0.22088589693E+03  0.00000000000E+00 0. -1.
         -3    1    3    3    0  502  0.89000818316E+01 -0.25555071108E+02  0.14564221904E+02  0.30730923768E+02  0.00000000000E+00 0.  1.
         13    1    5    5    0    0 -0.26374631582E+03 -0.22739794596E+02  0.12617386883E+03  0.29325596762E+03  0.00000000000E+00 0. -1.
        -13    1    5    5    0    0 -0.57039126228E+02  0.29674151359E+02  0.63311980811E+02  0.90235381608E+02  0.00000000000E+00 0.  1.
          1    1    6    6  503    0  0.24612265953E+03  0.19237620727E+03 -0.40815547145E+03  0.51398040579E+03  0.00000000000E+00 0. -1.
         -1    1    6    6    0  503  0.55187139269E+02  0.22384296843E+02 -0.28911049135E+02  0.66200648395E+02  0.00000000000E+00 0.  1.
<mgrwt>
<rscale>  0 0.11684768E+04</rscale>
<asrwt>0</asrwt>
<pdfrwt beam="1">  1        2 0.11917999E+00 0.11684768E+04</pdfrwt>
<pdfrwt beam="2">  1       -1 0.67787579E-01 0.11684768E+04</pdfrwt>
<totfact> 0.89442382E+01</totfact>
</mgrwt>
</event>
<event>
12    7  0.1661464E-007  0.1359603E+04  0.7818608E-02  0.8983590E-01
          2   -1    0    0  501    0  0.00000000000E+00  0.00000000000E+00  0.21517888324E+04  0.21517888324E+04  0.00000000000E+00 0. -1.
         -1   -1    0    0    0  501 -0.00000000000E+00 -0.00000000000E+00 -0.21476568308E+03  0.21476568308E+03  0.00000000000E+00 0.  1.
         24    2    1    2    0    0 -0.16862728747E+03  0.23726713168E+03  0.98683753950E+03  0.10322961573E+04  0.84001030517E+02 0.  0.
        254    2    1    2    0    0  0.16862728747E+03 -0.23726713168E+03  0.95018560979E+03  0.13342583582E+04  0.89031557293E+03 0.  0.
         23    2    4    4    0    0  0.36137955932E+03 -0.14060070279E+03  0.45989861179E+02  0.40028767510E+03  0.88042103487E+02 0.  0.
         23    2    4    4    0    0 -0.19275227185E+03 -0.96666428887E+02  0.90419574861E+03  0.93397068305E+03  0.90738350337E+02 0.  0.
          2    1    3    3  502    0 -0.11570130751E+03  0.96602884317E+02  0.55250382984E+03  0.57269485051E+03  0.00000000000E+00 0. -1.
         -1    1    3    3    0  502 -0.52925979968E+02  0.14066424736E+03  0.43433370966E+03  0.45960130677E+03  0.00000000000E+00 0.  1.
         13    1    5    5    0    0  0.14066239467E+02 -0.63247578572E+01  0.22372421918E+02  0.27173275790E+02  0.00000000000E+00 0.  1.
        -13    1    5    5    0    0  0.34731331986E+03 -0.13427594493E+03  0.23617439261E+02  0.37311439931E+03  0.00000000000E+00 0. -1.
          1    1    6    6  503    0 -0.16147342409E+03 -0.11442016354E+03  0.75623323851E+03  0.78169965558E+03  0.00000000000E+00 0. -1.
         -1    1    6    6    0  503 -0.31278847764E+02  0.17753734658E+02  0.14796251010E+03  0.15227102747E+03  0.00000000000E+00 0.  1.
<mgrwt>
<rscale>  0 0.13596035E+04</rscale>
<asrwt>0</asrwt>
<pdfrwt beam="1">  1        2 0.33104442E+00 0.13596035E+04</pdfrwt>
<pdfrwt beam="2">  1       -1 0.33040876E-01 0.13596035E+04</pdfrwt>
<totfact> 0.52641196E+01</totfact>
</mgrwt>
</event>
<event>
12    7  0.1661464E-007  0.1734054E+04  0.7818608E-02  0.8742177E-01
          2   -1    0    0  501    0  0.00000000000E+00  0.00000000000E+00  0.14413338693E+04  0.14413338693E+04  0.00000000000E+00 0. -1.
         -3   -1    0    0    0  501 -0.00000000000E+00 -0.00000000000E+00 -0.52155558093E+03  0.52155558093E+03  0.00000000000E+00 0.  1.
         24    2    1    2    0    0 -0.73638379353E+02  0.51709546211E+03  0.74971456933E+03  0.91726177822E+03  0.80541333918E+02 0.  0.
        254    2    1    2    0    0  0.73638379353E+02 -0.51709546211E+03  0.17006371903E+03  0.10456276720E+04  0.88972199707E+03 0.  0.
         23    2    4    4    0    0 -0.39245791530E+03 -0.15204495616E+03  0.10501559605E+03  0.44308726539E+03  0.90317027012E+02 0.  0.
         23    2    4    4    0    0  0.46609629465E+03 -0.36505050595E+03  0.65048122977E+02  0.60254040660E+03  0.91192409271E+02 0.  0.
          4    1    3    3  502    0 -0.86868531294E+02  0.43739325534E+03  0.66000664296E+03  0.79653485190E+03  0.00000000000E+00 0. -1.
         -3    1    3    3    0  502  0.13230151941E+02  0.79702206763E+02  0.89707926371E+02  0.12072692631E+03  0.00000000000E+00 0.  1.
         13    1    5    5    0    0 -0.39222450144E+03 -0.15294936076E+03  0.93135174893E+02  0.43117018368E+03  0.00000000000E+00 0.  1.
        -13    1    5    5    0    0 -0.23341385246E+00  0.90440460375E+00  0.11880421159E+02  0.11917081716E+02  0.00000000000E+00 0. -1.
          4    1    6    6  503    0  0.88165126782E+02 -0.39514309126E+02 -0.13620985932E+02  0.97570494843E+02  0.00000000000E+00 0. -1.
         -4    1    6    6    0  503  0.37793116787E+03 -0.32553619682E+03  0.78669108909E+02  0.50496991176E+03  0.00000000000E+00 0.  1.
<mgrwt>
<rscale>  0 0.17340539E+04</rscale>
<asrwt>0</asrwt>
<pdfrwt beam="1">  1        2 0.22174367E+00 0.17340539E+04</pdfrwt>
<pdfrwt beam="2">  1       -3 0.80239321E-01 0.17340539E+04</pdfrwt>
<totfact> 0.11973492E+01</totfact>
</mgrwt>
</event>
<event>
12    7  0.1661464E-007  0.1249192E+04  0.7818608E-02  0.9070856E-01
          2   -1    0    0  501    0  0.00000000000E+00  0.00000000000E+00  0.18984549600E+04  0.18984549600E+04  0.00000000000E+00 0. -1.
         -1   -1    0    0    0  501 -0.00000000000E+00 -0.00000000000E+00 -0.20549363012E+03  0.20549363012E+03  0.00000000000E+00 0.  1.
         24    2    1    2    0    0  0.27647207437E+03  0.10606731975E+03  0.38802710898E+03  0.49474130387E+03  0.80726923780E+02 0.  0.
        254    2    1    2    0    0 -0.27647207437E+03 -0.10606731975E+03  0.13049342209E+04  0.16092072862E+04  0.89387229794E+03 0.  0.
         23    2    4    4    0    0 -0.52054418550E+03  0.60700102602E+02  0.11428504911E+04  0.12606394907E+04  0.91945250545E+02 0.  0.
         23    2    4    4    0    0  0.24407211113E+03 -0.16676742235E+03  0.16208372981E+03  0.34856779552E+03  0.88576543261E+02 0.  0.
          2    1    3    3  502    0  0.23302296497E+03  0.58922253669E+02  0.27895756694E+03  0.36822392418E+03  0.00000000000E+00 0. -1.
         -1    1    3    3    0  502  0.43449109399E+02  0.47145066080E+02  0.10906954204E+03  0.12651737969E+03  0.00000000000E+00 0.  1.
         13    1    5    5    0    0 -0.16192231223E+03 -0.23515808562E+02  0.34163817976E+03  0.37879872534E+03  0.00000000000E+00 0. -1.
        -13    1    5    5    0    0 -0.35862187328E+03  0.84215911165E+02  0.80121231131E+03  0.88184076537E+03  0.00000000000E+00 0.  1.
          2    1    6    6  503    0  0.10654643894E+03 -0.27487839036E+02  0.81328406590E+02  0.13682848630E+03  0.00000000000E+00 0. -1.
         -2    1    6    6    0  503  0.13752567219E+03 -0.13927958332E+03  0.80755323224E+02  0.21173930922E+03  0.00000000000E+00 0.  1.
<mgrwt>
<rscale>  0 0.12491924E+04</rscale>
<asrwt>0</asrwt>
<pdfrwt beam="1">  1        2 0.29206998E+00 0.12491924E+04</pdfrwt>
<pdfrwt beam="2">  1       -1 0.31614406E-01 0.12491924E+04</pdfrwt>
<totfact> 0.79348742E+01</totfact>
</mgrwt>
</event>
<event>
12    7  0.1661464E-007  0.1356018E+04  0.7818608E-02  0.8986285E-01
         -1   -1    0    0    0  501 -0.00000000000E+00  0.00000000000E+00  0.24502524775E+03  0.24502524775E+03  0.00000000000E+00 0.  1.
          2   -1    0    0  501    0  0.00000000000E+00 -0.00000000000E+00 -0.18761185539E+04  0.18761185539E+04  0.00000000000E+00 0. -1.
         24    2    1    2    0    0 -0.27911478614E+03  0.26544921534E+03 -0.55061713090E+03  0.67640991345E+03  0.77348538494E+02 0.  0.
        254    2    1    2    0    0  0.27911478614E+03 -0.26544921534E+03 -0.10804761752E+04  0.14447338882E+04  0.87832732658E+03 0.  0.
         23    2    4    4    0    0  0.18128380383E+03 -0.11480712222E+03 -0.11921995200E+04  0.12147461763E+04  0.90686738247E+02 0.  0.
         23    2    4    4    0    0  0.97830982315E+02 -0.15064209312E+03  0.11172334477E+03  0.22998771188E+03  0.90267937428E+02 0.  0.
          4    1    3    3  502    0 -0.26885496758E+03  0.26448586876E+03 -0.54887673012E+03  0.66595903269E+03  0.00000000000E+00 0. -1.
         -3    1    3    3    0  502 -0.10259818568E+02  0.96334658110E+00 -0.17404007792E+01  0.10450880755E+02  0.00000000000E+00 0.  1.
         13    1    5    5    0    0  0.12643592548E+03 -0.10246723287E+03 -0.66791914848E+03  0.68746022864E+03  0.00000000000E+00 0. -1.
        -13    1    5    5    0    0  0.54847878349E+02 -0.12339889357E+02 -0.52428037150E+03  0.52728594763E+03  0.00000000000E+00 0.  1.
          2    1    6    6  503    0  0.38637972214E+02 -0.13286556466E+02  0.58245394498E+02  0.71147392501E+02  0.00000000000E+00 0. -1.
         -2    1    6    6    0  503  0.59193010101E+02 -0.13735553665E+03  0.53477950275E+02  0.15884031938E+03  0.00000000000E+00 0.  1.
<mgrwt>
<rscale>  0 0.13560183E+04</rscale>
<asrwt>0</asrwt>
<pdfrwt beam="1">  1        2 0.28863364E+00 0.13560183E+04</pdfrwt>
<pdfrwt beam="2">  1       -1 0.37696189E-01 0.13560183E+04</pdfrwt>
<totfact> 0.59115271E+01</totfact>
</mgrwt>
</event>
<event>
12    7  0.1661464E-007  0.2660610E+04  0.7818608E-02  0.8347900E-01
         -1   -1    0    0    0  501 -0.00000000000E+00  0.00000000000E+00  0.52811708591E+03  0.52811708591E+03  0.00000000000E+00 0.  1.
          2   -1    0    0  501    0  0.00000000000E+00 -0.00000000000E+00 -0.33509834550E+04  0.33509834550E+04  0.00000000000E+00 0. -1.
         24    2    1    2    0    0 -0.58170905070E+03 -0.52687766901E+03 -0.25348955347E+04  0.26547759199E+04  0.78449441013E+02 0.  0.
        254    2    1    2    0    0  0.58170905070E+03  0.52687766901E+03 -0.28797083435E+03  0.12243246211E+04  0.89445965731E+03 0.  0.
         23    2    4    4    0    0  0.79761528578E+03  0.46499992521E+03 -0.31783219482E+03  0.98083575729E+03  0.92770707450E+02 0.  0.
         23    2    4    4    0    0 -0.21590623508E+03  0.61877743796E+02  0.29861360463E+02  0.24348886378E+03  0.89167081453E+02 0.  0.
          4    1    3    3  502    0 -0.28260987938E+03 -0.20369630561E+03 -0.11060736524E+04  0.11596376388E+04  0.00000000000E+00 0. -1.
         -3    1    3    3    0  502 -0.29909917132E+03 -0.32318136339E+03 -0.14288218823E+04  0.14951382810E+04  0.00000000000E+00 0.  1.
         13    1    5    5    0    0  0.75708639231E+03  0.45841578628E+03 -0.31585391051E+03  0.93972790281E+03  0.00000000000E+00 0. -1.
        -13    1    5    5    0    0  0.40528893464E+02  0.65841389262E+01 -0.19782843105E+01  0.41107854476E+02  0.00000000000E+00 0.  1.
          1    1    6    6  503    0 -0.19265479681E+03  0.67504155949E+02  0.52254725807E+02  0.21072075876E+03  0.00000000000E+00 0. -1.
         -1    1    6    6    0  503 -0.23251438267E+02 -0.56264121527E+01 -0.22393365344E+02  0.32768105020E+02  0.00000000000E+00 0.  1.
<mgrwt>
<rscale>  0 0.26606102E+04</rscale>
<asrwt>0</asrwt>
<pdfrwt beam="1">  1        2 0.51553592E+00 0.26606102E+04</pdfrwt>
<pdfrwt beam="2">  1       -1 0.81248782E-01 0.26606102E+04</pdfrwt>
<totfact> 0.15545753E+00</totfact>
</mgrwt>
</event>
<event>
12    7  0.1661464E-007  0.1491713E+04  0.7818608E-02  0.8889982E-01
          2   -1    0    0  501    0  0.00000000000E+00  0.00000000000E+00  0.20937136510E+04  0.20937136510E+04  0.00000000000E+00 0. -1.
         -1   -1    0    0    0  501 -0.00000000000E+00 -0.00000000000E+00 -0.26570113923E+03  0.26570113923E+03  0.00000000000E+00 0.  1.
         24    2    1    2    0    0 -0.62667766170E+01  0.34505163253E+03  0.10490510588E+04  0.11071819218E+04  0.79017608174E+02 0.  0.
        254    2    1    2    0    0  0.62667766170E+01 -0.34505163253E+03  0.77896145293E+03  0.12522328684E+04  0.91771799041E+03 0.  0.
         23    2    4    4    0    0  0.43068626183E+02 -0.37439952839E+03 -0.71566355912E+02  0.39460605947E+03  0.92532618340E+02 0.  0.
         23    2    4    4    0    0 -0.36801849566E+02  0.29347895855E+02  0.85052780884E+03  0.85762680891E+03  0.99551567728E+02 0.  0.
          4    1    3    3  502    0  0.41402685778E+01  0.87448222239E+02  0.38526392181E+03  0.39508558927E+03  0.00000000000E+00 0. -1.
         -3    1    3    3    0  502 -0.10407045195E+02  0.25760341029E+03  0.66378713701E+03  0.71209633256E+03  0.00000000000E+00 0.  1.
         13    1    5    5    0    0  0.25498593808E+02 -0.29000752904E+03 -0.15021356008E+02  0.29151361258E+03  0.00000000000E+00 0.  1.
        -13    1    5    5    0    0  0.17570032376E+02 -0.84391999351E+02 -0.56544999904E+02  0.10309244689E+03  0.00000000000E+00 0. -1.
          3    1    6    6  503    0  0.25457296479E-01  0.19652077605E+02  0.27946705484E+02  0.34164647659E+02  0.00000000000E+00 0. -1.
         -3    1    6    6    0  503 -0.36827306863E+02  0.96958182505E+01  0.82258110335E+03  0.82346216125E+03  0.00000000000E+00 0.  1.
<mgrwt>
<rscale>  0 0.14917132E+04</rscale>
<asrwt>0</asrwt>
<pdfrwt beam="1">  1        2 0.32210978E+00 0.14917132E+04</pdfrwt>
<pdfrwt beam="2">  1       -1 0.40877100E-01 0.14917132E+04</pdfrwt>
<totfact> 0.38206600E+01</totfact>
</mgrwt>
</event>
<event>
12    7  0.1661464E-007  0.1362787E+04  0.7818608E-02  0.8981205E-01
          2   -1    0    0  501    0  0.00000000000E+00  0.00000000000E+00  0.67357246085E+03  0.67357246085E+03  0.00000000000E+00 0. -1.
         -1   -1    0    0    0  501 -0.00000000000E+00 -0.00000000000E+00 -0.68930486522E+03  0.68930486522E+03  0.00000000000E+00 0.  1.
         24    2    1    2    0    0 -0.10691115714E+03  0.34787409454E+03 -0.12264369839E+03  0.39246976109E+03  0.80899044770E+02 0.  0.
        254    2    1    2    0    0  0.10691115714E+03 -0.34787409454E+03  0.10691129402E+03  0.97040756497E+03  0.89320458809E+03 0.  0.
         23    2    4    4    0    0  0.36771458870E+02 -0.44940714553E+03 -0.29020155982E+03  0.54452026758E+03  0.94691360994E+02 0.  0.
         23    2    4    4    0    0  0.70139698273E+02  0.10153305099E+03  0.39711285385E+03  0.42588729739E+03  0.91939293374E+02 0.  0.
          4    1    3    3  502    0 -0.27766333949E+02  0.12092791103E+03 -0.32956728701E+01  0.12411845321E+03  0.00000000000E+00 0. -1.
         -3    1    3    3    0  502 -0.79144823195E+02  0.22694618351E+03 -0.11934802552E+03  0.26835130788E+03  0.00000000000E+00 0.  1.
         13    1    5    5    0    0 -0.26063882129E+02 -0.10844068493E+03 -0.47047456147E+02  0.12104615330E+03  0.00000000000E+00 0.  1.
        -13    1    5    5    0    0  0.62835340999E+02 -0.34096646060E+03 -0.24315410368E+03  0.42347411428E+03  0.00000000000E+00 0. -1.
          2    1    6    6  503    0  0.15690873969E+02  0.32566731176E+02  0.26351446369E+03  0.26598245822E+03  0.00000000000E+00 0. -1.
         -2    1    6    6    0  503  0.54448824304E+02  0.68966319814E+02  0.13359839016E+03  0.15990483917E+03  0.00000000000E+00 0.  1.
<mgrwt>
<rscale>  0 0.13627865E+04</rscale>
<asrwt>0</asrwt>
<pdfrwt beam="1">  1        2 0.10362653E+00 0.13627865E+04</pdfrwt>
<pdfrwt beam="2">  1       -1 0.10604690E+00 0.13627865E+04</pdfrwt>
<totfact> 0.39904608E+01</totfact>
</mgrwt>
</event>
<event>
12    7  0.1661464E-007  0.2314541E+04  0.7818608E-02  0.8472210E-01
          2   -1    0    0  501    0  0.00000000000E+00  0.00000000000E+00  0.21827387109E+04  0.21827387109E+04  0.00000000000E+00 0. -1.
         -1   -1    0    0    0  501 -0.00000000000E+00 -0.00000000000E+00 -0.61357524910E+03  0.61357524910E+03  0.00000000000E+00 0.  1.
         24    2    1    2    0    0  0.26826252214E+03  0.20442016086E+03  0.17768428635E+04  0.18103044365E+04  0.79241456643E+02 0.  0.
        254    2    1    2    0    0 -0.26826252214E+03 -0.20442016086E+03 -0.20767940168E+03  0.98600952348E+03  0.90295717703E+03 0.  0.
         23    2    4    4    0    0 -0.91482405543E+02 -0.55000920972E+03 -0.12446805370E+03  0.57857486611E+03  0.91528236129E+02 0.  0.
         23    2    4    4    0    0 -0.17678011660E+03  0.34558904885E+03 -0.83211347977E+02  0.40743465736E+03  0.91628987110E+02 0.  0.
          4    1    3    3  502    0  0.21835796716E+03  0.14284605336E+03  0.14917860577E+04  0.15144341645E+04  0.00000000000E+00 0. -1.
         -3    1    3    3    0  502  0.49904554982E+02  0.61574107503E+02  0.28505680582E+03  0.29587027202E+03  0.00000000000E+00 0.  1.
         13    1    5    5    0    0 -0.38960312071E+02 -0.12675110839E+03 -0.65873299149E+02  0.14806431352E+03  0.00000000000E+00 0. -1.
        -13    1    5    5    0    0 -0.52522093472E+02 -0.42325810132E+03 -0.58594754553E+02  0.43051055260E+03  0.00000000000E+00 0.  1.
          1    1    6    6  503    0 -0.41653633465E+02  0.17675600054E+03 -0.52362003187E+02  0.18899600071E+03  0.00000000000E+00 0. -1.
         -1    1    6    6    0  503 -0.13512648313E+03  0.16883304831E+03 -0.30849344790E+02  0.21843865665E+03  0.00000000000E+00 0.  1.
<mgrwt>
<rscale>  0 0.23145405E+04</rscale>
<asrwt>0</asrwt>
<pdfrwt beam="1">  1        2 0.33580595E+00 0.23145405E+04</pdfrwt>
<pdfrwt beam="2">  1       -1 0.94396194E-01 0.23145405E+04</pdfrwt>
<totfact> 0.59095878E+00</totfact>
</mgrwt>
</event>
<event>
12    7  0.1661464E-007  0.3182903E+04  0.7818608E-02  0.8193347E-01
         -1   -1    0    0    0  501 -0.00000000000E+00  0.00000000000E+00  0.19334239919E+04  0.19334239919E+04  0.00000000000E+00 0.  1.
          2   -1    0    0  501    0  0.00000000000E+00 -0.00000000000E+00 -0.13099650893E+04  0.13099650893E+04  0.00000000000E+00 0. -1.
         24    2    1    2    0    0  0.85226286558E+03  0.58091084365E+03  0.13424197535E+04  0.16947773054E+04  0.79811777722E+02 0.  0.
        254    2    1    2    0    0 -0.85226286558E+03 -0.58091084365E+03 -0.71896085086E+03  0.15486117758E+04  0.90414839866E+03 0.  0.
         23    2    4    4    0    0 -0.85216847529E+03 -0.10113357437E+03 -0.33043386149E+03  0.92434542287E+03  0.93855281261E+02 0.  0.
         23    2    4    4    0    0 -0.94390284914E-01 -0.47977726928E+03 -0.38852698937E+03  0.62426635294E+03  0.92569006268E+02 0.  0.
          4    1    3    3  502    0  0.84346341523E+01  0.20295782249E+01  0.29713860135E+01  0.91701349988E+01  0.00000000000E+00 0. -1.
         -3    1    3    3    0  502  0.84382823142E+03  0.57888126543E+03  0.13394483675E+04  0.16856071704E+04  0.00000000000E+00 0.  1.
         13    1    5    5    0    0 -0.49260188944E+03 -0.30082624254E+02 -0.22892230051E+03  0.54402849689E+03  0.00000000000E+00 0. -1.
        -13    1    5    5    0    0 -0.35956658585E+03 -0.71050950121E+02 -0.10151156098E+03  0.38031692598E+03  0.00000000000E+00 0.  1.
          2    1    6    6  503    0  0.10491162614E+02 -0.44798468554E+03 -0.38461011487E+03  0.59052966347E+03  0.00000000000E+00 0. -1.
         -2    1    6    6    0  503 -0.10585552899E+02 -0.31792583736E+02 -0.39168744952E+01  0.33736689473E+02  0.00000000000E+00 0.  1.
<mgrwt>
<rscale>  0 0.31829030E+04</rscale>
<asrwt>0</asrwt>
<pdfrwt beam="1">  1        2 0.20153309E+00 0.31829030E+04</pdfrwt>
<pdfrwt beam="2">  1       -1 0.29744985E+00 0.31829030E+04</pdfrwt>
<totfact> 0.53737722E-01</totfact>
</mgrwt>
</event>
<event>
12    7  0.2139258E-007  0.1382464E+04  0.7818608E-02  0.8966611E-01
          2   -1    0    0  501    0  0.00000000000E+00  0.00000000000E+00  0.11872708442E+04  0.11872708442E+04  0.00000000000E+00 0. -1.
         -1   -1    0    0    0  501 -0.00000000000E+00 -0.00000000000E+00 -0.40243675973E+03  0.40243675973E+03  0.00000000000E+00 0.  1.
         24    2    1    2    0    0 -0.33893175285E+03  0.24285364869E+02  0.88687225624E+01  0.35017755121E+03  0.84149575743E+02 0.  0.
        254    2    1    2    0    0  0.33893175285E+03 -0.24285364869E+02  0.77596536189E+03  0.12395300527E+04  0.90490220281E+03 0.  0.
         23    2    4    4    0    0  0.59614216576E+03 -0.17098970586E+03  0.36996194704E+03  0.72861606753E+03  0.96884313975E+02 0.  0.
         23    2    4    4    0    0 -0.25721041291E+03  0.14670434099E+03  0.40600341485E+03  0.51091398516E+03  0.92276579861E+02 0.  0.
          4    1    3    3  502    0  0.24865164760E+01  0.78604986000E+01 -0.14323077189E+00  0.82456483966E+01  0.00000000000E+00 0. -1.
         -3    1    3    3    0  502 -0.34141826933E+03  0.16424866268E+02  0.90119533343E+01  0.34193190282E+03  0.00000000000E+00 0.  1.
         13    1    5    5    0    0  0.58060664623E+03 -0.15608073515E+03  0.37197995313E+03  0.70698964566E+03  0.00000000000E+00 0. -1.
        -13    1    5    5    0    0  0.15535519531E+02 -0.14908970703E+02 -0.20180060867E+01  0.21626421874E+02  0.00000000000E+00 0.  1.
          3    1    6    6  503    0 -0.20636255845E+03  0.94264924514E+02  0.24384819863E+03  0.33306654816E+03  0.00000000000E+00 0. -1.
         -3    1    6    6    0  503 -0.50847854460E+02  0.52439416475E+02  0.16215521622E+03  0.17784743701E+03  0.00000000000E+00 0.  1.
<mgrwt>
<rscale>  0 0.13824636E+04</rscale>
<asrwt>0</asrwt>
<pdfrwt beam="1">  1        2 0.18265705E+00 0.13824636E+04</pdfrwt>
<pdfrwt beam="2">  1       -1 0.61913348E-01 0.13824636E+04</pdfrwt>
<totfact> 0.56677406E+01</totfact>
</mgrwt>
</event>
<event>
12    7  0.1661464E-007  0.1699762E+04  0.7818608E-02  0.8761500E-01
         -1   -1    0    0    0  501 -0.00000000000E+00  0.00000000000E+00  0.28445807921E+03  0.28445807921E+03  0.00000000000E+00 0.  1.
          2   -1    0    0  501    0  0.00000000000E+00 -0.00000000000E+00 -0.25392063015E+04  0.25392063015E+04  0.00000000000E+00 0. -1.
         24    2    1    2    0    0  0.52019138371E+01  0.28566101536E+03  0.74770265487E+02  0.30643059423E+03  0.81730293470E+02 0.  0.
        254    2    1    2    0    0 -0.52019138371E+01 -0.28566101536E+03 -0.23295184878E+04  0.25172337865E+04  0.91004410624E+03 0.  0.
         23    2    4    4    0    0 -0.19904386606E+03  0.14888454645E+03 -0.17104846977E+04  0.17309029457E+04  0.92097978007E+02 0.  0.
         23    2    4    4    0    0  0.19384195222E+03 -0.43454556181E+03 -0.61903379012E+03  0.78633084083E+03  0.93321006231E+02 0.  0.
          4    1    3    3  502    0  0.17665314900E+01  0.51322963914E+02 -0.17939205169E+02  0.54396528754E+02  0.00000000000E+00 0. -1.
         -3    1    3    3    0  502  0.34353823471E+01  0.23433805145E+03  0.92709470656E+02  0.25203406547E+03  0.00000000000E+00 0.  1.
         13    1    5    5    0    0 -0.83160477266E+02  0.93399283232E+01 -0.54625489915E+03  0.55262764506E+03  0.00000000000E+00 0. -1.
        -13    1    5    5    0    0 -0.11588338879E+03  0.13954461812E+03 -0.11642297985E+04  0.11782753006E+04  0.00000000000E+00 0.  1.
          3    1    6    6  503    0  0.40060274050E+02 -0.46180621248E+02 -0.42801068142E+02  0.74628458177E+02  0.00000000000E+00 0. -1.
         -3    1    6    6    0  503  0.15378167817E+03 -0.38836494056E+03 -0.57623272198E+03  0.71170238265E+03  0.00000000000E+00 0.  1.
<mgrwt>
<rscale>  0 0.16997620E+04</rscale>
<asrwt>0</asrwt>
<pdfrwt beam="1">  1        2 0.39064714E+00 0.16997620E+04</pdfrwt>
<pdfrwt beam="2">  1       -1 0.43762780E-01 0.16997620E+04</pdfrwt>
<totfact> 0.18497676E+01</totfact>
</mgrwt>
</event>
<event>
12    7  0.1661464E-007  0.1466367E+04  0.7818608E-02  0.8907132E-01
         -1   -1    0    0    0  501 -0.00000000000E+00  0.00000000000E+00  0.44309029060E+03  0.44309029060E+03  0.00000000000E+00 0.  1.
          2   -1    0    0  501    0  0.00000000000E+00 -0.00000000000E+00 -0.12132015402E+04  0.12132015402E+04  0.00000000000E+00 0. -1.
         24    2    1    2    0    0  0.21695058293E+03  0.39812555636E+02  0.20804318079E+03  0.31319590673E+03  0.78467291903E+02 0.  0.
        254    2    1    2    0    0 -0.21695058293E+03 -0.39812555636E+02 -0.97815443039E+03  0.13430959241E+04  0.89357035345E+03 0.  0.
         23    2    4    4    0    0  0.28204586772E+03  0.20164098874E+03 -0.40617468989E+03  0.54135930857E+03  0.88786611776E+02 0.  0.
         23    2    4    4    0    0 -0.49899645065E+03 -0.24145354437E+03 -0.57197974050E+03  0.80173661551E+03  0.91233246454E+02 0.  0.
          4    1    3    3  502    0  0.59228541543E+02 -0.21053953267E+02  0.38205933862E+02  0.73559380528E+02  0.00000000000E+00 0. -1.
         -3    1    3    3    0  502  0.15772204139E+03  0.60866508904E+02  0.16983724693E+03  0.23963652620E+03  0.00000000000E+00 0.  1.
         13    1    5    5    0    0  0.17547567317E+03  0.11520391628E+03 -0.30762270647E+03  0.37241829135E+03  0.00000000000E+00 0. -1.
        -13    1    5    5    0    0  0.10657019455E+03  0.86437072459E+02 -0.98551983423E+02  0.16894101721E+03  0.00000000000E+00 0.  1.
          4    1    6    6  503    0 -0.22153014111E+03 -0.66066946409E+02 -0.20047882790E+03  0.30599379938E+03  0.00000000000E+00 0. -1.
         -4    1    6    6    0  503 -0.27746630954E+03 -0.17538659796E+03 -0.37150091260E+03  0.49574281613E+03  0.00000000000E+00 0.  1.
<mgrwt>
<rscale>  0 0.14663667E+04</rscale>
<asrwt>0</asrwt>
<pdfrwt beam="1">  1        2 0.18664639E+00 0.14663667E+04</pdfrwt>
<pdfrwt beam="2">  1       -1 0.68167737E-01 0.14663667E+04</pdfrwt>
<totfact> 0.44754217E+01</totfact>
</mgrwt>
</event>
<event>
12    7  0.1661464E-007  0.1271133E+04  0.7818608E-02  0.9052776E-01
          2   -1    0    0  501    0  0.00000000000E+00  0.00000000000E+00  0.84996093173E+03  0.84996093173E+03  0.00000000000E+00 0. -1.
         -1   -1    0    0    0  501 -0.00000000000E+00 -0.00000000000E+00 -0.47525066311E+03  0.47525066311E+03  0.00000000000E+00 0.  1.
         24    2    1    2    0    0 -0.99922710531E+02 -0.27599402878E+03  0.18622653533E+03  0.35719590294E+03  0.82166529776E+02 0.  0.
        254    2    1    2    0    0  0.99922710531E+02  0.27599402878E+03  0.18848373329E+03  0.96801569190E+03  0.90297896435E+03 0.  0.
         23    2    4    4    0    0  0.44180971643E+03 -0.58127326636E+02  0.15293779384E+03  0.47968536068E+03  0.90185724094E+02 0.  0.
         23    2    4    4    0    0 -0.34188700590E+03  0.33412135541E+03  0.35545939447E+02  0.48833033122E+03  0.93162189950E+02 0.  0.
          4    1    3    3  502    0  0.21552288492E+01 -0.72198392223E+01  0.28063110050E+02  0.29056999767E+02  0.00000000000E+00 0. -1.
         -3    1    3    3    0  502 -0.10207793938E+03 -0.26877418955E+03  0.15816342528E+03  0.32813890317E+03  0.00000000000E+00 0.  1.
         13    1    5    5    0    0  0.33769761348E+03 -0.65273248145E+02  0.82264292704E+02  0.35364910424E+03  0.00000000000E+00 0.  1.
        -13    1    5    5    0    0  0.10411210295E+03  0.71459215086E+01  0.70673501135E+02  0.12603625644E+03  0.00000000000E+00 0. -1.
          1    1    6    6  503    0 -0.45847391940E+00 -0.54570432968E+01  0.76581381234E+00  0.55295561009E+01  0.00000000000E+00 0. -1.
         -1    1    6    6    0  503 -0.34142853198E+03  0.33957839871E+03  0.34780125635E+02  0.48280077512E+03  0.00000000000E+00 0.  1.
<mgrwt>
<rscale>  0 0.12711326E+04</rscale>
<asrwt>0</asrwt>
<pdfrwt beam="1">  1        2 0.13076322E+00 0.12711326E+04</pdfrwt>
<pdfrwt beam="2">  1       -1 0.73115487E-01 0.12711326E+04</pdfrwt>
<totfact> 0.67109199E+01</totfact>
</mgrwt>
</event>
<event>
12    7  0.1661464E-007  0.1892182E+04  0.7818608E-02  0.8658758E-01
         -1   -1    0    0    0  501 -0.00000000000E+00  0.00000000000E+00  0.23210786249E+03  0.23210786249E+03  0.00000000000E+00 0.  1.
          2   -1    0    0  501    0  0.00000000000E+00 -0.00000000000E+00 -0.38563444396E+04  0.38563444396E+04  0.00000000000E+00 0. -1.
         24    2    1    2    0    0  0.71225526094E+03  0.10533761667E+03 -0.16386665606E+04  0.17916631758E+04  0.80157772614E+02 0.  0.
        254    2    1    2    0    0 -0.71225526094E+03 -0.10533761667E+03 -0.19855700165E+04  0.22967891262E+04  0.90241256077E+03 0.  0.
         23    2    4    4    0    0 -0.14661677343E+03  0.34381397522E+03 -0.10013396674E+04  0.10727079402E+04  0.91195765526E+02 0.  0.
         23    2    4    4    0    0 -0.56563848751E+03 -0.44915159189E+03 -0.98423034903E+03  0.12240811860E+04  0.89338227555E+02 0.  0.
          4    1    3    3  502    0  0.57820807319E+03  0.11683794174E+03 -0.13390137788E+04  0.14631929403E+04  0.00000000000E+00 0. -1.
         -3    1    3    3    0  502  0.13404718775E+03 -0.11500325076E+02 -0.29965278178E+03  0.32847023556E+03  0.00000000000E+00 0.  1.
         13    1    5    5    0    0 -0.14637040934E+03  0.24848960042E+03 -0.78494933091E+03  0.83625165491E+03  0.00000000000E+00 0. -1.
        -13    1    5    5    0    0 -0.24636409951E+00  0.95324374805E+02 -0.21639033653E+03  0.23645628532E+03  0.00000000000E+00 0.  1.
          1    1    6    6  503    0 -0.52484870839E+03 -0.38618754310E+03 -0.86049132774E+03  0.10793758892E+04  0.00000000000E+00 0. -1.
         -1    1    6    6    0  503 -0.40789779121E+02 -0.62964048789E+02 -0.12373902129E+03  0.14470529676E+03  0.00000000000E+00 0.  1.
<mgrwt>
<rscale>  0 0.18921817E+04</rscale>
<asrwt>0</asrwt>
<pdfrwt beam="1">  1        2 0.59328379E+00 0.18921817E+04</pdfrwt>
<pdfrwt beam="2">  1       -1 0.35708900E-01 0.18921817E+04</pdfrwt>
<totfact> 0.35883294E+00</totfact>
</mgrwt>
</event>
<event>
12    7  0.1661464E-007  0.1563020E+04  0.7818608E-02  0.8843594E-01
         -1   -1    0    0    0  501 -0.00000000000E+00  0.00000000000E+00  0.30162036102E+03  0.30162036102E+03  0.00000000000E+00 0.  1.
          2   -1    0    0  501    0  0.00000000000E+00 -0.00000000000E+00 -0.20249228398E+04  0.20249228398E+04  0.00000000000E+00 0. -1.
         24    2    1    2    0    0  0.31925651400E+03 -0.22857370059E+03 -0.73801588581E+02  0.40753655583E+03  0.80428300545E+02 0.  0.
        254    2    1    2    0    0 -0.31925651400E+03  0.22857370059E+03 -0.16495008902E+04  0.19190066450E+04  0.89864490118E+03 0.  0.
         23    2    4    4    0    0 -0.47218562069E+03 -0.63994227668E+02 -0.41772770326E+03  0.64055667781E+03  0.93605031188E+02 0.  0.
         23    2    4    4    0    0  0.15292910668E+03  0.29256792826E+03 -0.12317731869E+04  0.12784499672E+04  0.90475577925E+02 0.  0.
          2    1    3    3  502    0  0.16112335323E+03 -0.76373338793E+02 -0.57940032327E+02  0.18748511723E+03  0.00000000000E+00 0. -1.
         -1    1    3    3    0  502  0.15813316077E+03 -0.15220036180E+03 -0.15861556255E+02  0.22005143861E+03  0.00000000000E+00 0.  1.
         13    1    5    5    0    0 -0.27441135054E+03 -0.24627173144E+02 -0.29884385329E+03  0.40646738567E+03  0.00000000000E+00 0.  1.
        -13    1    5    5    0    0 -0.19777427014E+03 -0.39367054524E+02 -0.11888384997E+03  0.23408929214E+03  0.00000000000E+00 0. -1.
          3    1    6    6  503    0  0.45875852943E+02  0.14623131728E+03 -0.70114688836E+03  0.71770129657E+03  0.00000000000E+00 0. -1.
         -3    1    6    6    0  503  0.10705325374E+03  0.14633661098E+03 -0.53062629856E+03  0.56074867060E+03  0.00000000000E+00 0.  1.
<mgrwt>
<rscale>  0 0.15630201E+04</rscale>
<asrwt>0</asrwt>
<pdfrwt beam="1">  1        2 0.31152660E+00 0.15630201E+04</pdfrwt>
<pdfrwt beam="2">  1       -1 0.46403132E-01 0.15630201E+04</pdfrwt>
<totfact> 0.32781355E+01</totfact>
</mgrwt>
</event>
<event>
12    7  0.1661464E-007  0.1478336E+04  0.7818608E-02  0.8898988E-01
          2   -1    0    0  501    0  0.00000000000E+00  0.00000000000E+00  0.40912113142E+04  0.40912113142E+04  0.00000000000E+00 0. -1.
         -1   -1    0    0    0  501 -0.00000000000E+00 -0.00000000000E+00 -0.13354716682E+03  0.13354716682E+03  0.00000000000E+00 0.  1.
         24    2    1    2    0    0 -0.31247108117E+02  0.38039195517E+03  0.51686605671E+03  0.64735971600E+03  0.79054791068E+02 0.  0.
        254    2    1    2    0    0  0.31247108117E+02 -0.38039195517E+03  0.34407980907E+04  0.35773987650E+04  0.90167399977E+03 0.  0.
         23    2    4    4    0    0  0.14328802596E+03 -0.16923293510E+02  0.70993778798E+02  0.18497410541E+03  0.91419072396E+02 0.  0.
         23    2    4    4    0    0 -0.11204091784E+03 -0.36346866166E+03  0.33698043119E+04  0.33924246596E+04  0.91111665051E+02 0.  0.
          4    1    3    3  502    0 -0.52101882219E+02  0.15927921540E+03  0.21518285244E+03  0.27274188269E+03  0.00000000000E+00 0. -1.
         -3    1    3    3    0  502  0.20854774102E+02  0.22111273977E+03  0.30168320427E+03  0.37461783331E+03  0.00000000000E+00 0.  1.
         13    1    5    5    0    0  0.46591841619E+02 -0.24013354159E+02 -0.15903911428E+02  0.54775681485E+02  0.00000000000E+00 0.  1.
        -13    1    5    5    0    0  0.96696184342E+02  0.70900606490E+01  0.86897690226E+02  0.13019842393E+03  0.00000000000E+00 0. -1.
          1    1    6    6  503    0 -0.58973003027E+02 -0.84181996249E+02  0.11264397883E+04  0.11311193661E+04  0.00000000000E+00 0. -1.
         -1    1    6    6    0  503 -0.53067914817E+02 -0.27928666541E+03  0.22433645235E+04  0.22613052935E+04  0.00000000000E+00 0.  1.
<mgrwt>
<rscale>  0 0.14783365E+04</rscale>
<asrwt>0</asrwt>
<pdfrwt beam="1">  1        2 0.62941703E+00 0.14783365E+04</pdfrwt>
<pdfrwt beam="2">  1       -1 0.20545721E-01 0.14783365E+04</pdfrwt>
<totfact> 0.63693974E+00</totfact>
</mgrwt>
</event>
<event>
12    7  0.1661464E-007  0.1213296E+04  0.7818608E-02  0.9101297E-01
         -1   -1    0    0    0  501 -0.00000000000E+00  0.00000000000E+00  0.52243900143E+03  0.52243900143E+03  0.00000000000E+00 0.  1.
          2   -1    0    0  501    0  0.00000000000E+00 -0.00000000000E+00 -0.70443068922E+03  0.70443068922E+03  0.00000000000E+00 0. -1.
         24    2    1    2    0    0 -0.86542703750E+02 -0.62565358917E+02 -0.28688167583E+03  0.31657045510E+03  0.80695064305E+02 0.  0.
        254    2    1    2    0    0  0.86542703750E+02  0.62565358917E+02  0.10488998804E+03  0.91029923555E+03  0.89790797131E+03 0.  0.
         23    2    4    4    0    0  0.14444923452E+03  0.40211673610E+03 -0.16200170363E+03  0.46602542187E+03  0.91496945514E+02 0.  0.
         23    2    4    4    0    0 -0.57906530767E+02 -0.33955137719E+03  0.26689169167E+03  0.44427381368E+03  0.86601053028E+02 0.  0.
          4    1    3    3  502    0 -0.53630315090E+02 -0.41728090682E+02 -0.75278062923E+02  0.10141119764E+03  0.00000000000E+00 0. -1.
         -3    1    3    3    0  502 -0.32912388659E+02 -0.20837268236E+02 -0.21160361291E+03  0.21515925746E+03  0.00000000000E+00 0.  1.
         13    1    5    5    0    0  0.13718789364E+02  0.55827098549E+02 -0.57736196112E+02  0.81475999261E+02  0.00000000000E+00 0. -1.
        -13    1    5    5    0    0  0.13073044515E+03  0.34628963756E+03 -0.10426550752E+03  0.38454942261E+03  0.00000000000E+00 0.  1.
          4    1    6    6  503    0  0.49875364453E+01 -0.14793780750E+03  0.15202381191E+03  0.21218319866E+03  0.00000000000E+00 0. -1.
         -4    1    6    6    0  503 -0.62894067212E+02 -0.19161356969E+03  0.11486787976E+03  0.23209061502E+03  0.00000000000E+00 0.  1.
<mgrwt>
<rscale>  0 0.12132964E+04</rscale>
<asrwt>0</asrwt>
<pdfrwt beam="1">  1        2 0.10837395E+00 0.12132964E+04</pdfrwt>
<pdfrwt beam="2">  1       -1 0.80375231E-01 0.12132964E+04</pdfrwt>
<totfact> 0.70720669E+01</totfact>
</mgrwt>
</event>
<event>
12    7  0.1661464E-007  0.1667157E+04  0.7818608E-02  0.8780321E-01
         -1   -1    0    0    0  501 -0.00000000000E+00  0.00000000000E+00  0.51699237983E+03  0.51699237983E+03  0.00000000000E+00 0.  1.
          2   -1    0    0  501    0  0.00000000000E+00 -0.00000000000E+00 -0.13440298520E+04  0.13440298520E+04  0.00000000000E+00 0. -1.
         24    2    1    2    0    0  0.50889311360E+03  0.13379504833E+02  0.40858939300E+02  0.51598717274E+03  0.73634891817E+02 0.  0.
        254    2    1    2    0    0 -0.50889311360E+03 -0.13379504833E+02 -0.86789641150E+03  0.13450350591E+04  0.89259392612E+03 0.  0.
         23    2    4    4    0    0  0.16197053688E+03 -0.21913076747E+03 -0.10805440115E+03  0.30697236131E+03  0.91123701248E+02 0.  0.
         23    2    4    4    0    0 -0.67086365048E+03  0.20575126264E+03 -0.75984201035E+03  0.10380626978E+04  0.88445826790E+02 0.  0.
          2    1    3    3  502    0  0.94739653637E+02  0.12366131282E+02  0.35117311900E+02  0.10179267542E+03  0.00000000000E+00 0. -1.
         -1    1    3    3    0  502  0.41415345997E+03  0.10133735516E+01  0.57416274002E+01  0.41419449732E+03  0.00000000000E+00 0.  1.
         13    1    5    5    0    0  0.14455830773E+03 -0.20187135131E+03 -0.63764387557E+02  0.25634945667E+03  0.00000000000E+00 0.  1.
        -13    1    5    5    0    0  0.17412229148E+02 -0.17259416167E+02 -0.44290013595E+02  0.50622904644E+02  0.00000000000E+00 0. -1.
          4    1    6    6  503    0 -0.42629660168E+02 -0.85502625311E+01 -0.46906246607E+02  0.63957727337E+02  0.00000000000E+00 0. -1.
         -4    1    6    6    0  503 -0.62823399031E+03  0.21430152517E+03 -0.71293576374E+03  0.97410497047E+03  0.00000000000E+00 0.  1.
<mgrwt>
<rscale>  0 0.16671571E+04</rscale>
<asrwt>0</asrwt>
<pdfrwt beam="1">  1        2 0.20677382E+00 0.16671571E+04</pdfrwt>
<pdfrwt beam="2">  1       -1 0.79537289E-01 0.16671571E+04</pdfrwt>
<totfact> 0.26767120E+01</totfact>
</mgrwt>
</event>
<event>
12    7  0.1661464E-007  0.1257899E+04  0.7818608E-02  0.9063634E-01
         -1   -1    0    0    0  501 -0.00000000000E+00  0.00000000000E+00  0.18112843808E+03  0.18112843808E+03  0.00000000000E+00 0.  1.
          2   -1    0    0  501    0  0.00000000000E+00 -0.00000000000E+00 -0.21839616176E+04  0.21839616176E+04  0.00000000000E+00 0. -1.
         24    2    1    2    0    0 -0.89537374982E+02 -0.27467527176E+03 -0.62793337281E+03  0.69596310508E+03  0.81245778393E+02 0.  0.
        254    2    1    2    0    0  0.89537374982E+02  0.27467527176E+03 -0.13748998068E+04  0.16691269506E+04  0.90120577688E+03 0.  0.
         23    2    4    4    0    0  0.31034273411E+02  0.51435970665E+03 -0.12903379029E+04  0.13927028882E+04  0.95500770189E+02 0.  0.
         23    2    4    4    0    0  0.58503101570E+02 -0.23968443489E+03 -0.84561903822E+02  0.27642406243E+03  0.91587692920E+02 0.  0.
          4    1    3    3  502    0 -0.94524027907E+02 -0.16613505003E+03 -0.41536602276E+03  0.45723580302E+03  0.00000000000E+00 0. -1.
         -3    1    3    3    0  502  0.49866529256E+01 -0.10854022173E+03 -0.21256735005E+03  0.23872730206E+03  0.00000000000E+00 0.  1.
         13    1    5    5    0    0 -0.20285654028E+02  0.34718243555E+03 -0.90577521759E+03  0.97024527627E+03  0.00000000000E+00 0. -1.
        -13    1    5    5    0    0  0.51319927439E+02  0.16717727110E+03 -0.38456268534E+03  0.42245761193E+03  0.00000000000E+00 0.  1.
          4    1    6    6  503    0  0.74085619214E+02 -0.22894524921E+03 -0.89709104052E+02  0.25681185615E+03  0.00000000000E+00 0. -1.
         -4    1    6    6    0  503 -0.15582517644E+02 -0.10739185682E+02  0.51472002306E+01  0.19612206288E+02  0.00000000000E+00 0.  1.
<mgrwt>
<rscale>  0 0.12578991E+04</rscale>
<asrwt>0</asrwt>
<pdfrwt beam="1">  1        2 0.33599411E+00 0.12578991E+04</pdfrwt>
<pdfrwt beam="2">  1       -1 0.27865912E-01 0.12578991E+04</pdfrwt>
<totfact> 0.68694032E+01</totfact>
</mgrwt>
</event>
<event>
12    7  0.1661464E-007  0.2339604E+04  0.7818608E-02  0.8462468E-01
         -1   -1    0    0    0  501 -0.00000000000E+00  0.00000000000E+00  0.73995808070E+03  0.73995808070E+03  0.00000000000E+00 0.  1.
          2   -1    0    0  501    0  0.00000000000E+00 -0.00000000000E+00 -0.18493429096E+04  0.18493429096E+04  0.00000000000E+00 0. -1.
         24    2    1    2    0    0 -0.32161042411E+03  0.21974187435E+03 -0.14850670098E+04  0.15374218145E+04  0.80759246315E+02 0.  0.
        254    2    1    2    0    0  0.32161042411E+03 -0.21974187435E+03  0.37568218083E+03  0.10518791759E+04  0.90199387106E+03 0.  0.
         23    2    4    4    0    0  0.30218269568E+02 -0.41820068471E+03  0.50788700645E+03  0.66481226889E+03  0.90670750724E+02 0.  0.
         23    2    4    4    0    0  0.29139215454E+03  0.19845881035E+03 -0.13220482562E+03  0.38706690699E+03  0.89707231812E+02 0.  0.
          4    1    3    3  502    0 -0.22644698628E+03  0.17096394652E+03 -0.93691938754E+03  0.97894067612E+03  0.00000000000E+00 0. -1.
         -3    1    3    3    0  502 -0.95163437827E+02  0.48777927832E+02 -0.54814762221E+03  0.55848113834E+03  0.00000000000E+00 0.  1.
         13    1    5    5    0    0  0.46520416239E+01 -0.38034568782E+03  0.47497458819E+03  0.60851075846E+03  0.00000000000E+00 0.  1.
        -13    1    5    5    0    0  0.25566227945E+02 -0.37854996885E+02  0.32912418256E+02  0.56301510423E+02  0.00000000000E+00 0. -1.
          2    1    6    6  503    0  0.28215303470E+03  0.20686256923E+03 -0.12072762783E+03  0.37010487386E+03  0.00000000000E+00 0.  1.
         -2    1    6    6    0  503  0.92391198424E+01 -0.84037588772E+01 -0.11477197794E+02  0.16962033131E+02  0.00000000000E+00 0. -1.
<mgrwt>
<rscale>  0 0.23396036E+04</rscale>
<asrwt>0</asrwt>
<pdfrwt beam="1">  1        2 0.28451429E+00 0.23396036E+04</pdfrwt>
<pdfrwt beam="2">  1       -1 0.11383970E+00 0.23396036E+04</pdfrwt>
<totfact> 0.58610087E+00</totfact>
</mgrwt>
</event>
<event>
12    7  0.1661464E-007  0.1381453E+04  0.7818608E-02  0.8967354E-01
          2   -1    0    0  501    0  0.00000000000E+00  0.00000000000E+00  0.12871313576E+04  0.12871313576E+04  0.00000000000E+00 0. -1.
         -1   -1    0    0    0  501 -0.00000000000E+00 -0.00000000000E+00 -0.37067169377E+03  0.37067169377E+03  0.00000000000E+00 0.  1.
         24    2    1    2    0    0 -0.24850507420E+03 -0.70115751871E+02  0.58452893604E+03  0.64400732168E+03  0.80002267161E+02 0.  0.
        254    2    1    2    0    0  0.24850507420E+03  0.70115751871E+02  0.33193072778E+03  0.10137957297E+04  0.92246017959E+03 0.  0.
         23    2    4    4    0    0  0.11632666831E+03 -0.29979429063E+03 -0.16687415210E+03  0.37263267989E+03  0.87175805275E+02 0.  0.
         23    2    4    4    0    0  0.13217840588E+03  0.36991004250E+03  0.49880487989E+03  0.64116304980E+03  0.89326243091E+02 0.  0.
          4    1    3    3  502    0 -0.21975835410E+03 -0.60178850632E+02  0.56115248489E+03  0.60564621650E+03  0.00000000000E+00 0. -1.
         -3    1    3    3    0  502 -0.28746720098E+02 -0.99369012393E+01  0.23376451149E+02  0.38361105184E+02  0.00000000000E+00 0.  1.
         13    1    5    5    0    0  0.10377617062E+03 -0.29935611709E+03 -0.14735796271E+03  0.34942516738E+03  0.00000000000E+00 0. -1.
        -13    1    5    5    0    0  0.12550497698E+02 -0.43817354556E+00 -0.19516189390E+02  0.23207512508E+02  0.00000000000E+00 0.  1.
          3    1    6    6  503    0  0.51542020324E+02  0.14242765170E+03  0.12585325178E+03  0.19692957322E+03  0.00000000000E+00 0. -1.
         -3    1    6    6    0  503  0.80636385560E+02  0.22748239081E+03  0.37295162811E+03  0.44423347658E+03  0.00000000000E+00 0.  1.
<mgrwt>
<rscale>  0 0.13814531E+04</rscale>
<asrwt>0</asrwt>
<pdfrwt beam="1">  1        2 0.19802021E+00 0.13814531E+04</pdfrwt>
<pdfrwt beam="2">  1       -1 0.57026415E-01 0.13814531E+04</pdfrwt>
<totfact> 0.58175454E+01</totfact>
</mgrwt>
</event>
<event>
12    7  0.1661464E-007  0.3005895E+04  0.7818608E-02  0.8242050E-01
          2   -1    0    0  501    0  0.00000000000E+00  0.00000000000E+00  0.17346099712E+04  0.17346099712E+04  0.00000000000E+00 0. -1.
         -1   -1    0    0    0  501 -0.00000000000E+00 -0.00000000000E+00 -0.13022241108E+04  0.13022241108E+04  0.00000000000E+00 0.  1.
         24    2    1    2    0    0 -0.24394807416E+03  0.11484972314E+04 -0.50868202268E+03  0.12822083048E+04  0.82122976390E+02 0.  0.
        254    2    1    2    0    0  0.24394807416E+03 -0.11484972314E+04  0.94106788307E+03  0.17546257772E+04  0.90252219041E+03 0.  0.
         23    2    4    4    0    0  0.19926349221E+03 -0.12715894463E+04  0.70174801507E+03  0.14688884563E+04  0.92397840710E+02 0.  0.
         23    2    4    4    0    0  0.44684581954E+02  0.12309221496E+03  0.23931986800E+03  0.28573732095E+03  0.84990658993E+02 0.  0.
          2    1    3    3  502    0 -0.27574520189E+02  0.27353121294E+03 -0.13840455508E+03  0.30779132457E+03  0.00000000000E+00 0. -1.
         -1    1    3    3    0  502 -0.21637355398E+03  0.87496601845E+03 -0.37027746759E+03  0.97441698020E+03  0.00000000000E+00 0.  1.
         13    1    5    5    0    0  0.25627798299E+02 -0.44673325579E+03  0.23961861283E+03  0.50758690436E+03  0.00000000000E+00 0. -1.
        -13    1    5    5    0    0  0.17363569391E+03 -0.82485619055E+03  0.46212940224E+03  0.96130155191E+03  0.00000000000E+00 0.  1.
          4    1    6    6  503    0  0.58704832010E+02  0.77048819399E+02  0.10404608570E+03  0.14215613185E+03  0.00000000000E+00 0. -1.
         -4    1    6    6    0  503 -0.14020250057E+02  0.46043395557E+02  0.13527378230E+03  0.14358118910E+03  0.00000000000E+00 0.  1.
<mgrwt>
<rscale>  0 0.30058948E+04</rscale>
<asrwt>0</asrwt>
<pdfrwt beam="1">  1        2 0.26686307E+00 0.30058948E+04</pdfrwt>
<pdfrwt beam="2">  1       -1 0.20034217E+00 0.30058948E+04</pdfrwt>
<totfact> 0.13675446E+00</totfact>
</mgrwt>
</event>
<event>
12    7  0.1661464E-007  0.1898566E+04  0.7818608E-02  0.8655570E-01
          2   -1    0    0  501    0  0.00000000000E+00  0.00000000000E+00  0.42277661155E+03  0.42277661155E+03  0.00000000000E+00 0. -1.
         -1   -1    0    0    0  501 -0.00000000000E+00 -0.00000000000E+00 -0.21314764890E+04  0.21314764890E+04  0.00000000000E+00 0.  1.
         24    2    1    2    0    0  0.21886899010E+03  0.33547277109E+03 -0.14681826071E+04  0.15239310353E+04  0.79749719839E+02 0.  0.
        254    2    1    2    0    0 -0.21886899010E+03 -0.33547277109E+03 -0.24051727041E+03  0.10303220652E+04  0.91829700303E+03 0.  0.
         23    2    4    4    0    0  0.21957767976E+03 -0.43918979376E+03  0.23315419700E+02  0.49991113093E+03  0.90914782285E+02 0.  0.
         23    2    4    4    0    0 -0.43844666986E+03  0.10371702268E+03 -0.26383269011E+03  0.53041093430E+03  0.93463189270E+02 0.  0.
          2    1    3    3  502    0  0.17748253918E+02  0.46211058832E+02 -0.10703177913E+03  0.11792482444E+03  0.00000000000E+00 0. -1.
         -1    1    3    3    0  502  0.20112073619E+03  0.28926171225E+03 -0.13611508279E+04  0.14060062109E+04  0.00000000000E+00 0.  1.
         13    1    5    5    0    0  0.61582155148E+02 -0.50326818092E+02  0.74131105909E+01  0.79875557342E+02  0.00000000000E+00 0. -1.
        -13    1    5    5    0    0  0.15799552461E+03 -0.38886297567E+03  0.15902309109E+02  0.42003557359E+03  0.00000000000E+00 0.  1.
          3    1    6    6  503    0 -0.21049953714E+03  0.69684588657E+01 -0.14531615080E+03  0.25588160980E+03  0.00000000000E+00 0.  1.
         -3    1    6    6    0  503 -0.22794713273E+03  0.96748563812E+02 -0.11851653931E+03  0.27452932449E+03  0.00000000000E+00 0. -1.
<mgrwt>
<rscale>  0 0.18985662E+04</rscale>
<asrwt>0</asrwt>
<pdfrwt beam="1">  1        2 0.65042555E-01 0.18985662E+04</pdfrwt>
<pdfrwt beam="2">  1       -1 0.32791946E+00 0.18985662E+04</pdfrwt>
<totfact> 0.17395190E+00</totfact>
</mgrwt>
</event>
<event>
12    7  0.1661464E-007  0.1432448E+04  0.7818608E-02  0.8930660E-01
          2   -1    0    0  501    0  0.00000000000E+00  0.00000000000E+00  0.66932691713E+03  0.66932691713E+03  0.00000000000E+00 0. -1.
         -1   -1    0    0    0  501 -0.00000000000E+00 -0.00000000000E+00 -0.76640704916E+03  0.76640704916E+03  0.00000000000E+00 0.  1.
         24    2    1    2    0    0 -0.15919462715E+03 -0.16298592490E+03 -0.39512009522E+03  0.46278803323E+03  0.78393450099E+02 0.  0.
        254    2    1    2    0    0  0.15919462715E+03  0.16298592490E+03  0.29803996320E+03  0.97294593307E+03  0.89771299867E+03 0.  0.
         23    2    4    4    0    0  0.24970761913E+03 -0.21153835970E+03 -0.15355663239E+03  0.37266274827E+03  0.90529066713E+02 0.  0.
         23    2    4    4    0    0 -0.90512991989E+02  0.37452428460E+03  0.45159659560E+03  0.60028318479E+03  0.89103172301E+02 0.  0.
          4    1    3    3  502    0 -0.11715546570E+02 -0.41558291942E+02 -0.36836950898E+02  0.56756555674E+02  0.00000000000E+00 0. -1.
         -3    1    3    3    0  502 -0.14747908058E+03 -0.12142763296E+03 -0.35828314433E+03  0.40603147755E+03  0.00000000000E+00 0.  1.
         13    1    5    5    0    0  0.71558943500E+02 -0.13024336002E+02 -0.36467196521E+02  0.81364440300E+02  0.00000000000E+00 0.  1.
        -13    1    5    5    0    0  0.17814867563E+03 -0.19851402370E+03 -0.11708943587E+03  0.29129830798E+03  0.00000000000E+00 0. -1.
          2    1    6    6  503    0 -0.37837182459E+02  0.16386672390E+03  0.26561206881E+03  0.31437831776E+03  0.00000000000E+00 0.  1.
         -2    1    6    6    0  503 -0.52675809530E+02  0.21065756070E+03  0.18598452679E+03  0.28590486703E+03  0.00000000000E+00 0. -1.
<mgrwt>
<rscale>  0 0.14324481E+04</rscale>
<asrwt>0</asrwt>
<pdfrwt beam="1">  1        2 0.10297337E+00 0.14324481E+04</pdfrwt>
<pdfrwt beam="2">  1       -1 0.11790878E+00 0.14324481E+04</pdfrwt>
<totfact> 0.31087983E+01</totfact>
</mgrwt>
</event>
<event>
12    7  0.1661464E-007  0.1483903E+04  0.7818608E-02  0.8895228E-01
         -1   -1    0    0    0  501 -0.00000000000E+00  0.00000000000E+00  0.33502947120E+03  0.33502947120E+03  0.00000000000E+00 0.  1.
          2   -1    0    0  501    0  0.00000000000E+00 -0.00000000000E+00 -0.16431162811E+04  0.16431162811E+04  0.00000000000E+00 0. -1.
         24    2    1    2    0    0 -0.23943124958E+03  0.29348530840E+03 -0.80460102630E+03  0.89288817956E+03  0.80034618497E+02 0.  0.
        254    2    1    2    0    0  0.23943124958E+03 -0.29348530840E+03 -0.50348578358E+03  0.10852575727E+04  0.88364309275E+03 0.  0.
         23    2    4    4    0    0  0.36105730971E+03 -0.33606752012E+03  0.54898022791E+02  0.50473097869E+03  0.91846660087E+02 0.  0.
         23    2    4    4    0    0 -0.12162606013E+03  0.42582211722E+02 -0.55838380637E+03  0.58052659403E+03  0.92803598506E+02 0.  0.
          4    1    3    3  502    0 -0.22871353465E+03  0.28552052172E+03 -0.79828261177E+03  0.87811558323E+03  0.00000000000E+00 0. -1.
         -3    1    3    3    0  502 -0.10717714929E+02  0.79647866830E+01 -0.63184145242E+01  0.14772596329E+02  0.00000000000E+00 0.  1.
         13    1    5    5    0    0  0.28139927784E+03 -0.23854004024E+03  0.40338390343E+01  0.36892163968E+03  0.00000000000E+00 0. -1.
        -13    1    5    5    0    0  0.79658031868E+02 -0.97527479888E+02  0.50864183757E+02  0.13580933901E+03  0.00000000000E+00 0.  1.
          4    1    6    6  503    0 -0.97463040997E+02  0.15848066851E+02 -0.23172631143E+03  0.25188745303E+03  0.00000000000E+00 0. -1.
         -4    1    6    6    0  503 -0.24163019136E+02  0.26734144871E+02 -0.32665749494E+03  0.32863914100E+03  0.00000000000E+00 0.  1.
<mgrwt>
<rscale>  0 0.14839035E+04</rscale>
<asrwt>0</asrwt>
<pdfrwt beam="1">  1        2 0.25278712E+00 0.14839035E+04</pdfrwt>
<pdfrwt beam="2">  1       -1 0.51542996E-01 0.14839035E+04</pdfrwt>
<totfact> 0.44031098E+01</totfact>
</mgrwt>
</event>
<event>
12    7  0.1661464E-007  0.2953428E+04  0.7818608E-02  0.8257156E-01
         -1   -1    0    0    0  501 -0.00000000000E+00  0.00000000000E+00  0.88107264883E+03  0.88107264883E+03  0.00000000000E+00 0.  1.
          2   -1    0    0  501    0  0.00000000000E+00 -0.00000000000E+00 -0.24750328283E+04  0.24750328283E+04  0.00000000000E+00 0. -1.
         24    2    1    2    0    0 -0.47942718885E+03  0.94050215682E+03  0.20735196002E+03  0.10788436562E+04  0.80709743604E+02 0.  0.
        254    2    1    2    0    0  0.47942718885E+03 -0.94050215682E+03 -0.18013121395E+04  0.22772618210E+04  0.90928611614E+03 0.  0.
         23    2    4    4    0    0 -0.14533877777E+03 -0.14522394347E+03 -0.18160109411E+02  0.22533392286E+03  0.90731654540E+02 0.  0.
         23    2    4    4    0    0  0.62476596661E+03 -0.79527821335E+03 -0.17831520301E+04  0.20519278981E+04  0.89313980100E+02 0.  0.
          2    1    3    3  502    0 -0.53588224688E+01  0.50600784474E+01  0.88421363568E+01  0.11511070650E+02  0.00000000000E+00 0. -1.
         -1    1    3    3    0  502 -0.47406836638E+03  0.93544207838E+03  0.19850982366E+03  0.10673325855E+04  0.00000000000E+00 0.  1.
         13    1    5    5    0    0 -0.40677376376E+02 -0.28467214365E+02  0.33899030574E+02  0.60118013244E+02  0.00000000000E+00 0. -1.
        -13    1    5    5    0    0 -0.10466140139E+03 -0.11675672911E+03 -0.52059139985E+02  0.16521590961E+03  0.00000000000E+00 0.  1.
          2    1    6    6  503    0  0.57195391189E+03 -0.69787750331E+03 -0.15432430598E+04  0.17876698321E+04  0.00000000000E+00 0. -1.
         -2    1    6    6    0  503  0.52812054724E+02 -0.97400710036E+02 -0.23990897028E+03  0.26425806603E+03  0.00000000000E+00 0.  1.
<mgrwt>
<rscale>  0 0.29534277E+04</rscale>
<asrwt>0</asrwt>
<pdfrwt beam="1">  1        2 0.38077428E+00 0.29534277E+04</pdfrwt>
<pdfrwt beam="2">  1       -1 0.13554964E+00 0.29534277E+04</pdfrwt>
<totfact> 0.16021547E+00</totfact>
</mgrwt>
</event>
<event>
12    7  0.1661464E-007  0.2398785E+04  0.7818608E-02  0.8439958E-01
          2   -1    0    0  501    0  0.00000000000E+00  0.00000000000E+00  0.15573281934E+04  0.15573281934E+04  0.00000000000E+00 0. -1.
         -1   -1    0    0    0  501 -0.00000000000E+00 -0.00000000000E+00 -0.92372481704E+03  0.92372481704E+03  0.00000000000E+00 0.  1.
         24    2    1    2    0    0  0.13983733367E+03 -0.66526347536E+03  0.10775723394E+04  0.12766483047E+04  0.80862696691E+02 0.  0.
        254    2    1    2    0    0 -0.13983733367E+03  0.66526347536E+03 -0.44396896306E+03  0.12044047057E+04  0.88957983536E+03 0.  0.
         23    2    4    4    0    0  0.11415235466E+03  0.41428086856E+03  0.18375479558E+03  0.47640463316E+03  0.92391295413E+02 0.  0.
         23    2    4    4    0    0 -0.25398968832E+03  0.25098260680E+03 -0.62772375864E+03  0.72800007257E+03  0.91891010507E+02 0.  0.
          4    1    3    3  502    0  0.78479833706E+02 -0.32262197118E+03  0.45340749400E+03  0.56198076142E+03  0.00000000000E+00 0. -1.
         -3    1    3    3    0  502  0.61357499962E+02 -0.34264150418E+03  0.62416484541E+03  0.71466754329E+03  0.00000000000E+00 0.  1.
         13    1    5    5    0    0  0.16899571071E+01  0.15869315318E+03  0.47235422161E+02  0.16558248074E+03  0.00000000000E+00 0. -1.
        -13    1    5    5    0    0  0.11246239755E+03  0.25558771538E+03  0.13651937342E+03  0.31082215242E+03  0.00000000000E+00 0.  1.
          4    1    6    6  503    0 -0.21696491129E+03  0.19378035925E+03 -0.56450194955E+03  0.63504885749E+03  0.00000000000E+00 0. -1.
         -4    1    6    6    0  503 -0.37024777033E+02  0.57202247552E+02 -0.63221809090E+02  0.92951215076E+02  0.00000000000E+00 0.  1.
<mgrwt>
<rscale>  0 0.23987853E+04</rscale>
<asrwt>0</asrwt>
<pdfrwt beam="1">  1        2 0.23958895E+00 0.23987853E+04</pdfrwt>
<pdfrwt beam="2">  1       -1 0.14211151E+00 0.23987853E+04</pdfrwt>
<totfact> 0.48641695E+00</totfact>
</mgrwt>
</event>
<event>
12    7  0.1661464E-007  0.1859009E+04  0.7818608E-02  0.8675534E-01
          2   -1    0    0  501    0  0.00000000000E+00  0.00000000000E+00  0.45161578087E+03  0.45161578087E+03  0.00000000000E+00 0. -1.
         -1   -1    0    0    0  501 -0.00000000000E+00 -0.00000000000E+00 -0.19130827603E+04  0.19130827603E+04  0.00000000000E+00 0.  1.
         24    2    1    2    0    0  0.41200603383E+03  0.39208233742E+03 -0.10805321496E+04  0.12236882993E+04  0.79911177931E+02 0.  0.
        254    2    1    2    0    0 -0.41200603383E+03 -0.39208233742E+03 -0.38093482982E+03  0.11410102418E+04  0.91286115930E+03 0.  0.
         23    2    4    4    0    0 -0.60725485139E+03  0.55406664901E+01 -0.29070973729E+03  0.67980385501E+03  0.93978595450E+02 0.  0.
         23    2    4    4    0    0  0.19524881756E+03 -0.39762300391E+03 -0.90225092533E+02  0.46120638683E+03  0.91348836501E+02 0.  0.
          2    1    3    3  502    0  0.12136363313E+03  0.16690407004E+03 -0.36940624852E+03  0.42313954730E+03  0.00000000000E+00 0. -1.
         -1    1    3    3    0  502  0.29064240070E+03  0.22517826738E+03 -0.71112590108E+03  0.80054875203E+03  0.00000000000E+00 0.  1.
         13    1    5    5    0    0 -0.10410352680E+03  0.36650954212E+02 -0.54794766741E+02  0.12322054699E+03  0.00000000000E+00 0. -1.
        -13    1    5    5    0    0 -0.50315132459E+03 -0.31110287722E+02 -0.23591497055E+03  0.55658330802E+03  0.00000000000E+00 0.  1.
          1    1    6    6  503    0 -0.68316285645E+01 -0.67296918823E+00 -0.11786664549E+01  0.69651483103E+01  0.00000000000E+00 0. -1.
         -1    1    6    6    0  503  0.20208044612E+03 -0.39695003472E+03 -0.89046426078E+02  0.45424123852E+03  0.00000000000E+00 0.  1.
<mgrwt>
<rscale>  0 0.18590087E+04</rscale>
<asrwt>0</asrwt>
<pdfrwt beam="1">  1        2 0.69479352E-01 0.18590087E+04</pdfrwt>
<pdfrwt beam="2">  1       -1 0.29432042E+00 0.18590087E+04</pdfrwt>
<totfact> 0.26761181E+00</totfact>
</mgrwt>
</event>
<event>
12    7  0.1661464E-007  0.2369782E+04  0.7818608E-02  0.8450904E-01
          2   -1    0    0  501    0  0.00000000000E+00  0.00000000000E+00  0.12269933036E+04  0.12269933036E+04  0.00000000000E+00 0. -1.
         -1   -1    0    0    0  501 -0.00000000000E+00 -0.00000000000E+00 -0.11442332743E+04  0.11442332743E+04  0.00000000000E+00 0.  1.
         24    2    1    2    0    0  0.91948023839E+03 -0.25612826743E+03  0.38163605443E+03  0.10312196800E+04  0.81989951300E+02 0.  0.
        254    2    1    2    0    0 -0.91948023839E+03  0.25612826743E+03 -0.29887602516E+03  0.13400068979E+04  0.89176566988E+03 0.  0.
         23    2    4    4    0    0 -0.76355956895E+03 -0.49814950287E+02 -0.51229951337E+03  0.92532427491E+03  0.90936668857E+02 0.  0.
         23    2    4    4    0    0 -0.15592066944E+03  0.30594321772E+03  0.21342348821E+03  0.41468262304E+03  0.92193193369E+02 0.  0.
          4    1    3    3  502    0  0.58070398373E+03 -0.12961357816E+03  0.21039889744E+03  0.63109784694E+03  0.00000000000E+00 0. -1.
         -3    1    3    3    0  502  0.33877625466E+03 -0.12651468927E+03  0.17123715699E+03  0.40012183302E+03  0.00000000000E+00 0.  1.
         13    1    5    5    0    0 -0.33737561452E+03 -0.14973147662E+02 -0.28003714541E+03  0.43871095636E+03  0.00000000000E+00 0. -1.
        -13    1    5    5    0    0 -0.42618395442E+03 -0.34841802625E+02 -0.23226236796E+03  0.48661331855E+03  0.00000000000E+00 0.  1.
          2    1    6    6  503    0 -0.19484947004E+02  0.49974928662E+02 -0.15237283304E+01  0.53660771542E+02  0.00000000000E+00 0. -1.
         -2    1    6    6    0  503 -0.13643572244E+03  0.25596828906E+03  0.21494721654E+03  0.36102185150E+03  0.00000000000E+00 0.  1.
<mgrwt>
<rscale>  0 0.23697819E+04</rscale>
<asrwt>0</asrwt>
<pdfrwt beam="1">  1        2 0.18876820E+00 0.23697819E+04</pdfrwt>
<pdfrwt beam="2">  1       -1 0.17603589E+00 0.23697819E+04</pdfrwt>
<totfact> 0.41688133E+00</totfact>
</mgrwt>
</event>
<event>
12    7  0.1661464E-007  0.3660061E+04  0.7818608E-02  0.8076871E-01
         -1   -1    0    0    0  501 -0.00000000000E+00  0.00000000000E+00  0.15021012668E+04  0.15021012668E+04  0.00000000000E+00 0.  1.
          2   -1    0    0  501    0  0.00000000000E+00 -0.00000000000E+00 -0.22295517416E+04  0.22295517416E+04  0.00000000000E+00 0. -1.
         24    2    1    2    0    0  0.14594566446E+04 -0.90392918526E+03 -0.24497895035E+03  0.17360998842E+04  0.83225309255E+02 0.  0.
        254    2    1    2    0    0 -0.14594566446E+04  0.90392918526E+03 -0.48247152439E+03  0.19955531242E+04  0.89574093923E+03 0.  0.
         23    2    4    4    0    0 -0.98176713642E+02  0.18971700332E+03  0.20400264800E+03  0.30949597306E+03  0.92409244666E+02 0.  0.
         23    2    4    4    0    0 -0.13612799310E+04  0.71421218194E+03 -0.68647417239E+03  0.16860571512E+04  0.91432140159E+02 0.  0.
          4    1    3    3  502    0  0.34083156307E+03 -0.17088983968E+03 -0.49193643538E+02  0.38443400767E+03  0.00000000000E+00 0. -1.
         -3    1    3    3    0  502  0.11186250816E+04 -0.73303934558E+03 -0.19578530682E+03  0.13516658765E+04  0.00000000000E+00 0.  1.
         13    1    5    5    0    0  0.10415522353E+02 -0.35833636636E+01  0.88790109551E+01  0.14147806776E+02  0.00000000000E+00 0.  1.
        -13    1    5    5    0    0 -0.10859223600E+03  0.19330036698E+03  0.19512363705E+03  0.29534816629E+03  0.00000000000E+00 0. -1.
          3    1    6    6  503    0 -0.11393107197E+04  0.56221013158E+03 -0.58235115782E+03  0.13975843513E+04  0.00000000000E+00 0. -1.
         -3    1    6    6    0  503 -0.22196921131E+03  0.15200205037E+03 -0.10412301457E+03  0.28847279984E+03  0.00000000000E+00 0.  1.
<mgrwt>
<rscale>  0 0.36600615E+04</rscale>
<asrwt>0</asrwt>
<pdfrwt beam="1">  1        2 0.34300796E+00 0.36600615E+04</pdfrwt>
<pdfrwt beam="2">  1       -1 0.23109250E+00 0.36600615E+04</pdfrwt>
<totfact> 0.42542542E-01</totfact>
</mgrwt>
</event>
<event>
12    7  0.1661464E-007  0.2354405E+04  0.7818608E-02  0.8456774E-01
         -1   -1    0    0    0  501 -0.00000000000E+00  0.00000000000E+00  0.87516647634E+03  0.87516647634E+03  0.00000000000E+00 0.  1.
          2   -1    0    0  501    0  0.00000000000E+00 -0.00000000000E+00 -0.15834771117E+04  0.15834771117E+04  0.00000000000E+00 0. -1.
         24    2    1    2    0    0  0.14057715514E+03  0.76197727760E+03 -0.94447247089E+03  0.12244168969E+04  0.82445018199E+02 0.  0.
        254    2    1    2    0    0 -0.14057715514E+03 -0.76197727760E+03  0.23616183555E+03  0.12342266911E+04  0.93122059918E+03 0.  0.
         23    2    4    4    0    0 -0.15724418084E+03 -0.87964194719E+03  0.42481740615E+03  0.99343098700E+03  0.89104487472E+02 0.  0.
         23    2    4    4    0    0  0.16667025696E+02  0.11766466959E+03 -0.18865557060E+03  0.24079570411E+03  0.90933396415E+02 0.  0.
          2    1    3    3  502    0  0.70982848735E+02  0.50041168381E+03 -0.56172200132E+03  0.75563352551E+03  0.00000000000E+00 0. -1.
         -1    1    3    3    0  502  0.69594306410E+02  0.26156559380E+03 -0.38275046957E+03  0.46878337139E+03  0.00000000000E+00 0.  1.
         13    1    5    5    0    0 -0.31304259141E+02 -0.42771072607E+03  0.20035399114E+03  0.47334780405E+03  0.00000000000E+00 0. -1.
        -13    1    5    5    0    0 -0.12593992170E+03 -0.45193122113E+03  0.22446341501E+03  0.52008318295E+03  0.00000000000E+00 0.  1.
          4    1    6    6  503    0  0.28547919748E+02  0.10407943023E+03 -0.19397800768E+03  0.22197968146E+03  0.00000000000E+00 0. -1.
         -4    1    6    6    0  503 -0.11880894052E+02  0.13585239362E+02  0.53224370749E+01  0.18816022651E+02  0.00000000000E+00 0.  1.
<mgrwt>
<rscale>  0 0.23544053E+04</rscale>
<asrwt>0</asrwt>
<pdfrwt beam="1">  1        2 0.24361186E+00 0.23544053E+04</pdfrwt>
<pdfrwt beam="2">  1       -1 0.13464100E+00 0.23544053E+04</pdfrwt>
<totfact> 0.54316202E+00</totfact>
</mgrwt>
</event>
<event>
12    7  0.1661464E-007  0.2858697E+04  0.7818608E-02  0.8285274E-01
          2   -1    0    0  501    0  0.00000000000E+00  0.00000000000E+00  0.28153398357E+04  0.28153398357E+04  0.00000000000E+00 0. -1.
         -1   -1    0    0    0  501 -0.00000000000E+00 -0.00000000000E+00 -0.72568028256E+03  0.72568028256E+03  0.00000000000E+00 0.  1.
         24    2    1    2    0    0 -0.14946736898E+03 -0.77469082622E+03  0.21947805000E+04  0.23336620849E+04  0.80192970956E+02 0.  0.
        254    2    1    2    0    0  0.14946736898E+03  0.77469082622E+03 -0.10512094683E+03  0.12073580334E+04  0.90784174653E+03 0.  0.
         23    2    4    4    0    0  0.49502387955E+03  0.24301782794E+03 -0.97067599380E+01  0.55932779015E+03  0.92989513530E+02 0.  0.
         23    2    4    4    0    0 -0.34555651057E+03  0.53167299828E+03 -0.95414186893E+02  0.64803024325E+03  0.93562011593E+02 0.  0.
          2    1    3    3  502    0 -0.47304517433E+02 -0.36077141975E+03  0.11096410323E+04  0.11677743597E+04  0.00000000000E+00 0. -1.
         -1    1    3    3    0  502 -0.10216285155E+03 -0.41391940647E+03  0.10851394677E+04  0.11658877252E+04  0.00000000000E+00 0.  1.
         13    1    5    5    0    0  0.27698164639E+03  0.18013898231E+03 -0.28435966013E+02  0.33162854151E+03  0.00000000000E+00 0.  1.
        -13    1    5    5    0    0  0.21804223317E+03  0.62878845628E+02  0.18729206075E+02  0.22769924864E+03  0.00000000000E+00 0. -1.
          2    1    6    6  503    0 -0.44221819993E+02  0.12857859876E+03 -0.10027439458E+01  0.13597437596E+03  0.00000000000E+00 0. -1.
         -2    1    6    6    0  503 -0.30133469057E+03  0.40309439952E+03 -0.94411442947E+02  0.51205586729E+03  0.00000000000E+00 0.  1.
<mgrwt>
<rscale>  0 0.28586966E+04</rscale>
<asrwt>0</asrwt>
<pdfrwt beam="1">  1        2 0.43312920E+00 0.28586966E+04</pdfrwt>
<pdfrwt beam="2">  1       -1 0.11164312E+00 0.28586966E+04</pdfrwt>
<totfact> 0.16406456E+00</totfact>
</mgrwt>
</event>
<event>
12    7  0.1661464E-007  0.1535488E+04  0.7818608E-02  0.8861191E-01
          2   -1    0    0  501    0  0.00000000000E+00  0.00000000000E+00  0.33803989811E+04  0.33803989811E+04  0.00000000000E+00 0. -1.
         -1   -1    0    0    0  501 -0.00000000000E+00 -0.00000000000E+00 -0.17436713176E+03  0.17436713176E+03  0.00000000000E+00 0.  1.
         24    2    1    2    0    0  0.25964914967E+03  0.35815301827E+03  0.14726765851E+04  0.15395713505E+04  0.76238792142E+02 0.  0.
        254    2    1    2    0    0 -0.25964914967E+03 -0.35815301827E+03  0.17333552642E+04  0.20151947624E+04  0.92779210651E+03 0.  0.
         23    2    4    4    0    0  0.87278023411E+02 -0.36152218747E+03  0.18146639384E+03  0.42253504983E+03  0.85381911644E+02 0.  0.
         23    2    4    4    0    0 -0.34692717308E+03  0.33691691942E+01  0.15518888704E+04  0.15926597126E+04  0.88521631543E+02 0.  0.
          2    1    3    3  502    0  0.26112773165E+03  0.33059890533E+03  0.13796396466E+04  0.14425286420E+04  0.00000000000E+00 0. -1.
         -1    1    3    3    0  502 -0.14785819790E+01  0.27554112939E+02  0.93036938473E+02  0.97042708459E+02  0.00000000000E+00 0.  1.
         13    1    5    5    0    0  0.18279185481E+02 -0.47361014790E+02  0.60291680065E+02  0.78818024771E+02  0.00000000000E+00 0. -1.
        -13    1    5    5    0    0  0.68998837930E+02 -0.31416117268E+03  0.12117471378E+03  0.34371702506E+03  0.00000000000E+00 0.  1.
          3    1    6    6  503    0 -0.86434293493E+02  0.72254137730E+01  0.24097453651E+03  0.25610900208E+03  0.00000000000E+00 0. -1.
         -3    1    6    6    0  503 -0.26049287959E+03 -0.38562445789E+01  0.13109143339E+04  0.13365507105E+04  0.00000000000E+00 0.  1.
<mgrwt>
<rscale>  0 0.15354875E+04</rscale>
<asrwt>0</asrwt>
<pdfrwt beam="1">  1        2 0.52006133E+00 0.15354875E+04</pdfrwt>
<pdfrwt beam="2">  1       -1 0.26825715E-01 0.15354875E+04</pdfrwt>
<totfact> 0.13536370E+01</totfact>
</mgrwt>
</event>
<event>
12    7  0.1661464E-007  0.1840468E+04  0.7818608E-02  0.8685070E-01
         -1   -1    0    0    0  501 -0.00000000000E+00  0.00000000000E+00  0.37721566829E+03  0.37721566829E+03  0.00000000000E+00 0.  1.
          2   -1    0    0  501    0  0.00000000000E+00 -0.00000000000E+00 -0.22449517387E+04  0.22449517387E+04  0.00000000000E+00 0. -1.
         24    2    1    2    0    0 -0.56729068384E+03 -0.83302435401E+02 -0.14482380905E+03  0.59670585990E+03  0.79535726924E+02 0.  0.
        254    2    1    2    0    0  0.56729068384E+03  0.83302435401E+02 -0.17229122613E+04  0.20254615471E+04  0.89739055192E+03 0.  0.
         23    2    4    4    0    0 -0.82082940439E+02 -0.27665208533E+03 -0.65560174692E+03  0.72214731296E+03  0.91701175642E+02 0.  0.
         23    2    4    4    0    0  0.64937362428E+03  0.35995452073E+03 -0.10673105144E+04  0.13033142341E+04  0.90680194935E+02 0.  0.
          2    1    3    3  502    0 -0.91104608182E+02 -0.15002447391E+02 -0.54573743385E+02  0.10725398140E+03  0.00000000000E+00 0. -1.
         -1    1    3    3    0  502 -0.47618607566E+03 -0.68299988011E+02 -0.90250065660E+02  0.48945187850E+03  0.00000000000E+00 0.  1.
         13    1    5    5    0    0 -0.20793742666E+02 -0.11156210242E+03 -0.15976618100E+03  0.19596865826E+03  0.00000000000E+00 0. -1.
        -13    1    5    5    0    0 -0.61289197773E+02 -0.16508998291E+03 -0.49583556593E+03  0.52617865470E+03  0.00000000000E+00 0.  1.
          4    1    6    6  503    0  0.41573174177E+03  0.23222300907E+03 -0.75809771559E+03  0.89524999494E+03  0.00000000000E+00 0. -1.
         -4    1    6    6    0  503  0.23364188251E+03  0.12773151166E+03 -0.30921279882E+03  0.40806423917E+03  0.00000000000E+00 0.  1.
<mgrwt>
<rscale>  0 0.18404684E+04</rscale>
<asrwt>0</asrwt>
<pdfrwt beam="1">  1        2 0.34537718E+00 0.18404684E+04</pdfrwt>
<pdfrwt beam="2">  1       -1 0.58033181E-01 0.18404684E+04</pdfrwt>
<totfact> 0.15705280E+01</totfact>
</mgrwt>
</event>
<event>
12    7  0.1661464E-007  0.1874387E+04  0.7818608E-02  0.8667712E-01
         -1   -1    0    0    0  501 -0.00000000000E+00  0.00000000000E+00  0.63852197799E+03  0.63852197799E+03  0.00000000000E+00 0.  1.
          2   -1    0    0  501    0  0.00000000000E+00 -0.00000000000E+00 -0.13755701191E+04  0.13755701191E+04  0.00000000000E+00 0. -1.
         24    2    1    2    0    0 -0.60142396731E+03  0.19143356602E+03 -0.65728429654E+03  0.91505347369E+03  0.83322353408E+02 0.  0.
        254    2    1    2    0    0  0.60142396731E+03 -0.19143356602E+03 -0.79763844528E+02  0.10990386233E+04  0.89619530575E+03 0.  0.
         23    2    4    4    0    0  0.11319668345E+02 -0.19492827286E+03  0.31631971516E+03  0.38257232965E+03  0.90433725833E+02 0.  0.
         23    2    4    4    0    0  0.59010429897E+03  0.34947068337E+01 -0.39608355969E+03  0.71646629369E+03  0.90589552951E+02 0.  0.
          2    1    3    3  502    0 -0.52763751053E+03  0.14142126968E+03 -0.58396452875E+03  0.79963484721E+03  0.00000000000E+00 0. -1.
         -1    1    3    3    0  502 -0.73786456785E+02  0.50012296340E+02 -0.73319767797E+02  0.11541862649E+03  0.00000000000E+00 0.  1.
         13    1    5    5    0    0  0.41054434819E+02 -0.44304618330E+02  0.71547119539E+02  0.93634161170E+02  0.00000000000E+00 0.  1.
        -13    1    5    5    0    0 -0.29734766474E+02 -0.15062365453E+03  0.24477259562E+03  0.28893816849E+03  0.00000000000E+00 0. -1.
          4    1    6    6  503    0  0.57470572974E+03  0.11105003558E+02 -0.39804528396E+03  0.69917812107E+03  0.00000000000E+00 0. -1.
         -4    1    6    6    0  503  0.15398569225E+02 -0.76102967243E+01  0.19617242705E+01  0.17288172620E+02  0.00000000000E+00 0.  1.
<mgrwt>
<rscale>  0 0.18743871E+04</rscale>
<asrwt>0</asrwt>
<pdfrwt beam="1">  1        2 0.21162617E+00 0.18743871E+04</pdfrwt>
<pdfrwt beam="2">  1       -1 0.98234151E-01 0.18743871E+04</pdfrwt>
<totfact> 0.15869943E+01</totfact>
</mgrwt>
</event>
<event>
12    7  0.1661464E-007  0.2565549E+04  0.7818608E-02  0.8379998E-01
         -1   -1    0    0    0  501 -0.00000000000E+00  0.00000000000E+00  0.10511551422E+04  0.10511551422E+04  0.00000000000E+00 0.  1.
          2   -1    0    0  501    0  0.00000000000E+00 -0.00000000000E+00 -0.15654306523E+04  0.15654306523E+04  0.00000000000E+00 0. -1.
         24    2    1    2    0    0 -0.95552280735E+03  0.73318359985E+02  0.38013566552E+03  0.10350563037E+04  0.91864086562E+02 0.  0.
        254    2    1    2    0    0  0.95552280735E+03 -0.73318359985E+02 -0.89441117554E+03  0.15815294908E+04  0.88479645228E+03 0.  0.
         23    2    4    4    0    0  0.79121404834E+02  0.67990768267E+02 -0.63828328719E+03  0.65325087616E+03  0.91914151328E+02 0.  0.
         23    2    4    4    0    0  0.87640140252E+03 -0.14130912825E+03 -0.25612788835E+03  0.92827861462E+03  0.89732954379E+02 0.  0.
          4    1    3    3  502    0 -0.89624273896E+03  0.48894568120E+02  0.36644463343E+03  0.96949646482E+03  0.00000000000E+00 0. -1.
         -3    1    3    3    0  502 -0.59280068389E+02  0.24423791865E+02  0.13691032098E+02  0.65559838904E+02  0.00000000000E+00 0.  1.
         13    1    5    5    0    0  0.54269199005E+02  0.86633871013E+02 -0.39593782969E+03  0.40892216686E+03  0.00000000000E+00 0.  1.
        -13    1    5    5    0    0  0.24852205829E+02 -0.18643102747E+02 -0.24234545751E+03  0.24432870930E+03  0.00000000000E+00 0. -1.
          2    1    6    6  503    0  0.57187286284E+03 -0.73280660132E+02 -0.20598738502E+03  0.61224131614E+03  0.00000000000E+00 0. -1.
         -2    1    6    6    0  503  0.30452853968E+03 -0.68028468120E+02 -0.50140503322E+02  0.31603729848E+03  0.00000000000E+00 0.  1.
<mgrwt>
<rscale>  0 0.25655490E+04</rscale>
<asrwt>0</asrwt>
<pdfrwt beam="1">  1        2 0.24083548E+00 0.25655490E+04</pdfrwt>
<pdfrwt beam="2">  1       -1 0.16171618E+00 0.25655490E+04</pdfrwt>
<totfact> 0.33412967E+00</totfact>
</mgrwt>
</event>
<event>
12    7  0.1661464E-007  0.2149691E+04  0.7818608E-02  0.8539664E-01
          2   -1    0    0  501    0  0.00000000000E+00  0.00000000000E+00  0.10154985819E+04  0.10154985819E+04  0.00000000000E+00 0. -1.
         -1   -1    0    0    0  501 -0.00000000000E+00 -0.00000000000E+00 -0.11376609193E+04  0.11376609193E+04  0.00000000000E+00 0.  1.
         24    2    1    2    0    0 -0.83559008623E+03  0.15701786715E+02  0.22343647366E+03  0.86879272049E+03  0.80122375860E+02 0.  0.
        254    2    1    2    0    0  0.83559008623E+03 -0.15701786715E+02 -0.34559881098E+03  0.12843667807E+04  0.91197705617E+03 0.  0.
         23    2    4    4    0    0  0.11559423104E+03  0.23023728752E+03 -0.43350206521E+03  0.51300043116E+03  0.94202797273E+02 0.  0.
         23    2    4    4    0    0  0.71999585519E+03 -0.24593907423E+03  0.87903254230E+02  0.77136634957E+03  0.91646076974E+02 0.  0.
          2    1    3    3  502    0 -0.68344486036E+03  0.14093501899E+01  0.21190330858E+03  0.71554306342E+03  0.00000000000E+00 0. -1.
         -1    1    3    3    0  502 -0.15214522587E+03  0.14292436525E+02  0.11533165072E+02  0.15324965707E+03  0.00000000000E+00 0.  1.
         13    1    5    5    0    0  0.25493875584E+02  0.95715366213E+02 -0.24643882191E+03  0.26560019195E+03  0.00000000000E+00 0. -1.
        -13    1    5    5    0    0  0.90100355454E+02  0.13452192131E+03 -0.18706324330E+03  0.24740023921E+03  0.00000000000E+00 0.  1.
          2    1    6    6  503    0  0.35235541889E+03 -0.92325779771E+02  0.79551459129E+02  0.37283619122E+03  0.00000000000E+00 0. -1.
         -2    1    6    6    0  503  0.36764043630E+03 -0.15361329446E+03  0.83517951005E+01  0.39853015836E+03  0.00000000000E+00 0.  1.
<mgrwt>
<rscale>  0 0.21496912E+04</rscale>
<asrwt>0</asrwt>
<pdfrwt beam="1">  1        2 0.15623055E+00 0.21496912E+04</pdfrwt>
<pdfrwt beam="2">  1       -1 0.17502476E+00 0.21496912E+04</pdfrwt>
<totfact> 0.58264135E+00</totfact>
</mgrwt>
</event>
<event>
12    7  0.1661464E-007  0.2828806E+04  0.7818608E-02  0.8294381E-01
         -1   -1    0    0    0  501 -0.00000000000E+00  0.00000000000E+00  0.73590436202E+03  0.73590436202E+03  0.00000000000E+00 0.  1.
          2   -1    0    0  501    0  0.00000000000E+00 -0.00000000000E+00 -0.27184721940E+04  0.27184721940E+04  0.00000000000E+00 0. -1.
         24    2    1    2    0    0 -0.75852812152E+03 -0.10067644921E+04 -0.68795479136E+03  0.14384334003E+04  0.82880627365E+02 0.  0.
        254    2    1    2    0    0  0.75852812152E+03  0.10067644921E+04 -0.12946130407E+04  0.20159431558E+04  0.89390392593E+03 0.  0.
         23    2    4    4    0    0  0.32784268412E+03  0.10406802167E+04 -0.10165598629E+04  0.14939542045E+04  0.89493414245E+02 0.  0.
         23    2    4    4    0    0  0.43068543739E+03 -0.33915724624E+02 -0.27805317773E+03  0.52198895134E+03  0.92296659287E+02 0.  0.
          4    1    3    3  502    0 -0.34709129377E+03 -0.50146690617E+03 -0.29463665650E+03  0.67731247113E+03  0.00000000000E+00 0. -1.
         -3    1    3    3    0  502 -0.41143682775E+03 -0.50529758589E+03 -0.39331813487E+03  0.76112092912E+03  0.00000000000E+00 0.  1.
         13    1    5    5    0    0  0.12179946936E+02  0.11838997976E+03 -0.92049274156E+02  0.15045799177E+03  0.00000000000E+00 0.  1.
        -13    1    5    5    0    0  0.31566273719E+03  0.92229023693E+03 -0.92451058878E+03  0.13434962127E+04  0.00000000000E+00 0. -1.
          1    1    6    6  503    0  0.36816971654E+03 -0.23259158580E+01 -0.20773976780E+03  0.42274124613E+03  0.00000000000E+00 0. -1.
         -1    1    6    6    0  503  0.62515720857E+02 -0.31589808766E+02 -0.70313409932E+02  0.99247705205E+02  0.00000000000E+00 0.  1.
<mgrwt>
<rscale>  0 0.28288058E+04</rscale>
<asrwt>0</asrwt>
<pdfrwt beam="1">  1        2 0.41822649E+00 0.28288058E+04</pdfrwt>
<pdfrwt beam="2">  1       -1 0.11321606E+00 0.28288058E+04</pdfrwt>
<totfact> 0.18197436E+00</totfact>
</mgrwt>
</event>
<event>
12    7  0.1661464E-007  0.2161560E+04  0.7818608E-02  0.8534600E-01
         -1   -1    0    0    0  501 -0.00000000000E+00  0.00000000000E+00  0.85397270772E+03  0.85397270772E+03  0.00000000000E+00 0.  1.
          2   -1    0    0  501    0  0.00000000000E+00 -0.00000000000E+00 -0.13678245921E+04  0.13678245921E+04  0.00000000000E+00 0. -1.
         24    2    1    2    0    0 -0.13570760739E+01  0.52777671344E+02  0.70071166607E+03  0.70692330525E+03  0.77177692970E+02 0.  0.
        254    2    1    2    0    0  0.13570760739E+01 -0.52777671344E+02 -0.12145635504E+04  0.15148739946E+04  0.90382037877E+03 0.  0.
         23    2    4    4    0    0  0.25871306750E+03  0.30520376428E+03 -0.81663603210E+03  0.91384622926E+03  0.90214925527E+02 0.  0.
         23    2    4    4    0    0 -0.25735599142E+03 -0.35798143562E+03 -0.39792751834E+03  0.60102776530E+03  0.92223913573E+02 0.  0.
          2    1    3    3  502    0  0.35482978906E+01  0.56202960317E+00 -0.60953097671E+00  0.36438747518E+01  0.00000000000E+00 0. -1.
         -1    1    3    3    0  502 -0.49053739644E+01  0.52215641741E+02  0.70132119704E+03  0.70327943050E+03  0.00000000000E+00 0.  1.
         13    1    5    5    0    0  0.46798262703E+02  0.11509849690E+03 -0.28132947878E+03  0.30754514630E+03  0.00000000000E+00 0.  1.
        -13    1    5    5    0    0  0.21191480479E+03  0.19010526738E+03 -0.53530655332E+03  0.60630108296E+03  0.00000000000E+00 0. -1.
          4    1    6    6  503    0 -0.15906879636E+03 -0.14420124442E+03 -0.20309944585E+03  0.29554401664E+03  0.00000000000E+00 0. -1.
         -4    1    6    6    0  503 -0.98287195066E+02 -0.21378019120E+03 -0.19482807249E+03  0.30548374866E+03  0.00000000000E+00 0.  1.
<mgrwt>
<rscale>  0 0.21615595E+04</rscale>
<asrwt>0</asrwt>
<pdfrwt beam="1">  1        2 0.21043455E+00 0.21615595E+04</pdfrwt>
<pdfrwt beam="2">  1       -1 0.13138042E+00 0.21615595E+04</pdfrwt>
<totfact> 0.77908900E+00</totfact>
</mgrwt>
</event>
<event>
12    7  0.1661464E-007  0.1997609E+04  0.7818608E-02  0.8607739E-01
         -1   -1    0    0    0  501 -0.00000000000E+00  0.00000000000E+00  0.47068203706E+03  0.47068203706E+03  0.00000000000E+00 0.  1.
          2   -1    0    0  501    0  0.00000000000E+00 -0.00000000000E+00 -0.21194995577E+04  0.21194995577E+04  0.00000000000E+00 0. -1.
         24    2    1    2    0    0  0.75052048598E+02  0.61144338671E+02  0.36327438657E+03  0.38484324241E+03  0.82247195347E+02 0.  0.
        254    2    1    2    0    0 -0.75052048598E+02 -0.61144338671E+02 -0.20120919072E+04  0.22053383524E+04  0.89757003357E+03 0.  0.
         23    2    4    4    0    0 -0.31653157811E+03  0.14188142546E+03 -0.17464167848E+04  0.17828803405E+04  0.91477555952E+02 0.  0.
         23    2    4    4    0    0  0.24147952951E+03 -0.20302576413E+03 -0.26567512239E+03  0.42245801190E+03  0.91409392772E+02 0.  0.
          4    1    3    3  502    0  0.91001532312E+02  0.48232519453E+02  0.26212048760E+03  0.28162884234E+03  0.00000000000E+00 0. -1.
         -3    1    3    3    0  502 -0.15949483715E+02  0.12911819218E+02  0.10115389896E+03  0.10321440007E+03  0.00000000000E+00 0.  1.
         13    1    5    5    0    0  0.21099413865E+01  0.15944642461E+02 -0.82807272206E+02  0.84354773464E+02  0.00000000000E+00 0. -1.
        -13    1    5    5    0    0 -0.31864151950E+03  0.12593678300E+03 -0.16636095126E+04  0.16985255670E+04  0.00000000000E+00 0.  1.
          2    1    6    6  503    0  0.44778051657E+02 -0.91620486208E+02 -0.92679888670E+02  0.13780039611E+03  0.00000000000E+00 0. -1.
         -2    1    6    6    0  503  0.19670147785E+03 -0.11140527793E+03 -0.17299523372E+03  0.28465761579E+03  0.00000000000E+00 0.  1.
<mgrwt>
<rscale>  0 0.19976089E+04</rscale>
<asrwt>0</asrwt>
<pdfrwt beam="1">  1        2 0.32607685E+00 0.19976089E+04</pdfrwt>
<pdfrwt beam="2">  1       -1 0.72412623E-01 0.19976089E+04</pdfrwt>
<totfact> 0.11661391E+01</totfact>
</mgrwt>
</event>
<event>
12    7  0.1661464E-007  0.2812648E+04  0.7818608E-02  0.8299352E-01
          2   -1    0    0  501    0  0.00000000000E+00  0.00000000000E+00  0.23434237951E+04  0.23434237951E+04  0.00000000000E+00 0. -1.
         -1   -1    0    0    0  501 -0.00000000000E+00 -0.00000000000E+00 -0.84395608393E+03  0.84395608393E+03  0.00000000000E+00 0.  1.
         24    2    1    2    0    0  0.68007655018E+03  0.10215464256E+04  0.10315509209E+04  0.16050180382E+04  0.76970038961E+02 0.  0.
        254    2    1    2    0    0 -0.68007655018E+03 -0.10215464256E+04  0.46791679028E+03  0.15823618408E+04  0.88253139260E+03 0.  0.
         23    2    4    4    0    0 -0.80987756814E+03 -0.68091510243E+03  0.11750555651E+03  0.10683783384E+04  0.89875837480E+02 0.  0.
         23    2    4    4    0    0  0.12980101795E+03 -0.34063132315E+03  0.35041123376E+03  0.51398350237E+03  0.92265949229E+02 0.  0.
          4    1    3    3  502    0  0.64245363023E+03  0.94697872014E+03  0.98184730906E+03  0.15078260847E+04  0.00000000000E+00 0. -1.
         -3    1    3    3    0  502  0.37622919952E+02  0.74567705428E+02  0.49703611833E+02  0.97191953514E+02  0.00000000000E+00 0.  1.
         13    1    5    5    0    0 -0.39386118368E+03 -0.38709035125E+03  0.74712542157E+02  0.55726792120E+03  0.00000000000E+00 0. -1.
        -13    1    5    5    0    0 -0.41601638446E+03 -0.29382475118E+03  0.42793014355E+02  0.51111041725E+03  0.00000000000E+00 0.  1.
          1    1    6    6  503    0  0.45588406133E+02 -0.13810335029E+03  0.20297060410E+03  0.24969562324E+03  0.00000000000E+00 0. -1.
         -1    1    6    6    0  503  0.84212611822E+02 -0.20252797285E+03  0.14744062966E+03  0.26428787913E+03  0.00000000000E+00 0.  1.
<mgrwt>
<rscale>  0 0.28126477E+04</rscale>
<asrwt>0</asrwt>
<pdfrwt beam="1">  1        2 0.36052673E+00 0.28126477E+04</pdfrwt>
<pdfrwt beam="2">  1       -1 0.12983940E+00 0.28126477E+04</pdfrwt>
<totfact> 0.21531487E+00</totfact>
</mgrwt>
</event>
<event>
12    7  0.1661464E-007  0.1315472E+04  0.7818608E-02  0.9017385E-01
          2   -1    0    0  501    0  0.00000000000E+00  0.00000000000E+00  0.27942296383E+04  0.27942296383E+04  0.00000000000E+00 0. -1.
         -1   -1    0    0    0  501 -0.00000000000E+00 -0.00000000000E+00 -0.15482493886E+03  0.15482493886E+03  0.00000000000E+00 0.  1.
         24    2    1    2    0    0 -0.24742874983E+03 -0.14935802233E+03  0.24890140908E+03  0.38994781302E+03  0.81108448121E+02 0.  0.
        254    2    1    2    0    0  0.24742874983E+03  0.14935802233E+03  0.23905032903E+04  0.25591067641E+04  0.86659831754E+03 0.  0.
         23    2    4    4    0    0  0.39910325745E+03 -0.24554749177E+03  0.11498479152E+04  0.12451866141E+04  0.93608198594E+02 0.  0.
         23    2    4    4    0    0 -0.15167450762E+03  0.39490551410E+03  0.12406553751E+04  0.13139201501E+04  0.90580790609E+02 0.  0.
          4    1    3    3  502    0 -0.18202730495E+03 -0.70226351094E+02  0.18594728999E+03  0.26952193749E+03  0.00000000000E+00 0. -1.
         -3    1    3    3    0  502 -0.65401444884E+02 -0.79131671240E+02  0.62954119098E+02  0.12042587553E+03  0.00000000000E+00 0.  1.
         13    1    5    5    0    0  0.88175539710E+02 -0.59975243360E+02  0.17116128741E+03  0.20166343726E+03  0.00000000000E+00 0.  1.
        -13    1    5    5    0    0  0.31092771774E+03 -0.18557224841E+03  0.97868662782E+03  0.10435231768E+04  0.00000000000E+00 0. -1.
          1    1    6    6  503    0 -0.13130294333E+03  0.26646863185E+03  0.76029770866E+03  0.81627115622E+03  0.00000000000E+00 0. -1.
         -1    1    6    6    0  503 -0.20371564283E+02  0.12843688225E+03  0.48035766646E+03  0.49764899385E+03  0.00000000000E+00 0.  1.
<mgrwt>
<rscale>  0 0.13154717E+04</rscale>
<asrwt>0</asrwt>
<pdfrwt beam="1">  1        2 0.42988145E+00 0.13154717E+04</pdfrwt>
<pdfrwt beam="2">  1       -1 0.23819223E-01 0.13154717E+04</pdfrwt>
<totfact> 0.39878500E+01</totfact>
</mgrwt>
</event>
<event>
12    7  0.1661464E-007  0.1249280E+04  0.7818608E-02  0.9070782E-01
          2   -1    0    0  501    0  0.00000000000E+00  0.00000000000E+00  0.56484754743E+03  0.56484754743E+03  0.00000000000E+00 0. -1.
         -1   -1    0    0    0  501 -0.00000000000E+00 -0.00000000000E+00 -0.69076227539E+03  0.69076227539E+03  0.00000000000E+00 0.  1.
         24    2    1    2    0    0  0.12867700693E+03 -0.11103179220E+03 -0.26018985335E+03  0.32085250332E+03  0.79760504707E+02 0.  0.
        254    2    1    2    0    0 -0.12867700693E+03  0.11103179220E+03  0.13427512538E+03  0.93475731950E+03  0.90931601001E+03 0.  0.
         23    2    4    4    0    0 -0.32876731484E+03  0.41829074692E+03  0.13837965387E+03  0.55722800037E+03  0.91098954591E+02 0.  0.
         23    2    4    4    0    0  0.20009030790E+03 -0.30725895472E+03 -0.41045284875E+01  0.37752931913E+03  0.89818389417E+02 0.  0.
          4    1    3    3  502    0  0.19585123901E+02 -0.25550325433E+02 -0.81314314093E+01  0.33204162160E+02  0.00000000000E+00 0. -1.
         -3    1    3    3    0  502  0.10909188303E+03 -0.85481466771E+02 -0.25205842194E+03  0.28764834116E+03  0.00000000000E+00 0.  1.
         13    1    5    5    0    0 -0.31610632865E+03  0.38724622327E+03  0.14974020243E+03  0.52182849355E+03  0.00000000000E+00 0.  1.
        -13    1    5    5    0    0 -0.12660986186E+02  0.31044523648E+02 -0.11360548564E+02  0.35399506824E+02  0.00000000000E+00 0. -1.
          1    1    6    6  503    0  0.97792043032E+02 -0.76701642222E+02 -0.14212340899E+02  0.12509362987E+03  0.00000000000E+00 0. -1.
         -1    1    6    6    0  503  0.10229826487E+03 -0.23055731249E+03  0.10107812412E+02  0.25243568926E+03  0.00000000000E+00 0.  1.
<mgrwt>
<rscale>  0 0.12492804E+04</rscale>
<asrwt>0</asrwt>
<pdfrwt beam="1">  1        2 0.86899623E-01 0.12492804E+04</pdfrwt>
<pdfrwt beam="2">  1       -1 0.10627112E+00 0.12492804E+04</pdfrwt>
<totfact> 0.49657952E+01</totfact>
</mgrwt>
</event>
<event>
12    7  0.1661464E-007  0.1853699E+04  0.7818608E-02  0.8678253E-01
          2   -1    0    0  501    0  0.00000000000E+00  0.00000000000E+00  0.14738133892E+04  0.14738133892E+04  0.00000000000E+00 0. -1.
         -1   -1    0    0    0  501 -0.00000000000E+00 -0.00000000000E+00 -0.58287584934E+03  0.58287584934E+03  0.00000000000E+00 0.  1.
         24    2    1    2    0    0  0.60245005860E+03  0.15402978479E+03  0.38046035459E+03  0.73330351905E+03  0.79452639513E+02 0.  0.
        254    2    1    2    0    0 -0.60245005860E+03 -0.15402978479E+03  0.51047718529E+03  0.13233857195E+04  0.10507576115E+04 0.  0.
         23    2    4    4    0    0  0.27513267589E+03  0.21404742797E+02  0.28450939373E+01  0.29039600966E+03  0.90363684703E+02 0.  0.
         23    2    4    4    0    0 -0.87758273449E+03 -0.17543452759E+03  0.50763209136E+03  0.10329897099E+04  0.91916653313E+02 0.  0.
          4    1    3    3  502    0  0.22758786949E+03  0.28810003141E+02  0.17006828927E+03  0.28556869162E+03  0.00000000000E+00 0. -1.
         -3    1    3    3    0  502  0.37486218911E+03  0.12521978165E+03  0.21039206532E+03  0.44773482742E+03  0.00000000000E+00 0.  1.
         13    1    5    5    0    0  0.28140680782E+02  0.19891014769E+02 -0.23926589833E+02  0.41952736317E+02  0.00000000000E+00 0.  1.
        -13    1    5    5    0    0  0.24699199510E+03  0.15137280279E+01  0.26771683771E+02  0.24844327334E+03  0.00000000000E+00 0. -1.
          1    1    6    6  503    0 -0.76934951608E+03 -0.13753472229E+03  0.41099193060E+03  0.88302256186E+03  0.00000000000E+00 0. -1.
         -1    1    6    6    0  503 -0.10823321840E+03 -0.37899805296E+02  0.96640160758E+02  0.14996714800E+03  0.00000000000E+00 0.  1.
<mgrwt>
<rscale>  0 0.18536993E+04</rscale>
<asrwt>0</asrwt>
<pdfrwt beam="1">  1        2 0.22674052E+00 0.18536993E+04</pdfrwt>
<pdfrwt beam="2">  1       -1 0.89673208E-01 0.18536993E+04</pdfrwt>
<totfact> 0.17132344E+01</totfact>
</mgrwt>
</event>
<event>
12    7  0.1661464E-007  0.1496054E+04  0.7818608E-02  0.8887081E-01
          2   -1    0    0  501    0  0.00000000000E+00  0.00000000000E+00  0.97130391453E+03  0.97130391453E+03  0.00000000000E+00 0. -1.
         -1   -1    0    0    0  501 -0.00000000000E+00 -0.00000000000E+00 -0.57607559943E+03  0.57607559943E+03  0.00000000000E+00 0.  1.
         24    2    1    2    0    0  0.19670903053E+03 -0.36162463388E+03  0.37312054612E+03  0.56123325638E+03  0.79353686809E+02 0.  0.
        254    2    1    2    0    0 -0.19670903053E+03  0.36162463388E+03  0.22107768989E+02  0.98614625758E+03  0.89583975652E+03 0.  0.
         23    2    4    4    0    0 -0.38514467195E+02  0.64229950907E+03  0.22062729581E+02  0.65050547213E+03  0.92943970709E+02 0.  0.
         23    2    4    4    0    0 -0.15819456333E+03 -0.28067487519E+03  0.45039408387E-01  0.33564078545E+03  0.94078846712E+02 0.  0.
          2    1    3    3  502    0  0.10976873873E+03 -0.26557496128E+03  0.28372252082E+03  0.40382880640E+03  0.00000000000E+00 0. -1.
         -1    1    3    3    0  502  0.86940291801E+02 -0.96049672604E+02  0.89398025297E+02  0.15740444998E+03  0.00000000000E+00 0.  1.
         13    1    5    5    0    0 -0.38487384421E+02  0.96473701327E+02  0.12291286753E+02  0.10459220591E+03  0.00000000000E+00 0. -1.
        -13    1    5    5    0    0 -0.27082774297E-01  0.54582580775E+03  0.97714428283E+01  0.54591326622E+03  0.00000000000E+00 0.  1.
          3    1    6    6  503    0  0.49397709626E+01 -0.10376468296E+02 -0.15793011558E+02  0.19531811118E+02  0.00000000000E+00 0. -1.
         -3    1    6    6    0  503 -0.16313433430E+03 -0.27029840690E+03  0.15838050967E+02  0.31610897433E+03  0.00000000000E+00 0.  1.
<mgrwt>
<rscale>  0 0.14960541E+04</rscale>
<asrwt>0</asrwt>
<pdfrwt beam="1">  1        2 0.14943137E+00 0.14960541E+04</pdfrwt>
<pdfrwt beam="2">  1       -1 0.88627015E-01 0.14960541E+04</pdfrwt>
<totfact> 0.36238216E+01</totfact>
</mgrwt>
</event>
<event>
12    7  0.1661464E-007  0.1659606E+04  0.7818608E-02  0.8784744E-01
          2   -1    0    0  501    0  0.00000000000E+00  0.00000000000E+00  0.18278330304E+04  0.18278330304E+04  0.00000000000E+00 0. -1.
         -1   -1    0    0    0  501 -0.00000000000E+00 -0.00000000000E+00 -0.37671529845E+03  0.37671529845E+03  0.00000000000E+00 0.  1.
         24    2    1    2    0    0 -0.27159861297E+02  0.52803716590E+03  0.81693084633E+03  0.97878934920E+03  0.10531702511E+03 0.  0.
        254    2    1    2    0    0  0.27159861297E+02 -0.52803716590E+03  0.63418688559E+03  0.12257589796E+04  0.90594214144E+03 0.  0.
         23    2    4    4    0    0 -0.32990621422E+03 -0.58041405199E+03  0.44949379549E+03  0.81003978531E+03  0.91658058395E+02 0.  0.
         23    2    4    4    0    0  0.35706607552E+03  0.52376886098E+02  0.18469309011E+03  0.41571919431E+03  0.92040157030E+02 0.  0.
          2    1    3    3  502    0 -0.44312039344E+00  0.95209245324E+02  0.82959040283E+02  0.12628222011E+03  0.00000000000E+00 0. -1.
         -1    1    3    3    0  502 -0.26716740904E+02  0.43282792057E+03  0.73397180605E+03  0.85250712909E+03  0.00000000000E+00 0.  1.
         13    1    5    5    0    0 -0.15545972435E+02 -0.82135514984E+02  0.40884518836E+02  0.93056240849E+02  0.00000000000E+00 0.  1.
        -13    1    5    5    0    0 -0.31436024178E+03 -0.49827853701E+03  0.40860927665E+03  0.71698354446E+03  0.00000000000E+00 0. -1.
          2    1    6    6  503    0  0.24456863104E+03 -0.17828050262E+01  0.96824871836E+02  0.26304381667E+03  0.00000000000E+00 0. -1.
         -2    1    6    6    0  503  0.11249744447E+03  0.54159691124E+02  0.87868218270E+02  0.15267537764E+03  0.00000000000E+00 0.  1.
<mgrwt>
<rscale>  0 0.16596056E+04</rscale>
<asrwt>0</asrwt>
<pdfrwt beam="1">  1        2 0.28120508E+00 0.16596056E+04</pdfrwt>
<pdfrwt beam="2">  1       -1 0.57956201E-01 0.16596056E+04</pdfrwt>
<totfact> 0.27307740E+01</totfact>
</mgrwt>
</event>
<event>
12    7  0.1661464E-007  0.1153685E+04  0.7818608E-02  0.9154391E-01
         -1   -1    0    0    0  501 -0.00000000000E+00  0.00000000000E+00  0.12366854693E+03  0.12366854693E+03  0.00000000000E+00 0.  1.
          2   -1    0    0  501    0  0.00000000000E+00 -0.00000000000E+00 -0.26906363565E+04  0.26906363565E+04  0.00000000000E+00 0. -1.
         24    2    1    2    0    0  0.13738414936E+03  0.15672379550E+03 -0.60352045489E+03  0.64339588026E+03  0.79275259003E+02 0.  0.
        254    2    1    2    0    0 -0.13738414936E+03 -0.15672379550E+03 -0.19634473547E+04  0.21709090232E+04  0.90237670613E+03 0.  0.
         23    2    4    4    0    0 -0.78378196904E+02 -0.47685785201E+03 -0.65370712262E+03  0.81808739234E+03  0.91637473623E+02 0.  0.
         23    2    4    4    0    0 -0.59005952461E+02  0.32013405652E+03 -0.13097402321E+04  0.13528216309E+04  0.93484612749E+02 0.  0.
          4    1    3    3  502    0  0.61683530002E+02  0.40158754620E+02 -0.31018381286E+03  0.31879708469E+03  0.00000000000E+00 0. -1.
         -3    1    3    3    0  502  0.75700619363E+02  0.11656504088E+03 -0.29333664203E+03  0.32459879556E+03  0.00000000000E+00 0.  1.
         13    1    5    5    0    0 -0.75175256337E+02 -0.36035437473E+03 -0.55152756289E+03  0.66309067794E+03  0.00000000000E+00 0.  1.
        -13    1    5    5    0    0 -0.32029405673E+01 -0.11650347729E+03 -0.10217955973E+03  0.15499671440E+03  0.00000000000E+00 0. -1.
          3    1    6    6  503    0 -0.12316945350E+02  0.25078411402E+01 -0.11552394050E+03  0.11620575389E+03  0.00000000000E+00 0. -1.
         -3    1    6    6    0  503 -0.46689007111E+02  0.31762621538E+03 -0.11942162916E+04  0.12366158770E+04  0.00000000000E+00 0.  1.
<mgrwt>
<rscale>  0 0.11536847E+04</rscale>
<asrwt>0</asrwt>
<pdfrwt beam="1">  1        2 0.41394409E+00 0.11536847E+04</pdfrwt>
<pdfrwt beam="2">  1       -1 0.19025929E-01 0.11536847E+04</pdfrwt>
<totfact> 0.68128834E+01</totfact>
</mgrwt>
</event>
<event>
12    7  0.1661464E-007  0.2344918E+04  0.7818608E-02  0.8460418E-01
         -1   -1    0    0    0  501 -0.00000000000E+00  0.00000000000E+00  0.93243854403E+03  0.93243854403E+03  0.00000000000E+00 0.  1.
          2   -1    0    0  501    0  0.00000000000E+00 -0.00000000000E+00 -0.14742637018E+04  0.14742637018E+04  0.00000000000E+00 0. -1.
         24    2    1    2    0    0 -0.63104106437E+03 -0.57710055426E+03  0.27686569589E+03  0.90325959262E+03  0.89249108951E+02 0.  0.
        254    2    1    2    0    0  0.63104106437E+03  0.57710055426E+03 -0.81869085362E+03  0.15034426532E+04  0.92672931480E+03 0.  0.
         23    2    4    4    0    0  0.68721528088E+03  0.55779482277E+02 -0.63096899223E+03  0.93906301117E+03  0.91330591081E+02 0.  0.
         23    2    4    4    0    0 -0.56174216509E+02  0.52132107198E+03 -0.18772186139E+03  0.56437964200E+03  0.91398470251E+02 0.  0.
          4    1    3    3  502    0 -0.90642372494E+00  0.10173950980E+01  0.61177899121E+01  0.62676989528E+01  0.00000000000E+00 0. -1.
         -1    1    3    3    0  502 -0.63013464065E+03 -0.57811794936E+03  0.27074790598E+03  0.89699189367E+03  0.00000000000E+00 0.  1.
         13    1    5    5    0    0  0.62592090237E+03  0.39719401270E+02 -0.60217154852E+03  0.86946258155E+03  0.00000000000E+00 0. -1.
        -13    1    5    5    0    0  0.61294378514E+02  0.16060081007E+02 -0.28797443704E+02  0.69600429620E+02  0.00000000000E+00 0.  1.
          3    1    6    6  503    0  0.21214589246E+02  0.22096468891E+03 -0.83661412963E+02  0.23722285843E+03  0.00000000000E+00 0. -1.
         -3    1    6    6    0  503 -0.77388805754E+02  0.30035638307E+03 -0.10406044843E+03  0.32715678357E+03  0.00000000000E+00 0.  1.
<mgrwt>
<rscale>  0 0.23449182E+04</rscale>
<asrwt>0</asrwt>
<pdfrwt beam="1">  1        2 0.22680980E+00 0.23449182E+04</pdfrwt>
<pdfrwt beam="2">  1       -1 0.14345208E+00 0.23449182E+04</pdfrwt>
<totfact> 0.53103759E+00</totfact>
</mgrwt>
</event>
<event>
12    7  0.1661464E-007  0.1292618E+04  0.7818608E-02  0.9035440E-01
         -1   -1    0    0    0  501 -0.00000000000E+00  0.00000000000E+00  0.15271749328E+03  0.15271749328E+03  0.00000000000E+00 0.  1.
          2   -1    0    0  501    0  0.00000000000E+00 -0.00000000000E+00 -0.27352167721E+04  0.27352167721E+04  0.00000000000E+00 0. -1.
         24    2    1    2    0    0 -0.24224635823E+03  0.17715203288E+03 -0.54513543102E+03  0.62736324559E+03  0.79660924757E+02 0.  0.
        254    2    1    2    0    0  0.24224635823E+03 -0.17715203288E+03 -0.20373638478E+04  0.22605710198E+04  0.93234314843E+03 0.  0.
         23    2    4    4    0    0 -0.28009258714E+03  0.15154915252E+03 -0.95986092789E+03  0.10155059861E+04  0.92197635196E+02 0.  0.
         23    2    4    4    0    0  0.52233894537E+03 -0.32870118539E+03 -0.10775029199E+04  0.12450650337E+04  0.91060159096E+02 0.  0.
          2    1    3    3  502    0 -0.21158937892E+02 -0.56224360720E+01 -0.58648973377E+02  0.62602032861E+02  0.00000000000E+00 0. -1.
         -1    1    3    3    0  502 -0.22108742034E+03  0.18277446895E+03 -0.48648645764E+03  0.56476121273E+03  0.00000000000E+00 0.  1.
         13    1    5    5    0    0 -0.20276693762E+03  0.11584854223E+03 -0.56120764420E+03  0.60785634457E+03  0.00000000000E+00 0. -1.
        -13    1    5    5    0    0 -0.77325649518E+02  0.35700610292E+02 -0.39865328369E+03  0.40764964154E+03  0.00000000000E+00 0.  1.
          4    1    6    6  503    0  0.38018140917E+03 -0.23719695818E+03 -0.85835931565E+03  0.96828767194E+03  0.00000000000E+00 0. -1.
         -4    1    6    6    0  503  0.14215753620E+03 -0.91504227211E+02 -0.21914360429E+03  0.27677736179E+03  0.00000000000E+00 0.  1.
<mgrwt>
<rscale>  0 0.12926182E+04</rscale>
<asrwt>0</asrwt>
<pdfrwt beam="1">  1        2 0.42080260E+00 0.12926182E+04</pdfrwt>
<pdfrwt beam="2">  1       -1 0.23494998E-01 0.12926182E+04</pdfrwt>
<totfact> 0.44358365E+01</totfact>
</mgrwt>
</event>
<event>
12    7  0.1661464E-007  0.1584010E+04  0.7818608E-02  0.8830432E-01
         -3   -1    0    0    0  501 -0.00000000000E+00  0.00000000000E+00  0.12036504816E+04  0.12036504816E+04  0.00000000000E+00 0.  1.
          4   -1    0    0  501    0  0.00000000000E+00 -0.00000000000E+00 -0.52114116688E+03  0.52114116688E+03  0.00000000000E+00 0. -1.
         24    2    1    2    0    0 -0.42343366424E+02 -0.36936942502E+03 -0.19477229760E+03  0.42721552896E+03  0.79687686969E+02 0.  0.
        254    2    1    2    0    0  0.42343366424E+02  0.36936942502E+03  0.87728161229E+03  0.12975761195E+04  0.88082576361E+03 0.  0.
         23    2    4    4    0    0 -0.29629797859E+03  0.64636365987E+02  0.75341977930E+03  0.81687906523E+03  0.87633848754E+02 0.  0.
         23    2    4    4    0    0  0.33864134501E+03  0.30473305903E+03  0.12386183299E+03  0.48069705428E+03  0.90485946433E+02 0.  0.
          4    1    3    3  502    0 -0.72277758257E+01 -0.31060767398E+03 -0.17168748259E+03  0.35497318146E+03  0.00000000000E+00 0. -1.
         -1    1    3    3    0  502 -0.35115590598E+02 -0.58761751032E+02 -0.23084815008E+02  0.72242347493E+02  0.00000000000E+00 0.  1.
         13    1    5    5    0    0 -0.76047185380E+02 -0.36304144734E+01  0.28184928588E+03  0.29195097921E+03  0.00000000000E+00 0. -1.
        -13    1    5    5    0    0 -0.22025079321E+03  0.68266780461E+02  0.47157049342E+03  0.52492808602E+03  0.00000000000E+00 0.  1.
          3    1    6    6  503    0  0.92154432765E+02  0.13224127840E+03  0.66842216594E+02  0.17449377384E+03  0.00000000000E+00 0. -1.
         -3    1    6    6    0  503  0.24648691225E+03  0.17249178063E+03  0.57019616399E+02  0.30620328043E+03  0.00000000000E+00 0.  1.
<mgrwt>
<rscale>  0 0.15840099E+04</rscale>
<asrwt>0</asrwt>
<pdfrwt beam="1">  1        4 0.80175564E-01 0.15840099E+04</pdfrwt>
<pdfrwt beam="2">  1       -3 0.18517700E+00 0.15840099E+04</pdfrwt>
<totfact> 0.55417010E-01</totfact>
</mgrwt>
</event>
<event>
12    7  0.1661464E-007  0.1582389E+04  0.7818608E-02  0.8831441E-01
         -3   -1    0    0    0  501 -0.00000000000E+00  0.00000000000E+00  0.27647615955E+03  0.27647615955E+03  0.00000000000E+00 0.  1.
          4   -1    0    0  501    0  0.00000000000E+00 -0.00000000000E+00 -0.22641686596E+04  0.22641686596E+04  0.00000000000E+00 0. -1.
         24    2    1    2    0    0 -0.48006935892E+03 -0.44787769152E+02 -0.10339304233E+04  0.11436585103E+04  0.80437144938E+02 0.  0.
        254    2    1    2    0    0  0.48006935892E+03  0.44787769152E+02 -0.95376207673E+03  0.13969863088E+04  0.89968667571E+03 0.  0.
         23    2    4    4    0    0  0.59323502616E+03 -0.26590763486E+03 -0.75448945747E+03  0.10001664722E+04  0.91891045352E+02 0.  0.
         23    2    4    4    0    0 -0.11316566724E+03  0.31069540401E+03 -0.19927261926E+03  0.39681983661E+03  0.91751314011E+02 0.  0.
          2    1    3    3  502    0 -0.13049764694E+03 -0.67966657522E+01 -0.20341167841E+03  0.24176877680E+03  0.00000000000E+00 0. -1.
         -1    1    3    3    0  502 -0.34957171198E+03 -0.37991103399E+02 -0.83051874487E+03  0.90188973347E+03  0.00000000000E+00 0.  1.
         13    1    5    5    0    0  0.35856769469E+03 -0.20879877490E+03 -0.46770695392E+03  0.62523396806E+03  0.00000000000E+00 0. -1.
        -13    1    5    5    0    0  0.23466733147E+03 -0.57108859967E+02 -0.28678250355E+03  0.37493250417E+03  0.00000000000E+00 0.  1.
          3    1    6    6  503    0 -0.72298971194E+02  0.28095726044E+03 -0.18581941073E+03  0.34451847097E+03  0.00000000000E+00 0. -1.
         -3    1    6    6    0  503 -0.40866696042E+02  0.29738143571E+02 -0.13453208527E+02  0.52301365643E+02  0.00000000000E+00 0.  1.
<mgrwt>
<rscale>  0 0.15823889E+04</rscale>
<asrwt>0</asrwt>
<pdfrwt beam="1">  1        4 0.34833366E+00 0.15823889E+04</pdfrwt>
<pdfrwt beam="2">  1       -3 0.42534792E-01 0.15823889E+04</pdfrwt>
<totfact> 0.18512561E-01</totfact>
</mgrwt>
</event>
<event>
12    7  0.1661464E-007  0.2097938E+04  0.7818608E-02  0.8562152E-01
         -1   -1    0    0    0  501 -0.00000000000E+00  0.00000000000E+00  0.53368036474E+03  0.53368036474E+03  0.00000000000E+00 0.  1.
          2   -1    0    0  501    0  0.00000000000E+00 -0.00000000000E+00 -0.20617886298E+04  0.20617886298E+04  0.00000000000E+00 0. -1.
         24    2    1    2    0    0 -0.49462301638E+03  0.68036404930E+03 -0.81786924937E+03  0.11759455828E+04  0.79942083601E+02 0.  0.
        254    2    1    2    0    0  0.49462301638E+03 -0.68036404930E+03 -0.71023901571E+03  0.14195234118E+04  0.89613620014E+03 0.  0.
         23    2    4    4    0    0  0.51519061337E+03  0.77196868306E+01 -0.21192768903E+03  0.56411504942E+03  0.88495660577E+02 0.  0.
         23    2    4    4    0    0 -0.20567596985E+02 -0.68808373613E+03 -0.49831132668E+03  0.85540836234E+03  0.97606526912E+02 0.  0.
          2    1    3    3  502    0 -0.11229098563E+03  0.18813814747E+03 -0.25423295186E+03  0.33561826797E+03  0.00000000000E+00 0. -1.
         -1    1    3    3    0  502 -0.38233203076E+03  0.49222590183E+03 -0.56363629751E+03  0.84032731483E+03  0.00000000000E+00 0.  1.
         13    1    5    5    0    0  0.10160291046E+02 -0.26870863245E+01  0.79696607394E+01  0.13189671692E+02  0.00000000000E+00 0.  1.
        -13    1    5    5    0    0  0.50503032232E+03  0.10406773155E+02 -0.21989734977E+03  0.55092537773E+03  0.00000000000E+00 0. -1.
          1    1    6    6  503    0 -0.25391771601E+02 -0.35118838133E+03 -0.31171126742E+03  0.47025730774E+03  0.00000000000E+00 0. -1.
         -1    1    6    6    0  503  0.48241746158E+01 -0.33689535480E+03 -0.18660005926E+03  0.38515105460E+03  0.00000000000E+00 0.  1.
<mgrwt>
<rscale>  0 0.20979381E+04</rscale>
<asrwt>0</asrwt>
<pdfrwt beam="1">  1        2 0.31719826E+00 0.20979381E+04</pdfrwt>
<pdfrwt beam="2">  1       -1 0.82104669E-01 0.20979381E+04</pdfrwt>
<totfact> 0.95545620E+00</totfact>
</mgrwt>
</event>
<event>
12    7  0.1661464E-007  0.3749460E+04  0.7818608E-02  0.8057088E-01
          2   -1    0    0  501    0  0.00000000000E+00  0.00000000000E+00  0.28078688884E+04  0.28078688884E+04  0.00000000000E+00 0. -1.
         -1   -1    0    0    0  501 -0.00000000000E+00 -0.00000000000E+00 -0.12517013604E+04  0.12517013604E+04  0.00000000000E+00 0.  1.
         24    2    1    2    0    0  0.16530815897E+04 -0.33658707323E+03  0.17782679915E+03  0.16980429172E+04  0.75880023478E+02 0.  0.
        254    2    1    2    0    0 -0.16530815897E+04  0.33658707323E+03  0.13783407288E+04  0.23615273315E+04  0.91160220085E+03 0.  0.
         23    2    4    4    0    0 -0.10032592030E+04 -0.47621637906E+02  0.12235104565E+04  0.15855830796E+04  0.91098937780E+02 0.  0.
         23    2    4    4    0    0 -0.64982238679E+03  0.38420871113E+03  0.15483027231E+03  0.77594425190E+03  0.90728169564E+02 0.  0.
          2    1    3    3  502    0  0.11959301371E+04 -0.25270318041E+03  0.16163113595E+03  0.12329770534E+04  0.00000000000E+00 0. -1.
         -1    1    3    3    0  502  0.45715145266E+03 -0.83883892811E+02  0.16195663197E+02  0.46506586377E+03  0.00000000000E+00 0.  1.
         13    1    5    5    0    0 -0.25734580003E+03  0.23162407601E+02  0.34286092056E+03  0.42932152143E+03  0.00000000000E+00 0.  1.
        -13    1    5    5    0    0 -0.74591340292E+03 -0.70784045507E+02  0.88064953598E+03  0.11562615582E+04  0.00000000000E+00 0. -1.
          1    1    6    6  503    0 -0.88412226742E+02  0.49282611856E+02 -0.10134152060E+02  0.10172609649E+03  0.00000000000E+00 0.  1.
         -1    1    6    6    0  503 -0.56141016005E+03  0.33492609928E+03  0.16496442437E+03  0.67421815541E+03  0.00000000000E+00 0. -1.
<mgrwt>
<rscale>  0 0.37494604E+04</rscale>
<asrwt>0</asrwt>
<pdfrwt beam="1">  1        2 0.43197983E+00 0.37494604E+04</pdfrwt>
<pdfrwt beam="2">  1       -1 0.19256944E+00 0.37494604E+04</pdfrwt>
<totfact> 0.35445839E-01</totfact>
</mgrwt>
</event>
<event>
12    7  0.1661464E-007  0.1612686E+04  0.7818608E-02  0.8812792E-01
          2   -1    0    0  501    0  0.00000000000E+00  0.00000000000E+00  0.18152306654E+04  0.18152306654E+04  0.00000000000E+00 0. -1.
         -1   -1    0    0    0  501 -0.00000000000E+00 -0.00000000000E+00 -0.35818539148E+03  0.35818539148E+03  0.00000000000E+00 0.  1.
         24    2    1    2    0    0 -0.48556011146E+03 -0.26409846397E+03  0.46709363449E+03  0.72805942818E+03  0.79858919806E+02 0.  0.
        254    2    1    2    0    0  0.48556011146E+03  0.26409846397E+03  0.98995163940E+03  0.14453566287E+04  0.89640109058E+03 0.  0.
         23    2    4    4    0    0 -0.30016617392E+01 -0.26676589730E+03  0.48212722594E+03  0.55851658049E+03  0.91219815617E+02 0.  0.
         23    2    4    4    0    0  0.48856177320E+03  0.53086436127E+03  0.50782441346E+03  0.88684004818E+03  0.89944759980E+02 0.  0.
          4    1    3    3  502    0 -0.22090020372E+03 -0.10487051191E+03  0.15823011439E+03  0.29125846489E+03  0.00000000000E+00 0. -1.
         -3    1    3    3    0  502 -0.26465990774E+03 -0.15922795206E+03  0.30886352011E+03  0.43680096329E+03  0.00000000000E+00 0.  1.
         13    1    5    5    0    0 -0.15180273758E+02 -0.23025535514E+03  0.45866509516E+03  0.51344097889E+03  0.00000000000E+00 0.  1.
        -13    1    5    5    0    0  0.12178612018E+02 -0.36510542162E+02  0.23462130775E+02  0.45075601606E+02  0.00000000000E+00 0. -1.
          2    1    6    6  503    0  0.37665564113E+02  0.84174273369E+02  0.70184756957E+02  0.11588745888E+03  0.00000000000E+00 0. -1.
         -2    1    6    6    0  503  0.45089620908E+03  0.44669008790E+03  0.43763965650E+03  0.77095258930E+03  0.00000000000E+00 0.  1.
<mgrwt>
<rscale>  0 0.16126861E+04</rscale>
<asrwt>0</asrwt>
<pdfrwt beam="1">  1        2 0.27926625E+00 0.16126861E+04</pdfrwt>
<pdfrwt beam="2">  1       -1 0.55105446E-01 0.16126861E+04</pdfrwt>
<totfact> 0.30739778E+01</totfact>
</mgrwt>
</event>
<event>
12    7  0.1661464E-007  0.1180059E+04  0.7818608E-02  0.9130492E-01
          2   -1    0    0  501    0  0.00000000000E+00  0.00000000000E+00  0.68375941056E+03  0.68375941056E+03  0.00000000000E+00 0. -1.
         -1   -1    0    0    0  501 -0.00000000000E+00 -0.00000000000E+00 -0.50914800055E+03  0.50914800055E+03  0.00000000000E+00 0.  1.
         24    2    1    2    0    0  0.84449911366E+02 -0.19073201439E+03  0.14982558355E+03  0.26751588307E+03  0.74876921444E+02 0.  0.
        254    2    1    2    0    0 -0.84449911366E+02  0.19073201439E+03  0.24785826459E+02  0.92539152805E+03  0.90123507153E+03 0.  0.
         23    2    4    4    0    0  0.29191949551E+03 -0.20485684712E+03 -0.12675486783E+02  0.36996713142E+03  0.97630377945E+02 0.  0.
         23    2    4    4    0    0 -0.37636940688E+03  0.39558886150E+03  0.37461313242E+02  0.55542439663E+03  0.94596155336E+02 0.  0.
          2    1    3    3  502    0  0.11278468191E+02 -0.79784956728E+02  0.22968632322E+02  0.83787834651E+02  0.00000000000E+00 0. -1.
         -1    1    3    3    0  502  0.73171443174E+02 -0.11094705766E+03  0.12685695123E+03  0.18372804842E+03  0.00000000000E+00 0.  1.
         13    1    5    5    0    0  0.29529228770E+03 -0.18591852565E+03 -0.42634361212E+01  0.34897193332E+03  0.00000000000E+00 0.  1.
        -13    1    5    5    0    0 -0.33727921913E+01 -0.18938321464E+02 -0.84120506619E+01  0.20995198103E+02  0.00000000000E+00 0. -1.
          4    1    6    6  503    0 -0.82313032368E+02  0.36527741244E+02  0.59813329676E+01  0.90252354662E+02  0.00000000000E+00 0. -1.
         -4    1    6    6    0  503 -0.29405637451E+03  0.35906112026E+03  0.31479980275E+02  0.46517204197E+03  0.00000000000E+00 0.  1.
<mgrwt>
<rscale>  0 0.11800589E+04</rscale>
<asrwt>0</asrwt>
<pdfrwt beam="1">  1        2 0.10519376E+00 0.11800589E+04</pdfrwt>
<pdfrwt beam="2">  1       -1 0.78330461E-01 0.11800589E+04</pdfrwt>
<totfact> 0.77749458E+01</totfact>
</mgrwt>
</event>
<event>
12    7  0.1661464E-007  0.1310172E+04  0.7818608E-02  0.9021538E-01
          2   -1    0    0  501    0  0.00000000000E+00  0.00000000000E+00  0.17527688957E+04  0.17527688957E+04  0.00000000000E+00 0. -1.
         -1   -1    0    0    0  501 -0.00000000000E+00 -0.00000000000E+00 -0.24483404203E+03  0.24483404203E+03  0.00000000000E+00 0.  1.
         24    2    1    2    0    0  0.24620933511E+03  0.14435255321E+03  0.11955647919E+03  0.31988903345E+03  0.81108234442E+02 0.  0.
        254    2    1    2    0    0 -0.24620933511E+03 -0.14435255321E+03  0.13883783744E+04  0.16777139043E+04  0.89759274594E+03 0.  0.
         23    2    4    4    0    0 -0.48025077862E+03  0.11228332059E+03  0.45245512231E+03  0.67523471746E+03  0.89319267334E+02 0.  0.
         23    2    4    4    0    0  0.23404144351E+03 -0.25663587380E+03  0.93592325214E+03  0.10024791868E+04  0.91514026494E+02 0.  0.
          2    1    3    3  502    0  0.92547427805E+02  0.71928874203E+02  0.89270523927E+02  0.14733640344E+03  0.00000000000E+00 0. -1.
         -1    1    3    3    0  502  0.15366190730E+03  0.72423679007E+02  0.30285955262E+02  0.17255263001E+03  0.00000000000E+00 0.  1.
         13    1    5    5    0    0 -0.24476733257E+02  0.16531771497E+02  0.61153975289E+01  0.30163024164E+02  0.00000000000E+00 0. -1.
        -13    1    5    5    0    0 -0.45577404536E+03  0.95751549090E+02  0.44633972478E+03  0.64507169330E+03  0.00000000000E+00 0.  1.
          2    1    6    6  503    0  0.43644823101E+02 -0.54019985620E+02  0.10175864615E+03  0.12319842327E+03  0.00000000000E+00 0. -1.
         -2    1    6    6    0  503  0.19039662041E+03 -0.20261588818E+03  0.83416460599E+03  0.87928076352E+03  0.00000000000E+00 0.  1.
<mgrwt>
<rscale>  0 0.13101717E+04</rscale>
<asrwt>0</asrwt>
<pdfrwt beam="1">  1        2 0.26965675E+00 0.13101717E+04</pdfrwt>
<pdfrwt beam="2">  1       -1 0.37666777E-01 0.13101717E+04</pdfrwt>
<totfact> 0.69517144E+01</totfact>
</mgrwt>
</event>
<event>
12    7  0.1661464E-007  0.1943590E+04  0.7818608E-02  0.8633458E-01
         -1   -1    0    0    0  501 -0.00000000000E+00  0.00000000000E+00  0.44822215548E+03  0.44822215548E+03  0.00000000000E+00 0.  1.
          2   -1    0    0  501    0  0.00000000000E+00 -0.00000000000E+00 -0.21069583720E+04  0.21069583720E+04  0.00000000000E+00 0. -1.
         24    2    1    2    0    0 -0.41436628333E+03 -0.49429876944E+03 -0.12435785598E+04  0.14032167350E+04  0.80615635307E+02 0.  0.
        254    2    1    2    0    0  0.41436628333E+03  0.49429876944E+03 -0.41515765674E+03  0.11519637925E+04  0.85943819389E+03 0.  0.
         23    2    4    4    0    0  0.39990514558E+02 -0.12931165075E+03 -0.38450400776E+03  0.41786479428E+03  0.91907072893E+02 0.  0.
         23    2    4    4    0    0  0.37437576877E+03  0.62361042019E+03 -0.30653648984E+02  0.73409899825E+03  0.94416739095E+02 0.  0.
          4    1    3    3  502    0 -0.15162725946E+03 -0.13637360031E+03 -0.34072406319E+03  0.39709126396E+03  0.00000000000E+00 0. -1.
         -3    1    3    3    0  502 -0.26273902387E+03 -0.35792516913E+03 -0.90285449662E+03  0.10061254710E+04  0.00000000000E+00 0.  1.
         13    1    5    5    0    0  0.99977945923E+00 -0.12428535068E+03 -0.29356471075E+03  0.31879160489E+03  0.00000000000E+00 0.  1.
        -13    1    5    5    0    0  0.38990735099E+02 -0.50263000651E+01 -0.90939297010E+02  0.99073189394E+02  0.00000000000E+00 0. -1.
          1    1    6    6  503    0  0.35993559026E+03  0.54701392102E+03 -0.37282832924E+02  0.65587183852E+03  0.00000000000E+00 0.  1.
         -1    1    6    6    0  503  0.14440178513E+02  0.76596499167E+02  0.66291839403E+01  0.78227159733E+02  0.00000000000E+00 0. -1.
<mgrwt>
<rscale>  0 0.19435899E+04</rscale>
<asrwt>0</asrwt>
<pdfrwt beam="1">  1        2 0.32414745E+00 0.19435899E+04</pdfrwt>
<pdfrwt beam="2">  1       -1 0.68957253E-01 0.19435899E+04</pdfrwt>
<totfact> 0.13167381E+01</totfact>
</mgrwt>
</event>
<event>
12    7  0.1661464E-007  0.2294618E+04  0.7818608E-02  0.8480046E-01
          2   -1    0    0  501    0  0.00000000000E+00  0.00000000000E+00  0.58427177154E+03  0.58427177154E+03  0.00000000000E+00 0. -1.
         -1   -1    0    0    0  501 -0.00000000000E+00 -0.00000000000E+00 -0.22529213682E+04  0.22529213682E+04  0.00000000000E+00 0.  1.
         24    2    1    2    0    0 -0.32819313286E+03 -0.16535216519E+03  0.40368570366E+03  0.55181333310E+03  0.80521650886E+02 0.  0.
        254    2    1    2    0    0  0.32819313286E+03  0.16535216519E+03 -0.20723353003E+04  0.22853798067E+04  0.89069365815E+03 0.  0.
         23    2    4    4    0    0  0.37409300569E+03 -0.29691348980E+03 -0.11510124050E+04  0.12495291432E+04  0.91598723057E+02 0.  0.
         23    2    4    4    0    0 -0.45899872828E+02  0.46226565500E+03 -0.92132289538E+03  0.10358506634E+04  0.91402326416E+02 0.  0.
          4    1    3    3  502    0 -0.19240502748E+03 -0.13913781475E+03  0.24160741257E+03  0.33875236959E+03  0.00000000000E+00 0. -1.
         -3    1    3    3    0  502 -0.13578810538E+03 -0.26214350445E+02  0.16207829109E+03  0.21306096351E+03  0.00000000000E+00 0.  1.
         13    1    5    5    0    0  0.37833391860E+03 -0.29498038402E+03 -0.11237176211E+04  0.12218392991E+04  0.00000000000E+00 0. -1.
        -13    1    5    5    0    0 -0.42409129113E+01 -0.19331057877E+01 -0.27294783861E+02  0.27689844101E+02  0.00000000000E+00 0.  1.
          1    1    6    6  503    0 -0.41721364956E+02  0.42998602855E+03 -0.78840634195E+03  0.89900679478E+03  0.00000000000E+00 0. -1.
         -1    1    6    6    0  503 -0.41785078724E+01  0.32279626444E+02 -0.13291655343E+03  0.13684386865E+03  0.00000000000E+00 0.  1.
<mgrwt>
<rscale>  0 0.22946184E+04</rscale>
<asrwt>0</asrwt>
<pdfrwt beam="1">  1        2 0.89887965E-01 0.22946184E+04</pdfrwt>
<pdfrwt beam="2">  1       -1 0.34660329E+00 0.22946184E+04</pdfrwt>
<totfact> 0.86823112E-01</totfact>
</mgrwt>
</event>
<event>
12    7  0.1661464E-007  0.3204107E+04  0.7818608E-02  0.8187733E-01
          2   -1    0    0  501    0  0.00000000000E+00  0.00000000000E+00  0.12866454442E+04  0.12866454442E+04  0.00000000000E+00 0. -1.
         -1   -1    0    0    0  501 -0.00000000000E+00 -0.00000000000E+00 -0.19947801788E+04  0.19947801788E+04  0.00000000000E+00 0.  1.
         24    2    1    2    0    0 -0.22274297804E+03  0.51636871317E+03 -0.17224380475E+04  0.18136592026E+04  0.79471965700E+02 0.  0.
        254    2    1    2    0    0  0.22274297804E+03 -0.51636871317E+03  0.10143033129E+04  0.14677664205E+04  0.89959767252E+03 0.  0.
         23    2    4    4    0    0  0.21261587353E+03 -0.50500845258E+03  0.11899221651E+03  0.56759149219E+03  0.88101688719E+02 0.  0.
         23    2    4    4    0    0  0.10127104509E+02 -0.11360260590E+02  0.89531109636E+03  0.90017492831E+03  0.92202649194E+02 0.  0.
          2    1    3    3  502    0 -0.73579515726E+02  0.16273033256E+03 -0.43517428795E+03  0.47039533071E+03  0.00000000000E+00 0. -1.
         -1    1    3    3    0  502 -0.14916346231E+03  0.35363838061E+03 -0.12872637596E+04  0.13432638718E+04  0.00000000000E+00 0.  1.
         13    1    5    5    0    0  0.82863017594E+02 -0.21206727779E+03  0.93685359858E+02  0.24620267392E+03  0.00000000000E+00 0. -1.
        -13    1    5    5    0    0  0.12975285594E+03 -0.29294117480E+03  0.25306856655E+02  0.32138881827E+03  0.00000000000E+00 0.  1.
          4    1    6    6  503    0 -0.14225344944E+02 -0.46436217723E+02  0.37856966756E+03  0.38167221009E+03  0.00000000000E+00 0.  1.
         -4    1    6    6    0  503  0.24352449453E+02  0.35075957133E+02  0.51674142880E+03  0.51850271822E+03  0.00000000000E+00 0. -1.
<mgrwt>
<rscale>  0 0.32041066E+04</rscale>
<asrwt>0</asrwt>
<pdfrwt beam="1">  1        2 0.19794545E+00 0.32041066E+04</pdfrwt>
<pdfrwt beam="2">  1       -1 0.30688926E+00 0.32041066E+04</pdfrwt>
<totfact> 0.48069846E-01</totfact>
</mgrwt>
</event>
<event>
12    7  0.1764945E-007  0.1507386E+04  0.7818608E-02  0.8879556E-01
         -3   -1    0    0    0  501 -0.00000000000E+00  0.00000000000E+00  0.40127536136E+03  0.40127536136E+03  0.00000000000E+00 0.  1.
          4   -1    0    0  501    0  0.00000000000E+00 -0.00000000000E+00 -0.14156194119E+04  0.14156194119E+04  0.00000000000E+00 0. -1.
         24    2    1    2    0    0 -0.40108339688E+03 -0.12501205300E+03 -0.54164392174E+03  0.69281345649E+03  0.10058052938E+03 0.  0.
        254    2    1    2    0    0  0.40108339688E+03  0.12501205300E+03 -0.47270012883E+03  0.11240813168E+04  0.92931022287E+03 0.  0.
         23    2    4    4    0    0  0.41150136539E+03  0.48060635920E+03 -0.21346599900E+03  0.67480366913E+03  0.97346869031E+02 0.  0.
         23    2    4    4    0    0 -0.10417968509E+02 -0.35559430620E+03 -0.25923412983E+03  0.44927764767E+03  0.89956800525E+02 0.  0.
          2    1    3    3  502    0 -0.38745528708E+03 -0.13972982369E+03 -0.51859069149E+03  0.66225548576E+03  0.00000000000E+00 0. -1.
         -1    1    3    3    0  502 -0.13628109804E+02  0.14717770683E+02 -0.23053230244E+02  0.30557970735E+02  0.00000000000E+00 0.  1.
         13    1    5    5    0    0  0.10882698658E+03  0.14882075711E+03 -0.10732020726E+03  0.21332734855E+03  0.00000000000E+00 0. -1.
        -13    1    5    5    0    0  0.30267437881E+03  0.33178560210E+03 -0.10614579175E+03  0.46147632057E+03  0.00000000000E+00 0.  1.
          2    1    6    6  503    0 -0.14006978394E+02 -0.36039133191E+03 -0.25251132844E+03  0.44027273201E+03  0.00000000000E+00 0.  1.
         -2    1    6    6    0  503  0.35890098853E+01  0.47970257102E+01 -0.67228013844E+01  0.90049156618E+01  0.00000000000E+00 0. -1.
<mgrwt>
<rscale>  0 0.15073861E+04</rscale>
<asrwt>0</asrwt>
<pdfrwt beam="1">  1        4 0.21778760E+00 0.15073861E+04</pdfrwt>
<pdfrwt beam="2">  1       -3 0.61734670E-01 0.15073861E+04</pdfrwt>
<totfact> 0.56897569E-01</totfact>
</mgrwt>
</event>
<event>
12    7  0.1661464E-007  0.2463160E+04  0.7818608E-02  0.8416229E-01
          2   -1    0    0  501    0  0.00000000000E+00  0.00000000000E+00  0.11898933903E+04  0.11898933903E+04  0.00000000000E+00 0. -1.
         -1   -1    0    0    0  501 -0.00000000000E+00 -0.00000000000E+00 -0.12747268142E+04  0.12747268142E+04  0.00000000000E+00 0.  1.
         24    2    1    2    0    0  0.25591653030E+03 -0.84382511506E+03 -0.63564147602E+03  0.10898329826E+04  0.78496807144E+02 0.  0.
        254    2    1    2    0    0 -0.25591653030E+03  0.84382511506E+03  0.55080805216E+03  0.13747872219E+04  0.89950892153E+03 0.  0.
         23    2    4    4    0    0 -0.27325654945E+03  0.10096390374E+04  0.37227497468E+03  0.11139607340E+04  0.90993035458E+02 0.  0.
         23    2    4    4    0    0  0.17340019147E+02 -0.16581392234E+03  0.17853307748E+03  0.26082648789E+03  0.91441040695E+02 0.  0.
          2    1    3    3  502    0  0.52886405110E+01 -0.68012374927E+02 -0.31734678186E+02  0.75237907077E+02  0.00000000000E+00 0. -1.
         -1    1    3    3    0  502  0.25062788979E+03 -0.77581274013E+03 -0.60390679784E+03  0.10145950756E+04  0.00000000000E+00 0.  1.
         13    1    5    5    0    0 -0.24698037085E+03  0.91242484326E+03  0.36398166445E+03  0.10129170994E+04  0.00000000000E+00 0. -1.
        -13    1    5    5    0    0 -0.26276178598E+02  0.97214194145E+02  0.82933102316E+01  0.10104363463E+03  0.00000000000E+00 0.  1.
          2    1    6    6  503    0  0.49192338112E+02 -0.11798773105E+03  0.14865909671E+03  0.19606253554E+03  0.00000000000E+00 0. -1.
         -2    1    6    6    0  503 -0.31852318964E+02 -0.47826191290E+02  0.29873980768E+02  0.64763952347E+02  0.00000000000E+00 0.  1.
<mgrwt>
<rscale>  0 0.24631598E+04</rscale>
<asrwt>0</asrwt>
<pdfrwt beam="1">  1        2 0.18306052E+00 0.24631598E+04</pdfrwt>
<pdfrwt beam="2">  1       -1 0.19611182E+00 0.24631598E+04</pdfrwt>
<totfact> 0.31360573E+00</totfact>
</mgrwt>
</event>
<event>
12    7  0.1661464E-007  0.4281602E+04  0.7818608E-02  0.7950029E-01
         -1   -1    0    0    0  501 -0.00000000000E+00  0.00000000000E+00  0.90084973197E+03  0.90084973197E+03  0.00000000000E+00 0.  1.
          2   -1    0    0  501    0  0.00000000000E+00 -0.00000000000E+00 -0.50874515217E+04  0.50874515217E+04  0.00000000000E+00 0. -1.
         24    2    1    2    0    0  0.47293249993E+03 -0.89969499249E+02 -0.47878959080E+04  0.48126997148E+04  0.79822670528E+02 0.  0.
        254    2    1    2    0    0 -0.47293249993E+03  0.89969499249E+02  0.60129411824E+03  0.11756015389E+04  0.88810174043E+03 0.  0.
         23    2    4    4    0    0 -0.66031812953E+02 -0.17239507802E+03  0.64881036076E+03  0.68070102130E+03  0.91207088128E+02 0.  0.
         23    2    4    4    0    0 -0.40690068697E+03  0.26236457727E+03 -0.47516242521E+02  0.49490051760E+03  0.90914182325E+02 0.  0.
          2    1    3    3  502    0  0.21272337083E+03 -0.62159255615E+02 -0.18680128848E+04  0.18811132723E+04  0.00000000000E+00 0. -1.
         -1    1    3    3    0  502  0.26020912910E+03 -0.27810243634E+02 -0.29198830232E+04  0.29315864425E+04  0.00000000000E+00 0.  1.
         13    1    5    5    0    0  0.10782371871E+02 -0.97918975465E+02  0.33247227250E+03  0.34675956696E+03  0.00000000000E+00 0.  1.
        -13    1    5    5    0    0 -0.76814184824E+02 -0.74476102556E+02  0.31633808826E+03  0.33394145434E+03  0.00000000000E+00 0. -1.
          4    1    6    6  503    0 -0.22817040982E+03  0.13580600956E+03  0.18483175110E+02  0.26617031373E+03  0.00000000000E+00 0. -1.
         -4    1    6    6    0  503 -0.17873027716E+03  0.12655856771E+03 -0.65999417630E+02  0.22873020387E+03  0.00000000000E+00 0.  1.
<mgrwt>
<rscale>  0 0.42816022E+04</rscale>
<asrwt>0</asrwt>
<pdfrwt beam="1">  1        2 0.78268485E+00 0.42816022E+04</pdfrwt>
<pdfrwt beam="2">  1       -1 0.13859227E+00 0.42816022E+04</pdfrwt>
<totfact> 0.97938425E-03</totfact>
</mgrwt>
</event>
<event>
12    7  0.1661464E-007  0.1715157E+04  0.7818608E-02  0.8752766E-01
          2   -1    0    0  501    0  0.00000000000E+00  0.00000000000E+00  0.16442942734E+04  0.16442942734E+04  0.00000000000E+00 0. -1.
         -1   -1    0    0    0  501 -0.00000000000E+00 -0.00000000000E+00 -0.44726859556E+03  0.44726859556E+03  0.00000000000E+00 0.  1.
         24    2    1    2    0    0 -0.44652713661E+03 -0.29615593487E+03  0.67786398917E+02  0.54561423115E+03  0.77492398740E+02 0.  0.
        254    2    1    2    0    0  0.44652713661E+03  0.29615593487E+03  0.11292392790E+04  0.15459486378E+04  0.90976976222E+03 0.  0.
         23    2    4    4    0    0  0.14540783223E+03  0.46818759490E+03  0.10726253981E+04  0.11828975504E+04  0.91533100318E+02 0.  0.
         23    2    4    4    0    0  0.30111930438E+03 -0.17203166003E+03  0.56613880849E+02  0.36305108743E+03  0.91286543656E+02 0.  0.
          2    1    3    3  502    0 -0.14988174290E+03 -0.10728993162E+03  0.60061786030E+02  0.19386357167E+03  0.00000000000E+00 0. -1.
         -1    1    3    3    0  502 -0.29664539371E+03 -0.18886600325E+03  0.77246128874E+01  0.35175065947E+03  0.00000000000E+00 0.  1.
         13    1    5    5    0    0  0.10832035059E+03  0.43516560672E+03  0.98229200735E+03  0.10798147949E+04  0.00000000000E+00 0.  1.
        -13    1    5    5    0    0  0.37087481635E+02  0.33021988175E+02  0.90333390750E+02  0.10308275550E+03  0.00000000000E+00 0. -1.
          3    1    6    6  503    0  0.12947043989E+03 -0.38568578469E+02  0.54331716329E+02  0.14560929040E+03  0.00000000000E+00 0. -1.
         -3    1    6    6    0  503  0.17164886449E+03 -0.13346308156E+03  0.22821645207E+01  0.21744179703E+03  0.00000000000E+00 0.  1.
<mgrwt>
<rscale>  0 0.17151574E+04</rscale>
<asrwt>0</asrwt>
<pdfrwt beam="1">  1        2 0.25296835E+00 0.17151574E+04</pdfrwt>
<pdfrwt beam="2">  1       -1 0.68810554E-01 0.17151574E+04</pdfrwt>
<totfact> 0.24373995E+01</totfact>
</mgrwt>
</event>
<event>
12    7  0.1661464E-007  0.2951837E+04  0.7818608E-02  0.8257619E-01
          2   -1    0    0  501    0  0.00000000000E+00  0.00000000000E+00  0.35258188579E+04  0.35258188579E+04  0.00000000000E+00 0. -1.
         -1   -1    0    0    0  501 -0.00000000000E+00 -0.00000000000E+00 -0.61782402088E+03  0.61782402088E+03  0.00000000000E+00 0.  1.
         24    2    1    2    0    0 -0.73392495748E+02  0.86989072062E+03  0.27324809140E+04  0.28695788551E+04  0.77035939557E+02 0.  0.
        254    2    1    2    0    0  0.73392495748E+02 -0.86989072062E+03  0.17551392305E+03  0.12740640237E+04  0.91122866233E+03 0.  0.
         23    2    4    4    0    0  0.40153393963E+03 -0.39360578064E+03  0.34169401627E+03  0.66515081208E+03  0.97548894552E+02 0.  0.
         23    2    4    4    0    0 -0.32814144388E+03 -0.47628493998E+03 -0.16618009322E+03  0.60891321163E+03  0.92926447608E+02 0.  0.
          2    1    3    3  502    0 -0.56229867999E+02  0.80987504270E+03  0.24799022207E+04  0.26094011587E+04  0.00000000000E+00 0. -1.
         -1    1    3    3    0  502 -0.17162627750E+02  0.60015677919E+02  0.25257869328E+03  0.26017769637E+03  0.00000000000E+00 0.  1.
         13    1    5    5    0    0  0.34831124653E+03 -0.28858712627E+03  0.28335999813E+03  0.53375663223E+03  0.00000000000E+00 0. -1.
        -13    1    5    5    0    0  0.53222693096E+02 -0.10501865437E+03  0.58334018140E+02  0.13139417985E+03  0.00000000000E+00 0.  1.
          4    1    6    6  503    0 -0.30831022339E+03 -0.46392673175E+03 -0.14107733438E+03  0.57461815195E+03  0.00000000000E+00 0. -1.
         -4    1    6    6    0  503 -0.19831220486E+02 -0.12358208237E+02 -0.25102758836E+02  0.34295059673E+02  0.00000000000E+00 0.  1.
<mgrwt>
<rscale>  0 0.29518371E+04</rscale>
<asrwt>0</asrwt>
<pdfrwt beam="1">  1        2 0.54243366E+00 0.29518371E+04</pdfrwt>
<pdfrwt beam="2">  1       -1 0.95049851E-01 0.29518371E+04</pdfrwt>
<totfact> 0.81368619E-01</totfact>
</mgrwt>
</event>
<event>
12    7  0.1661464E-007  0.1707888E+04  0.7818608E-02  0.8756878E-01
          2   -1    0    0  501    0  0.00000000000E+00  0.00000000000E+00  0.21574936499E+04  0.21574936499E+04  0.00000000000E+00 0. -1.
         -1   -1    0    0    0  501 -0.00000000000E+00 -0.00000000000E+00 -0.33799435011E+03  0.33799435011E+03  0.00000000000E+00 0.  1.
         24    2    1    2    0    0 -0.41660816607E+03 -0.12847652946E+01  0.12959050983E+04  0.13635561177E+04  0.79694714489E+02 0.  0.
        254    2    1    2    0    0  0.41660816607E+03  0.12847652946E+01  0.52359420151E+03  0.11319318824E+04  0.91299226933E+03 0.  0.
         23    2    4    4    0    0  0.49229617430E+03 -0.31324366237E+03  0.11306926673E+03  0.60137812760E+03  0.91618109702E+02 0.  0.
         23    2    4    4    0    0 -0.75688008235E+02  0.31452842766E+03  0.41052493478E+03  0.53055375479E+03  0.91103008977E+02 0.  0.
          4    1    3    3  502    0 -0.18846383646E+02  0.88363684215E+01  0.12927245459E+03  0.13093752364E+03  0.00000000000E+00 0. -1.
         -3    1    3    3    0  502 -0.39776178242E+03 -0.10121133716E+02  0.11666326437E+04  0.12326185940E+04  0.00000000000E+00 0.  1.
         13    1    5    5    0    0  0.17070136890E+03 -0.14111943603E+03  0.78512034491E+02  0.23498466360E+03  0.00000000000E+00 0. -1.
        -13    1    5    5    0    0  0.32159480541E+03 -0.17212422634E+03  0.34557232235E+02  0.36639346399E+03  0.00000000000E+00 0.  1.
          3    1    6    6  503    0 -0.68957913043E+02  0.18172182404E+03  0.18266174644E+03  0.26672706784E+03  0.00000000000E+00 0. -1.
         -3    1    6    6    0  503 -0.67300951920E+01  0.13280660362E+03  0.22786318834E+03  0.26382668695E+03  0.00000000000E+00 0.  1.
<mgrwt>
<rscale>  0 0.17078884E+04</rscale>
<asrwt>0</asrwt>
<pdfrwt beam="1">  1        2 0.33192209E+00 0.17078884E+04</pdfrwt>
<pdfrwt beam="2">  1       -1 0.51999132E-01 0.17078884E+04</pdfrwt>
<totfact> 0.22010909E+01</totfact>
</mgrwt>
</event>
<event>
12    7  0.1661464E-007  0.2432507E+04  0.7818608E-02  0.8427433E-01
          2   -1    0    0  501    0  0.00000000000E+00  0.00000000000E+00  0.30571627389E+04  0.30571627389E+04  0.00000000000E+00 0. -1.
         -1   -1    0    0    0  501 -0.00000000000E+00 -0.00000000000E+00 -0.48387103245E+03  0.48387103245E+03  0.00000000000E+00 0.  1.
         24    2    1    2    0    0  0.10838131346E+02  0.79432892883E+03  0.11877637646E+03  0.80702726612E+03  0.78161808987E+02 0.  0.
        254    2    1    2    0    0 -0.10838131346E+02 -0.79432892883E+03  0.24545153300E+04  0.27340065052E+04  0.90502494615E+03 0.  0.
         23    2    4    4    0    0  0.59155816960E+02 -0.68427333701E+03  0.24783889397E+04  0.25730232060E+04  0.79418334362E+02 0.  0.
         23    2    4    4    0    0 -0.69993948305E+02 -0.11005559183E+03 -0.23873609708E+02  0.16098329921E+03  0.91292317816E+02 0.  0.
          4    1    3    3  502    0 -0.80393512495E+01  0.53956367289E+03  0.11392055297E+03  0.55151743459E+03  0.00000000000E+00 0. -1.
         -3    1    3    3    0  502  0.18877482595E+02  0.25476525595E+03  0.48558234863E+01  0.25550983153E+03  0.00000000000E+00 0.  1.
         13    1    5    5    0    0  0.52948973159E+02 -0.66889152080E+03  0.23619134235E+04  0.24553725746E+04  0.00000000000E+00 0. -1.
        -13    1    5    5    0    0  0.62068438004E+01 -0.15381816202E+02  0.11647551622E+03  0.11765063135E+03  0.00000000000E+00 0.  1.
          2    1    6    6  503    0 -0.19658900750E+02 -0.44771568759E+02 -0.54336986293E+02  0.73099068580E+02  0.00000000000E+00 0. -1.
         -2    1    6    6    0  503 -0.50335047556E+02 -0.65284023070E+02  0.30463376585E+02  0.87884230631E+02  0.00000000000E+00 0.  1.
<mgrwt>
<rscale>  0 0.24325069E+04</rscale>
<asrwt>0</asrwt>
<pdfrwt beam="1">  1        2 0.47033272E+00 0.24325069E+04</pdfrwt>
<pdfrwt beam="2">  1       -1 0.74441699E-01 0.24325069E+04</pdfrwt>
<totfact> 0.29698890E+00</totfact>
</mgrwt>
</event>
<event>
12    7  0.1661464E-007  0.1712594E+04  0.7818608E-02  0.8754214E-01
         -1   -1    0    0    0  501 -0.00000000000E+00  0.00000000000E+00  0.14271661398E+04  0.14271661398E+04  0.00000000000E+00 0.  1.
          2   -1    0    0  501    0  0.00000000000E+00 -0.00000000000E+00 -0.51377629204E+03  0.51377629204E+03  0.00000000000E+00 0. -1.
         24    2    1    2    0    0  0.13756247037E+03 -0.46666866137E+03  0.76860910149E+03  0.91314710664E+03  0.79841184410E+02 0.  0.
        254    2    1    2    0    0 -0.13756247037E+03  0.46666866137E+03  0.14478074623E+03  0.10277953252E+04  0.89369944231E+03 0.  0.
         23    2    4    4    0    0 -0.34163774450E+03  0.59532146982E+03 -0.64744047475E+02  0.69566769315E+03  0.92939478769E+02 0.  0.
         23    2    4    4    0    0  0.20407527413E+03 -0.12865280846E+03  0.20952479371E+03  0.33212763201E+03  0.90608289520E+02 0.  0.
          4    1    3    3  502    0  0.62509198170E+02 -0.23250826733E+03  0.30720371687E+03  0.39030964361E+03  0.00000000000E+00 0. -1.
         -3    1    3    3    0  502  0.75053272199E+02 -0.23416039403E+03  0.46140538461E+03  0.52283746303E+03  0.00000000000E+00 0.  1.
         13    1    5    5    0    0 -0.10411939755E+03  0.19509018936E+03 -0.64191917982E+02  0.23026426832E+03  0.00000000000E+00 0.  1.
        -13    1    5    5    0    0 -0.23751834695E+03  0.40023128046E+03 -0.55212949209E+00  0.46540342483E+03  0.00000000000E+00 0. -1.
          2    1    6    6  503    0  0.14351994646E+03 -0.68548706336E+02  0.82675214392E+02  0.17925426424E+03  0.00000000000E+00 0. -1.
         -2    1    6    6    0  503  0.60555327668E+02 -0.60104102119E+02  0.12684957931E+03  0.15287336777E+03  0.00000000000E+00 0.  1.
<mgrwt>
<rscale>  0 0.17125935E+04</rscale>
<asrwt>0</asrwt>
<pdfrwt beam="1">  1        2 0.79042507E-01 0.17125935E+04</pdfrwt>
<pdfrwt beam="2">  1       -1 0.21956402E+00 0.17125935E+04</pdfrwt>
<totfact> 0.71796744E+00</totfact>
</mgrwt>
</event>
<event>
12    7  0.1661464E-007  0.1854119E+04  0.7818608E-02  0.8678037E-01
          2   -1    0    0  501    0  0.00000000000E+00  0.00000000000E+00  0.18389821718E+04  0.18389821718E+04  0.00000000000E+00 0. -1.
         -1   -1    0    0    0  501 -0.00000000000E+00 -0.00000000000E+00 -0.46734528673E+03  0.46734528673E+03  0.00000000000E+00 0.  1.
         24    2    1    2    0    0 -0.39415063611E+02  0.27403631851E+03 -0.28173364012E+03  0.40317827247E+03  0.80804853290E+02 0.  0.
        254    2    1    2    0    0  0.39415063611E+02 -0.27403631851E+03  0.16533705252E+04  0.19031491861E+04  0.90094021985E+03 0.  0.
         23    2    4    4    0    0 -0.20035473825E+03 -0.52487514636E+03  0.85135005152E+03  0.10241231836E+04  0.91626658590E+02 0.  0.
         23    2    4    4    0    0  0.23976980186E+03  0.25083882785E+03  0.80202047370E+03  0.87902600248E+03  0.95079952490E+02 0.  0.
          4    1    3    3  502    0 -0.96541993782E+01  0.72017157567E+01  0.23752434528E+01  0.12276402443E+02  0.00000000000E+00 0. -1.
         -3    1    3    3    0  502 -0.29760864233E+02  0.26683460275E+03 -0.28410888357E+03  0.39090187003E+03  0.00000000000E+00 0.  1.
         13    1    5    5    0    0 -0.18158906123E+03 -0.47563363788E+03  0.81179068668E+03  0.95823069436E+03  0.00000000000E+00 0.  1.
        -13    1    5    5    0    0 -0.18765677019E+02 -0.49241508486E+02  0.39559364841E+02  0.65892489242E+02  0.00000000000E+00 0. -1.
          3    1    6    6  503    0  0.94965380157E+02  0.15903417266E+03  0.47382808662E+03  0.50874683997E+03  0.00000000000E+00 0. -1.
         -3    1    6    6    0  503  0.14480442170E+03  0.91804655194E+02  0.32819238708E+03  0.37027916252E+03  0.00000000000E+00 0.  1.
<mgrwt>
<rscale>  0 0.18541194E+04</rscale>
<asrwt>0</asrwt>
<pdfrwt beam="1">  1        2 0.28292033E+00 0.18541194E+04</pdfrwt>
<pdfrwt beam="2">  1       -1 0.71899276E-01 0.18541194E+04</pdfrwt>
<totfact> 0.17156805E+01</totfact>
</mgrwt>
</event>
<event>
12    7  0.1661464E-007  0.1089532E+04  0.7818608E-02  0.9215455E-01
          2   -1    0    0  501    0  0.00000000000E+00  0.00000000000E+00  0.27315084513E+04  0.27315084513E+04  0.00000000000E+00 0. -1.
         -1   -1    0    0    0  501 -0.00000000000E+00 -0.00000000000E+00 -0.10864697765E+03  0.10864697765E+03  0.00000000000E+00 0.  1.
         24    2    1    2    0    0 -0.37560193374E+02 -0.12397444659E+03  0.58860503234E+03  0.60800374756E+03  0.80201255739E+02 0.  0.
        254    2    1    2    0    0  0.37560193374E+02  0.12397444659E+03  0.20342564414E+04  0.22321516814E+04  0.90968204783E+03 0.  0.
         23    2    4    4    0    0 -0.55695259527E+02  0.41161042136E+03  0.17708478429E+04  0.18209647774E+04  0.86518998365E+02 0.  0.
         23    2    4    4    0    0  0.93255452902E+02 -0.28763597477E+03  0.26340859848E+03  0.41118690400E+03  0.90882048784E+02 0.  0.
          2    1    3    3  502    0 -0.17141625141E+02 -0.99792487329E+02  0.54380903346E+03  0.55315516875E+03  0.00000000000E+00 0. -1.
         -1    1    3    3    0  502 -0.20418568234E+02 -0.24181959261E+02  0.44795998876E+02  0.54848578812E+02  0.00000000000E+00 0.  1.
         13    1    5    5    0    0 -0.40179436213E+02  0.39810386387E+03  0.16180977859E+04  0.16668357802E+04  0.00000000000E+00 0. -1.
        -13    1    5    5    0    0 -0.15515823315E+02  0.13506557495E+02  0.15275005700E+03  0.15412899721E+03  0.00000000000E+00 0.  1.
          3    1    6    6  503    0  0.10023512011E+03 -0.20612036925E+03  0.16092925253E+03  0.28005519142E+03  0.00000000000E+00 0. -1.
         -3    1    6    6    0  503 -0.69796672039E+01 -0.81515605520E+02  0.10247934595E+03  0.13113171258E+03  0.00000000000E+00 0.  1.
<mgrwt>
<rscale>  0 0.10895323E+04</rscale>
<asrwt>0</asrwt>
<pdfrwt beam="1">  1        2 0.42023202E+00 0.10895323E+04</pdfrwt>
<pdfrwt beam="2">  1       -1 0.16714922E-01 0.10895323E+04</pdfrwt>
<totfact> 0.80366443E+01</totfact>
</mgrwt>
</event>
<event>
12    7  0.1661464E-007  0.1935743E+04  0.7818608E-02  0.8637267E-01
          2   -1    0    0  501    0  0.00000000000E+00  0.00000000000E+00  0.17598583067E+04  0.17598583067E+04  0.00000000000E+00 0. -1.
         -1   -1    0    0    0  501 -0.00000000000E+00 -0.00000000000E+00 -0.53230154288E+03  0.53230154288E+03  0.00000000000E+00 0.  1.
         24    2    1    2    0    0 -0.57570780571E+03  0.47509898569E+03  0.33392115177E+03  0.82167748521E+03  0.80573136568E+02 0.  0.
        254    2    1    2    0    0  0.57570780571E+03 -0.47509898569E+03  0.89363561202E+03  0.14704823643E+04  0.89809534738E+03 0.  0.
         23    2    4    4    0    0  0.37828256755E+03 -0.33848215197E+03  0.10497912256E+04  0.11697836290E+04  0.93081969691E+02 0.  0.
         23    2    4    4    0    0  0.19742523817E+03 -0.13661683373E+03 -0.15615561360E+03  0.30069873537E+03  0.91620248157E+02 0.  0.
          2    1    3    3  502    0 -0.49420841113E+03  0.37040287057E+03  0.26351727640E+03  0.67147717394E+03  0.00000000000E+00 0. -1.
         -1    1    3    3    0  502 -0.81499394585E+02  0.10469611513E+03  0.70403875363E+02  0.15020031127E+03  0.00000000000E+00 0.  1.
         13    1    5    5    0    0  0.68091257623E+02 -0.89644876775E+02  0.16510231981E+03  0.19982842466E+03  0.00000000000E+00 0.  1.
        -13    1    5    5    0    0  0.31019130993E+03 -0.24883727519E+03  0.88468890581E+03  0.96995520430E+03  0.00000000000E+00 0. -1.
          1    1    6    6  503    0  0.94563063342E+02 -0.68740740035E+02 -0.12977458580E+03  0.17466798622E+03  0.00000000000E+00 0. -1.
         -1    1    6    6    0  503  0.10286217482E+03 -0.67876093692E+02 -0.26381027798E+02  0.12603074915E+03  0.00000000000E+00 0.  1.
<mgrwt>
<rscale>  0 0.19357431E+04</rscale>
<asrwt>0</asrwt>
<pdfrwt beam="1">  1        2 0.27074743E+00 0.19357431E+04</pdfrwt>
<pdfrwt beam="2">  1       -1 0.81892546E-01 0.19357431E+04</pdfrwt>
<totfact> 0.14334037E+01</totfact>
</mgrwt>
</event>
<event>
12    7  0.1661464E-007  0.2081634E+04  0.7818608E-02  0.8569377E-01
          2   -1    0    0  501    0  0.00000000000E+00  0.00000000000E+00  0.74132504868E+03  0.74132504868E+03  0.00000000000E+00 0. -1.
         -1   -1    0    0    0  501 -0.00000000000E+00 -0.00000000000E+00 -0.14613023367E+04  0.14613023367E+04  0.00000000000E+00 0.  1.
         24    2    1    2    0    0 -0.27585792731E+03 -0.24697583911E+03  0.50534233398E+03  0.63135370231E+03  0.78370668981E+02 0.  0.
        254    2    1    2    0    0  0.27585792731E+03  0.24697583911E+03 -0.12253196220E+04  0.15712736830E+04  0.91126184485E+03 0.  0.
         23    2    4    4    0    0  0.57695577864E+03  0.14216740465E+03 -0.53224810260E+03  0.80259068451E+03  0.88171552618E+02 0.  0.
         23    2    4    4    0    0 -0.30109785133E+03  0.10480843446E+03 -0.69307151936E+03  0.76868299853E+03  0.94237451459E+02 0.  0.
          4    1    3    3  502    0 -0.15610174640E+03 -0.16161664950E+03  0.24566882203E+03  0.33292771999E+03  0.00000000000E+00 0. -1.
         -3    1    3    3    0  502 -0.11975618091E+03 -0.85359189610E+02  0.25967351195E+03  0.29842598232E+03  0.00000000000E+00 0.  1.
         13    1    5    5    0    0  0.46199299812E+03  0.11683375899E+03 -0.37629603497E+03  0.60719549034E+03  0.00000000000E+00 0. -1.
        -13    1    5    5    0    0  0.11496278052E+03  0.25333645655E+02 -0.15595206764E+03  0.19539519417E+03  0.00000000000E+00 0.  1.
          2    1    6    6  503    0 -0.24375322752E+03  0.51857074724E+02 -0.58016154453E+03  0.63142078671E+03  0.00000000000E+00 0. -1.
         -2    1    6    6    0  503 -0.57344623810E+02  0.52951359737E+02 -0.11290997483E+03  0.13726221182E+03  0.00000000000E+00 0.  1.
<mgrwt>
<rscale>  0 0.20816340E+04</rscale>
<asrwt>0</asrwt>
<pdfrwt beam="1">  1        2 0.11405001E+00 0.20816340E+04</pdfrwt>
<pdfrwt beam="2">  1       -1 0.22481574E+00 0.20816340E+04</pdfrwt>
<totfact> 0.40974448E+00</totfact>
</mgrwt>
</event>
<event>
12    7  0.1661464E-007  0.1586045E+04  0.7818608E-02  0.8829167E-01
         -1   -1    0    0    0  501 -0.00000000000E+00  0.00000000000E+00  0.17585703889E+03  0.17585703889E+03  0.00000000000E+00 0.  1.
          2   -1    0    0  501    0  0.00000000000E+00 -0.00000000000E+00 -0.35761136280E+04  0.35761136280E+04  0.00000000000E+00 0. -1.
         24    2    1    2    0    0 -0.51493588055E+03  0.90428348197E+02 -0.97032006136E+03  0.11052154999E+04  0.81510934673E+02 0.  0.
        254    2    1    2    0    0  0.51493588055E+03 -0.90428348197E+02 -0.24299365278E+04  0.26467551670E+04  0.90960713383E+03 0.  0.
         23    2    4    4    0    0  0.17829836217E+03 -0.11974402759E+03 -0.22332742051E+04  0.22454106229E+04  0.90698688094E+02 0.  0.
         23    2    4    4    0    0  0.33663751838E+03  0.29315679393E+02 -0.19666232269E+03  0.40134454417E+03  0.90648475614E+02 0.  0.
          4    1    3    3  502    0 -0.29680835351E+03  0.66308798093E+02 -0.64077415486E+03  0.70928384512E+03  0.00000000000E+00 0. -1.
         -3    1    3    3    0  502 -0.21812752705E+03  0.24119550104E+02 -0.32954590651E+03  0.39593165477E+03  0.00000000000E+00 0.  1.
         13    1    5    5    0    0  0.12021963675E+03 -0.26231946231E+02 -0.11908255958E+04  0.11971660184E+04  0.00000000000E+00 0.  1.
        -13    1    5    5    0    0  0.58078725424E+02 -0.93512081358E+02 -0.10424486093E+04  0.10482446045E+04  0.00000000000E+00 0. -1.
          4    1    6    6  503    0  0.23605236690E+03  0.67829914795E+01 -0.17999907864E+03  0.29692826946E+03  0.00000000000E+00 0. -1.
         -4    1    6    6    0  503  0.10058515148E+03  0.22532687913E+02 -0.16663244055E+02  0.10441627472E+03  0.00000000000E+00 0.  1.
<mgrwt>
<rscale>  0 0.15860451E+04</rscale>
<asrwt>0</asrwt>
<pdfrwt beam="1">  1        2 0.55017134E+00 0.15860451E+04</pdfrwt>
<pdfrwt beam="2">  1       -1 0.27054928E-01 0.15860451E+04</pdfrwt>
<totfact> 0.97223909E+00</totfact>
</mgrwt>
</event>
<event>
12    7  0.1661464E-007  0.1288981E+04  0.7818608E-02  0.9038350E-01
         -1   -1    0    0    0  501 -0.00000000000E+00  0.00000000000E+00  0.38182150125E+03  0.38182150125E+03  0.00000000000E+00 0.  1.
          2   -1    0    0  501    0  0.00000000000E+00 -0.00000000000E+00 -0.10878585359E+04  0.10878585359E+04  0.00000000000E+00 0. -1.
         24    2    1    2    0    0 -0.21667921929E+03 -0.10701177075E+03 -0.46371346021E+03  0.52863011655E+03  0.77577211796E+02 0.  0.
        254    2    1    2    0    0  0.21667921929E+03  0.10701177075E+03 -0.24232357443E+03  0.94104992058E+03  0.87661441647E+03 0.  0.
         23    2    4    4    0    0  0.33281200095E+03 -0.13336504620E+03 -0.45556486711E+03  0.58741970273E+03  0.94723257360E+02 0.  0.
         23    2    4    4    0    0 -0.11613278166E+03  0.24037681695E+03  0.21324129268E+03  0.35363021785E+03  0.91184675083E+02 0.  0.
          2    1    3    3  502    0 -0.76378734484E+02 -0.52827784145E+02 -0.25490794640E+03  0.27129789346E+03  0.00000000000E+00 0. -1.
         -1    1    3    3    0  502 -0.14030048480E+03 -0.54183986605E+02 -0.20880551382E+03  0.25733222309E+03  0.00000000000E+00 0.  1.
         13    1    5    5    0    0  0.26587416687E+03 -0.13233845839E+03 -0.41070136367E+03  0.50683148117E+03  0.00000000000E+00 0. -1.
        -13    1    5    5    0    0  0.66937834082E+02 -0.10265878074E+01 -0.44863503437E+02  0.80588221564E+02  0.00000000000E+00 0.  1.
          1    1    6    6  503    0 -0.91643195917E+02  0.19998912415E+03  0.12366247046E+03  0.25236190627E+03  0.00000000000E+00 0. -1.
         -1    1    6    6    0  503 -0.24489585747E+02  0.40387692797E+02  0.89578822225E+02  0.10126831158E+03  0.00000000000E+00 0.  1.
<mgrwt>
<rscale>  0 0.12889807E+04</rscale>
<asrwt>0</asrwt>
<pdfrwt beam="1">  1        2 0.16736285E+00 0.12889807E+04</pdfrwt>
<pdfrwt beam="2">  1       -1 0.58741770E-01 0.12889807E+04</pdfrwt>
<totfact> 0.72831406E+01</totfact>
</mgrwt>
</event>
<event>
12    7  0.1661464E-007  0.1896739E+04  0.7818608E-02  0.8656481E-01
         -1   -1    0    0    0  501 -0.00000000000E+00  0.00000000000E+00  0.34299977881E+03  0.34299977881E+03  0.00000000000E+00 0.  1.
          2   -1    0    0  501    0  0.00000000000E+00 -0.00000000000E+00 -0.26221735384E+04  0.26221735384E+04  0.00000000000E+00 0. -1.
         24    2    1    2    0    0 -0.17865008842E+02 -0.57191230859E+03 -0.15058072061E+03  0.59701269755E+03  0.79666557363E+02 0.  0.
        254    2    1    2    0    0  0.17865008842E+02  0.57191230859E+03 -0.21285930390E+04  0.23681606197E+04  0.86595239340E+03 0.  0.
         23    2    4    4    0    0 -0.13927648202E+03 -0.68563449943E+02 -0.12670397906E+04  0.12796315829E+04  0.89265177923E+02 0.  0.
         23    2    4    4    0    0  0.15714149086E+03  0.64047575853E+03 -0.86155324841E+03  0.10885290367E+04  0.87856807161E+02 0.  0.
          2    1    3    3  502    0 -0.42759098410E+01 -0.71198182200E+02 -0.47278551178E+02  0.85572927699E+02  0.00000000000E+00 0. -1.
         -1    1    3    3    0  502 -0.13589099001E+02 -0.50071412639E+03 -0.10330216943E+03  0.51143976985E+03  0.00000000000E+00 0.  1.
         13    1    5    5    0    0 -0.72236771631E+02  0.13085741950E+02 -0.52774475392E+03  0.53282634423E+03  0.00000000000E+00 0. -1.
        -13    1    5    5    0    0 -0.67039710389E+02 -0.81649191893E+02 -0.73929503668E+03  0.74680523871E+03  0.00000000000E+00 0.  1.
          3    1    6    6  503    0  0.58858138641E+02  0.32702903341E+03 -0.49655046662E+03  0.59747354341E+03  0.00000000000E+00 0.  1.
         -3    1    6    6    0  503  0.98283352222E+02  0.31344672512E+03 -0.36500278179E+03  0.49105549333E+03  0.00000000000E+00 0. -1.
<mgrwt>
<rscale>  0 0.18967392E+04</rscale>
<asrwt>0</asrwt>
<pdfrwt beam="1">  1        2 0.40341133E+00 0.18967392E+04</pdfrwt>
<pdfrwt beam="2">  1       -1 0.52769194E-01 0.18967392E+04</pdfrwt>
<totfact> 0.11415106E+01</totfact>
</mgrwt>
</event>
<event>
12    7  0.1661464E-007  0.1927389E+04  0.7818608E-02  0.8641342E-01
         -1   -1    0    0    0  501 -0.00000000000E+00  0.00000000000E+00  0.70672972117E+03  0.70672972117E+03  0.00000000000E+00 0.  1.
          2   -1    0    0  501    0  0.00000000000E+00 -0.00000000000E+00 -0.13140904422E+04  0.13140904422E+04  0.00000000000E+00 0. -1.
         24    2    1    2    0    0  0.24967227823E+02 -0.52657173504E+03 -0.79110608503E+03  0.95395817868E+03  0.79285649893E+02 0.  0.
        254    2    1    2    0    0 -0.24967227823E+02  0.52657173504E+03  0.18374536402E+03  0.10668619847E+04  0.90913749286E+03 0.  0.
         23    2    4    4    0    0 -0.10894777528E+03  0.21728815644E+03 -0.35210963949E+03  0.43636104427E+03  0.85708821378E+02 0.  0.
         23    2    4    4    0    0  0.83980547455E+02  0.30928357860E+03  0.53585500351E+03  0.63050094040E+03  0.87645802604E+02 0.  0.
          4    1    3    3  502    0 -0.98147310390E+01 -0.33716625787E+03 -0.55260645969E+03  0.64741896302E+03  0.00000000000E+00 0. -1.
         -3    1    3    3    0  502  0.34781958862E+02 -0.18940547717E+03 -0.23849962535E+03  0.30653921566E+03  0.00000000000E+00 0.  1.
         13    1    5    5    0    0 -0.66914144770E+02  0.10371655050E+03 -0.24651541799E+03  0.27568909468E+03  0.00000000000E+00 0.  1.
        -13    1    5    5    0    0 -0.42033630507E+02  0.11357160594E+03 -0.10559422150E+03  0.16067194959E+03  0.00000000000E+00 0. -1.
          4    1    6    6  503    0 -0.13672962420E+02  0.21294782622E+02  0.67453587622E+02  0.72044459546E+02  0.00000000000E+00 0. -1.
         -4    1    6    6    0  503  0.97653509875E+02  0.28798879598E+03  0.46840141589E+03  0.55845648086E+03  0.00000000000E+00 0.  1.
<mgrwt>
<rscale>  0 0.19273887E+04</rscale>
<asrwt>0</asrwt>
<pdfrwt beam="1">  1        2 0.20216776E+00 0.19273887E+04</pdfrwt>
<pdfrwt beam="2">  1       -1 0.10872765E+00 0.19273887E+04</pdfrwt>
<totfact> 0.13556259E+01</totfact>
</mgrwt>
</event>
<event>
12    7  0.1661464E-007  0.1492427E+04  0.7818608E-02  0.8889505E-01
          2   -1    0    0  501    0  0.00000000000E+00  0.00000000000E+00  0.72398514294E+03  0.72398514294E+03  0.00000000000E+00 0. -1.
         -1   -1    0    0    0  501 -0.00000000000E+00 -0.00000000000E+00 -0.76912421225E+03  0.76912421225E+03  0.00000000000E+00 0.  1.
         24    2    1    2    0    0 -0.36807539039E+03 -0.85119566482E+02  0.27357889962E+03  0.47307315624E+03  0.78917445666E+02 0.  0.
        254    2    1    2    0    0  0.36807539039E+03  0.85119566482E+02 -0.31871796893E+03  0.10200361990E+04  0.89228239355E+03 0.  0.
         23    2    4    4    0    0 -0.27081772592E+03 -0.55190679676E+02 -0.10140453174E+02  0.29113519766E+03  0.90931967620E+02 0.  0.
         23    2    4    4    0    0  0.63889311631E+03  0.14031024616E+03 -0.30857751576E+03  0.72890100129E+03  0.90582598800E+02 0.  0.
          2    1    3    3  502    0 -0.13191740309E+03 -0.56481226857E+02  0.68594938235E+02  0.15905217941E+03  0.00000000000E+00 0. -1.
         -1    1    3    3    0  502 -0.23615798730E+03 -0.28638339625E+02  0.20498396139E+03  0.31402097683E+03  0.00000000000E+00 0.  1.
         13    1    5    5    0    0  0.55319319932E+01 -0.77049849903E+01 -0.49235168633E+01  0.10686911789E+02  0.00000000000E+00 0.  1.
        -13    1    5    5    0    0 -0.27634965791E+03 -0.47485694685E+02 -0.52169363107E+01  0.28044828588E+03  0.00000000000E+00 0. -1.
          3    1    6    6  503    0  0.51473446236E+03  0.10638702060E+03 -0.28547254415E+03  0.59813404715E+03  0.00000000000E+00 0. -1.
         -3    1    6    6    0  503  0.12415865395E+03  0.33923225559E+02 -0.23104971609E+02  0.13076695414E+03  0.00000000000E+00 0.  1.
<mgrwt>
<rscale>  0 0.14924269E+04</rscale>
<asrwt>0</asrwt>
<pdfrwt beam="1">  1        2 0.11138233E+00 0.14924269E+04</pdfrwt>
<pdfrwt beam="2">  1       -1 0.11832680E+00 0.14924269E+04</pdfrwt>
<totfact> 0.27773733E+01</totfact>
</mgrwt>
</event>
<event>
12    7  0.1661464E-007  0.1107188E+04  0.7818608E-02  0.9198214E-01
          2   -1    0    0  501    0  0.00000000000E+00  0.00000000000E+00  0.11777312803E+04  0.11777312803E+04  0.00000000000E+00 0. -1.
         -1   -1    0    0    0  501 -0.00000000000E+00 -0.00000000000E+00 -0.26021759512E+03  0.26021759512E+03  0.00000000000E+00 0.  1.
         24    2    1    2    0    0  0.18345412449E+03  0.10963218373E+03  0.78488518739E+02  0.24163390821E+03  0.80943600877E+02 0.  0.
        254    2    1    2    0    0 -0.18345412449E+03 -0.10963218373E+03  0.83902516643E+03  0.11963149672E+04  0.82554929553E+03 0.  0.
         23    2    4    4    0    0 -0.17878646448E+03  0.28902283649E+03  0.66333605503E+03  0.75087729728E+03  0.91121862239E+02 0.  0.
         23    2    4    4    0    0 -0.46676600060E+01 -0.39865502023E+03  0.17568911141E+03  0.44543766993E+03  0.92738566513E+02 0.  0.
          2    1    3    3  502    0  0.12937989178E+03  0.60920960279E+02  0.88491801720E+02  0.16817050506E+03  0.00000000000E+00 0. -1.
         -1    1    3    3    0  502  0.54074232704E+02  0.48711223455E+02 -0.10003282982E+02  0.73463403157E+02  0.00000000000E+00 0.  1.
         13    1    5    5    0    0 -0.84437099464E+02  0.94360804532E+02  0.16807887220E+03  0.21043785894E+03  0.00000000000E+00 0. -1.
        -13    1    5    5    0    0 -0.94349365017E+02  0.19466203196E+03  0.49525718283E+03  0.54043943834E+03  0.00000000000E+00 0.  1.
          3    1    6    6  503    0  0.23695122857E+02 -0.65592544612E+02  0.59118560075E+02  0.91426718749E+02  0.00000000000E+00 0. -1.
         -3    1    6    6    0  503 -0.28362782863E+02 -0.33306247562E+03  0.11657055133E+03  0.35401095118E+03  0.00000000000E+00 0.  1.
<mgrwt>
<rscale>  0 0.11071882E+04</rscale>
<asrwt>0</asrwt>
<pdfrwt beam="1">  1        2 0.18118943E+00 0.11071882E+04</pdfrwt>
<pdfrwt beam="2">  1       -1 0.40033477E-01 0.11071882E+04</pdfrwt>
<totfact> 0.13428487E+02</totfact>
</mgrwt>
</event>
<event>
12    7  0.1661464E-007  0.1815535E+04  0.7818608E-02  0.8698082E-01
         -1   -1    0    0    0  501 -0.00000000000E+00  0.00000000000E+00  0.12772822296E+04  0.12772822296E+04  0.00000000000E+00 0.  1.
          2   -1    0    0  501    0  0.00000000000E+00 -0.00000000000E+00 -0.64515242436E+03  0.64515242436E+03  0.00000000000E+00 0. -1.
         24    2    1    2    0    0  0.66431244516E+03  0.67422635584E+02  0.10983871317E+03  0.68134137218E+03  0.79402052573E+02 0.  0.
        254    2    1    2    0    0 -0.66431244516E+03 -0.67422635584E+02  0.52229109206E+03  0.12410932818E+04  0.90645888633E+03 0.  0.
         23    2    4    4    0    0 -0.44083402684E+03 -0.22457976951E+03 -0.13723274014E+03  0.52105730297E+03  0.88866056046E+02 0.  0.
         23    2    4    4    0    0 -0.22347841832E+03  0.15715713392E+03  0.65952383219E+03  0.72003597880E+03  0.94016792819E+02 0.  0.
          4    1    3    3  502    0  0.48004626352E+03  0.68721559850E+02  0.10913659352E+03  0.49706927480E+03  0.00000000000E+00 0. -1.
         -3    1    3    3    0  502  0.18426618164E+03 -0.12989242668E+01  0.70211964615E+00  0.18427209738E+03  0.00000000000E+00 0.  1.
         13    1    5    5    0    0 -0.42074307918E+03 -0.21376937076E+03 -0.10828200352E+03  0.48419735112E+03  0.00000000000E+00 0.  1.
        -13    1    5    5    0    0 -0.20090947661E+02 -0.10810398752E+02 -0.28950736617E+02  0.36859951842E+02  0.00000000000E+00 0. -1.
          4    1    6    6  503    0 -0.66917122556E+02  0.11142155937E+02  0.98930271823E+02  0.11995519002E+03  0.00000000000E+00 0. -1.
         -4    1    6    6    0  503 -0.15656129576E+03  0.14601497799E+03  0.56059356037E+03  0.60008078878E+03  0.00000000000E+00 0.  1.
<mgrwt>
<rscale>  0 0.18155349E+04</rscale>
<asrwt>0</asrwt>
<pdfrwt beam="1">  1        2 0.99254219E-01 0.18155349E+04</pdfrwt>
<pdfrwt beam="2">  1       -1 0.19650496E+00 0.18155349E+04</pdfrwt>
<totfact> 0.77752407E+00</totfact>
</mgrwt>
</event>
<event>
12    7  0.1661464E-007  0.2673953E+04  0.7818608E-02  0.8343506E-01
         -1   -1    0    0    0  501 -0.00000000000E+00  0.00000000000E+00  0.18531435134E+04  0.18531435134E+04  0.00000000000E+00 0.  1.
          2   -1    0    0  501    0  0.00000000000E+00 -0.00000000000E+00 -0.96458036450E+03  0.96458036450E+03  0.00000000000E+00 0. -1.
         24    2    1    2    0    0  0.23365892540E+03  0.11516869640E+04  0.25075797304E+03  0.12043903213E+04  0.81835986176E+02 0.  0.
        254    2    1    2    0    0 -0.23365892540E+03 -0.11516869640E+04  0.63780517587E+03  0.16133335566E+04  0.90281247554E+03 0.  0.
         23    2    4    4    0    0 -0.21133416086E+03 -0.10720586356E+04  0.83523243165E+03  0.13784124477E+04  0.91846695106E+02 0.  0.
         23    2    4    4    0    0 -0.22324764536E+02 -0.79628328363E+02 -0.19742725578E+03  0.23492110886E+03  0.96805683055E+02 0.  0.
          4    1    3    3  502    0  0.21276922851E+03  0.10243092989E+04  0.19698242216E+03  0.10645573535E+04  0.00000000000E+00 0. -1.
         -3    1    3    3    0  502  0.20889696892E+02  0.12737766512E+03  0.53775550874E+02  0.13983296779E+03  0.00000000000E+00 0.  1.
         13    1    5    5    0    0 -0.16460179375E+03 -0.62264828422E+03  0.46701722480E+03  0.79554366606E+03  0.00000000000E+00 0.  1.
        -13    1    5    5    0    0 -0.46732367110E+02 -0.44941035140E+03  0.36821520685E+03  0.58286878166E+03  0.00000000000E+00 0. -1.
          2    1    6    6  503    0 -0.57650919155E+02 -0.28644550814E+02 -0.11460359772E+03  0.13144627565E+03  0.00000000000E+00 0. -1.
         -2    1    6    6    0  503  0.35326154619E+02 -0.50983777549E+02 -0.82823658056E+02  0.10347483321E+03  0.00000000000E+00 0.  1.
<mgrwt>
<rscale>  0 0.26739528E+04</rscale>
<asrwt>0</asrwt>
<pdfrwt beam="1">  1        2 0.14839698E+00 0.26739528E+04</pdfrwt>
<pdfrwt beam="2">  1       -1 0.28509900E+00 0.26739528E+04</pdfrwt>
<totfact> 0.10978969E+00</totfact>
</mgrwt>
</event>
<event>
12    7  0.1661464E-007  0.2123934E+04  0.7818608E-02  0.8550773E-01
         -1   -1    0    0    0  501 -0.00000000000E+00  0.00000000000E+00  0.29056991416E+03  0.29056991416E+03  0.00000000000E+00 0.  1.
          2   -1    0    0  501    0  0.00000000000E+00 -0.00000000000E+00 -0.38812494728E+04  0.38812494728E+04  0.00000000000E+00 0. -1.
         24    2    1    2    0    0 -0.44123214232E+03  0.75080747273E+03 -0.14254992726E+04  0.16724172763E+04  0.80831338686E+02 0.  0.
        254    2    1    2    0    0  0.44123214232E+03 -0.75080747273E+03 -0.21651802859E+04  0.24994021106E+04  0.89476677145E+03 0.  0.
         23    2    4    4    0    0  0.28032057530E+03 -0.25502323285E+03 -0.18323173474E+04  0.18732896083E+04  0.90612474906E+02 0.  0.
         23    2    4    4    0    0  0.16091156703E+03 -0.49578423988E+03 -0.33286293852E+03  0.62611250231E+03  0.97593979287E+02 0.  0.
          4    1    3    3  502    0 -0.43843500479E+03  0.73390440333E+03 -0.13750345910E+04  0.16191235447E+04  0.00000000000E+00 0. -1.
         -3    1    3    3    0  502 -0.27971375368E+01  0.16903069395E+02 -0.50464681676E+02  0.53293731621E+02  0.00000000000E+00 0.  1.
         13    1    5    5    0    0  0.22641474461E+03 -0.22148363527E+03 -0.13415157857E+04  0.13783987959E+04  0.00000000000E+00 0. -1.
        -13    1    5    5    0    0  0.53905830687E+02 -0.33539597576E+02 -0.49080156169E+03  0.49489081235E+03  0.00000000000E+00 0.  1.
          1    1    6    6  503    0  0.13593180122E+02 -0.18748611178E+03 -0.10358924906E+03  0.21463119339E+03  0.00000000000E+00 0. -1.
         -1    1    6    6    0  503  0.14731838690E+03 -0.30829812810E+03 -0.22927368946E+03  0.41148130892E+03  0.00000000000E+00 0.  1.
<mgrwt>
<rscale>  0 0.21239344E+04</rscale>
<asrwt>0</asrwt>
<pdfrwt beam="1">  1        2 0.59711526E+00 0.21239344E+04</pdfrwt>
<pdfrwt beam="2">  1       -1 0.44703067E-01 0.21239344E+04</pdfrwt>
<totfact> 0.22228374E+00</totfact>
</mgrwt>
</event>
<event>
12    7  0.1915793E-007  0.2078359E+04  0.7818608E-02  0.8570837E-01
         -1   -1    0    0    0  501 -0.00000000000E+00  0.00000000000E+00  0.87319984254E+03  0.87319984254E+03  0.00000000000E+00 0.  1.
          2   -1    0    0  501    0  0.00000000000E+00 -0.00000000000E+00 -0.12367083792E+04  0.12367083792E+04  0.00000000000E+00 0. -1.
         24    2    1    2    0    0 -0.72108024826E+03  0.38217167087E+03 -0.37024307128E+03  0.89964762455E+03  0.79208623797E+02 0.  0.
        254    2    1    2    0    0  0.72108024826E+03 -0.38217167087E+03  0.67345346184E+01  0.12102605972E+04  0.89368531861E+03 0.  0.
         23    2    4    4    0    0  0.60075912056E+03  0.79104195722E+01 -0.31278100227E+03  0.68373386140E+03  0.93198402218E+02 0.  0.
         23    2    4    4    0    0  0.12032112771E+03 -0.39008209044E+03  0.31951553689E+03  0.52652673579E+03  0.92190097802E+02 0.  0.
          4    1    3    3  502    0 -0.68556545343E+03  0.37313117840E+03 -0.33701818712E+03  0.85018123108E+03  0.00000000000E+00 0. -1.
         -3    1    3    3    0  502 -0.35514794831E+02  0.90404924738E+01 -0.33224884153E+02  0.49466393471E+02  0.00000000000E+00 0.  1.
         13    1    5    5    0    0  0.55697677975E+03  0.31946288795E+02 -0.29130030841E+03  0.62936441608E+03  0.00000000000E+00 0. -1.
        -13    1    5    5    0    0  0.43782340806E+02 -0.24035869223E+02 -0.21480693863E+02  0.54369445322E+02  0.00000000000E+00 0.  1.
          2    1    6    6  503    0  0.94038291524E+02 -0.36676741105E+03  0.31195517985E+03  0.49058900142E+03  0.00000000000E+00 0. -1.
         -2    1    6    6    0  503  0.26282836183E+02 -0.23314679397E+02  0.75603570370E+01  0.35937734371E+02  0.00000000000E+00 0.  1.
<mgrwt>
<rscale>  0 0.20783585E+04</rscale>
<asrwt>0</asrwt>
<pdfrwt beam="1">  1        2 0.19026283E+00 0.20783585E+04</pdfrwt>
<pdfrwt beam="2">  1       -1 0.13433844E+00 0.20783585E+04</pdfrwt>
<totfact> 0.88428720E+00</totfact>
</mgrwt>
</event>
<event>
12    7  0.1661464E-007  0.1128826E+04  0.7818608E-02  0.9177543E-01
          2   -1    0    0  501    0  0.00000000000E+00  0.00000000000E+00  0.12529739769E+04  0.12529739769E+04  0.00000000000E+00 0. -1.
         -1   -1    0    0    0  501 -0.00000000000E+00 -0.00000000000E+00 -0.25424472554E+03  0.25424472554E+03  0.00000000000E+00 0.  1.
         24    2    1    2    0    0 -0.19856819935E+03  0.18607100083E+02  0.22407845462E+03  0.31039167720E+03  0.79726316124E+02 0.  0.
        254    2    1    2    0    0  0.19856819935E+03 -0.18607100083E+02  0.77465079671E+03  0.11968270252E+04  0.89024463911E+03 0.  0.
         23    2    4    4    0    0 -0.31108244174E+02 -0.29109486278E+03 -0.35142475063E+02  0.30812220737E+03  0.89444726667E+02 0.  0.
         23    2    4    4    0    0  0.22967644352E+03  0.27248776270E+03  0.80979327177E+03  0.88870481783E+03  0.83846649908E+02 0.  0.
          4    1    3    3  502    0 -0.15732639804E+03 -0.17687865213E+02  0.18177713049E+03  0.24105472670E+03  0.00000000000E+00 0. -1.
         -1    1    3    3    0  502 -0.41241801313E+02  0.36294965296E+02  0.42301324134E+02  0.69336950502E+02  0.00000000000E+00 0.  1.
         13    1    5    5    0    0 -0.55431030615E+02 -0.26358288802E+03 -0.29279511309E+02  0.27093509886E+03  0.00000000000E+00 0.  1.
        -13    1    5    5    0    0  0.24322786441E+02 -0.27511974767E+02 -0.58629637546E+01  0.37187108516E+02  0.00000000000E+00 0. -1.
          2    1    6    6  503    0  0.11384129194E+03  0.88884932796E+02  0.39423323131E+03  0.41985737066E+03  0.00000000000E+00 0. -1.
         -2    1    6    6    0  503  0.11583515159E+03  0.18360282991E+03  0.41556004046E+03  0.46884744717E+03  0.00000000000E+00 0.  1.
<mgrwt>
<rscale>  0 0.11288260E+04</rscale>
<asrwt>0</asrwt>
<pdfrwt beam="1">  1        2 0.19276522E+00 0.11288260E+04</pdfrwt>
<pdfrwt beam="2">  1       -1 0.39114574E-01 0.11288260E+04</pdfrwt>
<totfact> 0.12618761E+02</totfact>
</mgrwt>
</event>
<event>
12    7  0.1661464E-007  0.1641505E+04  0.7818608E-02  0.8795448E-01
         -1   -1    0    0    0  501 -0.00000000000E+00  0.00000000000E+00  0.14347618622E+03  0.14347618622E+03  0.00000000000E+00 0.  1.
          2   -1    0    0  501    0  0.00000000000E+00 -0.00000000000E+00 -0.46950961733E+04  0.46950961733E+04  0.00000000000E+00 0. -1.
         24    2    1    2    0    0  0.47262908396E+03  0.32538732743E+03 -0.17388504436E+04  0.18328295506E+04  0.80050811696E+02 0.  0.
        254    2    1    2    0    0 -0.47262908396E+03 -0.32538732743E+03 -0.28127695435E+04  0.30057428089E+04  0.89082106218E+03 0.  0.
         23    2    4    4    0    0 -0.40966169714E+03  0.22698384218E+03 -0.10127764487E+04  0.11195976379E+04  0.91860572951E+02 0.  0.
         23    2    4    4    0    0 -0.62967386824E+02 -0.55237116961E+03 -0.17999930947E+04  0.18861451710E+04  0.92139374922E+02 0.  0.
          4    1    3    3  502    0  0.24643167388E+03  0.16174163751E+03 -0.10174737373E+04  0.10593119150E+04  0.00000000000E+00 0. -1.
         -3    1    3    3    0  502  0.22619741008E+03  0.16364568991E+03 -0.72137670630E+03  0.77351763557E+03  0.00000000000E+00 0.  1.
         13    1    5    5    0    0 -0.37391963232E+03  0.23193116171E+03 -0.95480908609E+03  0.10513174336E+04  0.00000000000E+00 0. -1.
        -13    1    5    5    0    0 -0.35742064813E+02 -0.49473195283E+01 -0.57967362653E+02  0.68280204310E+02  0.00000000000E+00 0.  1.
          2    1    6    6  503    0 -0.83509875826E+02 -0.47816596121E+03 -0.15097631787E+04  0.15858756072E+04  0.00000000000E+00 0. -1.
         -2    1    6    6    0  503  0.20542489003E+02 -0.74205208397E+02 -0.29022991603E+03  0.30026956383E+03  0.00000000000E+00 0.  1.
<mgrwt>
<rscale>  0 0.16415048E+04</rscale>
<asrwt>0</asrwt>
<pdfrwt beam="1">  1        2 0.72232238E+00 0.16415048E+04</pdfrwt>
<pdfrwt beam="2">  1       -1 0.22073263E-01 0.16415048E+04</pdfrwt>
<totfact> 0.15145070E+00</totfact>
</mgrwt>
</event>
<event>
12    7  0.1661464E-007  0.2265284E+04  0.7818608E-02  0.8491736E-01
         -1   -1    0    0    0  501 -0.00000000000E+00  0.00000000000E+00  0.14863426779E+04  0.14863426779E+04  0.00000000000E+00 0.  1.
          2   -1    0    0  501    0  0.00000000000E+00 -0.00000000000E+00 -0.86311042646E+03  0.86311042646E+03  0.00000000000E+00 0. -1.
         24    2    1    2    0    0  0.35101434482E+03  0.53522379835E+03  0.99827977195E+03  0.11886167086E+04  0.81065358620E+02 0.  0.
        254    2    1    2    0    0 -0.35101434482E+03 -0.53522379835E+03 -0.37504752051E+03  0.11608363957E+04  0.89286332124E+03 0.  0.
         23    2    4    4    0    0 -0.67159008678E+02 -0.72544835420E+03 -0.32661197613E+03  0.80337341578E+03  0.89150519712E+02 0.  0.
         23    2    4    4    0    0 -0.28385533614E+03  0.19022455585E+03 -0.48435544384E+02  0.35746297995E+03  0.93137245867E+02 0.  0.
          4    1    3    3  502    0  0.12018337266E+03  0.11852057610E+03  0.25787519703E+03  0.30820575476E+03  0.00000000000E+00 0. -1.
         -3    1    3    3    0  502  0.23083097217E+03  0.41670322224E+03  0.74040457492E+03  0.88041095387E+03  0.00000000000E+00 0.  1.
         13    1    5    5    0    0 -0.86444523010E+02 -0.51334266247E+03 -0.21916472374E+03  0.56482432739E+03  0.00000000000E+00 0. -1.
        -13    1    5    5    0    0  0.19285514333E+02 -0.21210569173E+03 -0.10744725239E+03  0.23854908839E+03  0.00000000000E+00 0.  1.
          1    1    6    6  503    0 -0.10284679238E+03  0.86245163098E+02  0.24302658150E+02  0.13640494879E+03  0.00000000000E+00 0. -1.
         -1    1    6    6    0  503 -0.18100854376E+03  0.10397939275E+03 -0.72738202534E+02  0.22105803116E+03  0.00000000000E+00 0.  1.
<mgrwt>
<rscale>  0 0.22652840E+04</rscale>
<asrwt>0</asrwt>
<pdfrwt beam="1">  1        2 0.13278622E+00 0.22652840E+04</pdfrwt>
<pdfrwt beam="2">  1       -1 0.22866810E+00 0.22652840E+04</pdfrwt>
<totfact> 0.31048580E+00</totfact>
</mgrwt>
</event>
<event>
12    7  0.1661464E-007  0.1423212E+04  0.7818608E-02  0.8937186E-01
          2   -1    0    0  501    0  0.00000000000E+00  0.00000000000E+00  0.10007405379E+04  0.10007405379E+04  0.00000000000E+00 0. -1.
         -1   -1    0    0    0  501 -0.00000000000E+00 -0.00000000000E+00 -0.50600830585E+03  0.50600830585E+03  0.00000000000E+00 0.  1.
         24    2    1    2    0    0  0.28635473653E+03 -0.15215774524E+02  0.47951025697E+03  0.56448640249E+03  0.80524885199E+02 0.  0.
        254    2    1    2    0    0 -0.28635473653E+03  0.15215774524E+02  0.15221975096E+02  0.94226244128E+03  0.89743871367E+03 0.  0.
         23    2    4    4    0    0 -0.40198618189E+02  0.40165270746E+03  0.17218462323E+03  0.44823964706E+03  0.91271081959E+02 0.  0.
         23    2    4    4    0    0 -0.24615611834E+03 -0.38643693294E+03 -0.15696264814E+03  0.49402279422E+03  0.97441831672E+02 0.  0.
          4    1    3    3  502    0  0.21894546027E+03  0.30563960375E+01  0.41589149188E+03  0.47001296700E+03  0.00000000000E+00 0. -1.
         -3    1    3    3    0  502  0.67409276256E+02 -0.18272170562E+02  0.63618765085E+02  0.94473435490E+02  0.00000000000E+00 0.  1.
         13    1    5    5    0    0  0.13735743041E+02  0.33196593888E+02  0.38319287470E+02  0.52526681552E+02  0.00000000000E+00 0.  1.
        -13    1    5    5    0    0 -0.53934361230E+02  0.36845611358E+03  0.13386533576E+03  0.39571296551E+03  0.00000000000E+00 0. -1.
          3    1    6    6  503    0 -0.18248395429E+03 -0.30345815669E+03 -0.16180635996E+03  0.38931805064E+03  0.00000000000E+00 0. -1.
         -3    1    6    6    0  503 -0.63672164048E+02 -0.82978776254E+02  0.48437118167E+01  0.10470474358E+03  0.00000000000E+00 0.  1.
<mgrwt>
<rscale>  0 0.14232119E+04</rscale>
<asrwt>0</asrwt>
<pdfrwt beam="1">  1        2 0.15396008E+00 0.14232119E+04</pdfrwt>
<pdfrwt beam="2">  1       -1 0.77847432E-01 0.14232119E+04</pdfrwt>
<totfact> 0.46116773E+01</totfact>
</mgrwt>
</event>
<event>
12    7  0.1661464E-007  0.2250779E+04  0.7818608E-02  0.8497585E-01
          2   -1    0    0  501    0  0.00000000000E+00  0.00000000000E+00  0.43053353322E+03  0.43053353322E+03  0.00000000000E+00 0. -1.
         -1   -1    0    0    0  501 -0.00000000000E+00 -0.00000000000E+00 -0.29417019418E+04  0.29417019418E+04  0.00000000000E+00 0.  1.
         24    2    1    2    0    0 -0.15457821264E+03 -0.85224002981E+02 -0.24527900454E+04  0.24601698618E+04  0.71408594537E+02 0.  0.
        254    2    1    2    0    0  0.15457821264E+03  0.85224002981E+02 -0.58378363141E+02  0.91206561323E+03  0.89291550274E+03 0.  0.
         23    2    4    4    0    0  0.27964680727E+03  0.60228500720E+02 -0.42070171492E+03  0.51744437433E+03  0.94493060450E+02 0.  0.
         23    2    4    4    0    0 -0.12506859463E+03  0.24995502261E+02  0.36232335178E+03  0.39462123890E+03  0.90447677971E+02 0.  0.
          4    1    3    3  502    0 -0.63152144888E+02 -0.35080894415E+02 -0.14898642943E+04  0.14916147217E+04  0.00000000000E+00 0. -1.
         -3    1    3    3    0  502 -0.91426067755E+02 -0.50143108566E+02 -0.96292575112E+03  0.96855514008E+03  0.00000000000E+00 0.  1.
         13    1    5    5    0    0  0.61800842248E+02  0.38813690708E+02 -0.55576901599E+02  0.91731339684E+02  0.00000000000E+00 0. -1.
        -13    1    5    5    0    0  0.21784596502E+03  0.21414810012E+02 -0.36512481332E+03  0.42571303464E+03  0.00000000000E+00 0.  1.
          4    1    6    6  503    0  0.65116838569E+01 -0.14418342615E+02  0.68120383223E+02  0.69933377160E+02  0.00000000000E+00 0. -1.
         -4    1    6    6    0  503 -0.13158027848E+03  0.39413844876E+02  0.29420296856E+03  0.32468786174E+03  0.00000000000E+00 0.  1.
<mgrwt>
<rscale>  0 0.22507788E+04</rscale>
<asrwt>0</asrwt>
<pdfrwt beam="1">  1        2 0.66235929E-01 0.22507788E+04</pdfrwt>
<pdfrwt beam="2">  1       -1 0.45256952E+00 0.22507788E+04</pdfrwt>
<totfact> 0.23614118E-01</totfact>
</mgrwt>
</event>
<event>
12    7  0.1661464E-007  0.1948528E+04  0.7818608E-02  0.8631071E-01
         -1   -1    0    0    0  501 -0.00000000000E+00  0.00000000000E+00  0.69684253017E+03  0.69684253017E+03  0.00000000000E+00 0.  1.
          2   -1    0    0  501    0  0.00000000000E+00 -0.00000000000E+00 -0.13621308020E+04  0.13621308020E+04  0.00000000000E+00 0. -1.
         24    2    1    2    0    0  0.35103883767E+03 -0.56305518878E+03 -0.66183574281E+03  0.94037940843E+03  0.77636783620E+02 0.  0.
        254    2    1    2    0    0 -0.35103883767E+03  0.56305518878E+03 -0.34525290261E+01  0.11185939238E+04  0.90054485459E+03 0.  0.
         23    2    4    4    0    0 -0.88825832315E+02  0.14305191504E+03 -0.42207708449E+03  0.46404491260E+03  0.93993280465E+02 0.  0.
         23    2    4    4    0    0 -0.26221300535E+03  0.42000327374E+03  0.41862455547E+03  0.65454901115E+03  0.89607362580E+02 0.  0.
          4    1    3    3  502    0  0.11866810879E+03 -0.15682214527E+03 -0.24041894078E+03  0.31060678096E+03  0.00000000000E+00 0. -1.
         -3    1    3    3    0  502  0.23237072888E+03 -0.40623304351E+03 -0.42141680203E+03  0.62977262747E+03  0.00000000000E+00 0.  1.
         13    1    5    5    0    0 -0.97679541864E+02  0.11165340308E+03 -0.39400013734E+03  0.42100342462E+03  0.00000000000E+00 0.  1.
        -13    1    5    5    0    0  0.88537095482E+01  0.31398511962E+02 -0.28076947156E+02  0.43041487983E+02  0.00000000000E+00 0. -1.
          4    1    6    6  503    0 -0.89594324335E+00  0.51010260709E+02  0.41442993045E+02  0.65729529775E+02  0.00000000000E+00 0. -1.
         -4    1    6    6    0  503 -0.26131706211E+03  0.36899301303E+03  0.37718156242E+03  0.58881948137E+03  0.00000000000E+00 0.  1.
<mgrwt>
<rscale>  0 0.19485283E+04</rscale>
<asrwt>0</asrwt>
<pdfrwt beam="1">  1        2 0.20955858E+00 0.19485283E+04</pdfrwt>
<pdfrwt beam="2">  1       -1 0.10720654E+00 0.19485283E+04</pdfrwt>
<totfact> 0.13119268E+01</totfact>
</mgrwt>
</event>
<event>
12    7  0.1661464E-007  0.1042559E+04  0.7818608E-02  0.9263060E-01
         -1   -1    0    0    0  501 -0.00000000000E+00  0.00000000000E+00  0.22937402745E+03  0.22937402745E+03  0.00000000000E+00 0.  1.
          2   -1    0    0  501    0  0.00000000000E+00 -0.00000000000E+00 -0.11846699916E+04  0.11846699916E+04  0.00000000000E+00 0. -1.
         24    2    1    2    0    0  0.49724534088E+02 -0.99316533813E+02 -0.15409987588E+03  0.20621506791E+03  0.80259449978E+02 0.  0.
        254    2    1    2    0    0 -0.49724534088E+02  0.99316533813E+02 -0.80119608823E+03  0.12078289511E+04  0.89699459314E+03 0.  0.
         23    2    4    4    0    0  0.26868332445E+03  0.34404602096E+03 -0.60606824565E+03  0.75250056449E+03  0.91542273296E+02 0.  0.
         23    2    4    4    0    0 -0.31840785853E+03 -0.24472948715E+03 -0.19512784258E+03  0.45532838660E+03  0.89291536187E+02 0.  0.
          2    1    3    3  502    0  0.20450027825E+01 -0.46808199744E+02 -0.11729945822E+03  0.12631053993E+03  0.00000000000E+00 0. -1.
         -1    1    3    3    0  502  0.47679531306E+02 -0.52508334069E+02 -0.36800417659E+02  0.79904527982E+02  0.00000000000E+00 0.  1.
         13    1    5    5    0    0  0.12897785359E+02  0.12644950256E+02 -0.29051894042E+01  0.18294473472E+02  0.00000000000E+00 0. -1.
        -13    1    5    5    0    0  0.25578553909E+03  0.33140107071E+03 -0.60316305624E+03  0.73420609102E+03  0.00000000000E+00 0.  1.
          3    1    6    6  503    0 -0.26085668307E+03 -0.17315486452E+03 -0.11532822838E+03  0.33366063069E+03  0.00000000000E+00 0. -1.
         -3    1    6    6    0  503 -0.57551175468E+02 -0.71574622628E+02 -0.79799614203E+02  0.12166775591E+03  0.00000000000E+00 0.  1.
<mgrwt>
<rscale>  0 0.10425594E+04</rscale>
<asrwt>0</asrwt>
<pdfrwt beam="1">  1        2 0.18225692E+00 0.10425594E+04</pdfrwt>
<pdfrwt beam="2">  1       -1 0.35288312E-01 0.10425594E+04</pdfrwt>
<totfact> 0.16776030E+02</totfact>
</mgrwt>
</event>
<event>
12    7  0.1661464E-007  0.1193835E+04  0.7818608E-02  0.9118270E-01
         -1   -1    0    0    0  501 -0.00000000000E+00  0.00000000000E+00  0.75521000850E+03  0.75521000850E+03  0.00000000000E+00 0.  1.
          2   -1    0    0  501    0  0.00000000000E+00 -0.00000000000E+00 -0.47180334699E+03  0.47180334699E+03  0.00000000000E+00 0. -1.
         24    2    1    2    0    0 -0.27324828006E+02 -0.23047586563E+03  0.12046519124E+02  0.24497019722E+03  0.77456491270E+02 0.  0.
        254    2    1    2    0    0  0.27324828006E+02  0.23047586563E+03  0.27136014238E+03  0.98204315828E+03  0.91482603099E+03 0.  0.
         23    2    4    4    0    0  0.18684133468E+03  0.49654921572E+03  0.36037985424E+03  0.64758357054E+03  0.89554639789E+02 0.  0.
         23    2    4    4    0    0 -0.15951650667E+03 -0.26607335010E+03 -0.89019711856E+02  0.33445958774E+03  0.87739177101E+02 0.  0.
          2    1    3    3  502    0 -0.30307162909E+02 -0.23041056796E+03 -0.16941578691E+00  0.23239531547E+03  0.00000000000E+00 0. -1.
         -1    1    3    3    0  502  0.29823349027E+01 -0.65297669120E-01  0.12215934910E+02  0.12574881749E+02  0.00000000000E+00 0.  1.
         13    1    5    5    0    0  0.10240882739E+02  0.11594115911E+03  0.55614503099E+02  0.12899690311E+03  0.00000000000E+00 0.  1.
        -13    1    5    5    0    0  0.17660045194E+03  0.38060805661E+03  0.30476535114E+03  0.51858666743E+03  0.00000000000E+00 0. -1.
          1    1    6    6  503    0 -0.84844406813E+02 -0.61983966687E+02 -0.29146079748E+02  0.10904164094E+03  0.00000000000E+00 0. -1.
         -1    1    6    6    0  503 -0.74672099861E+02 -0.20408938341E+03 -0.59873632108E+02  0.22541794680E+03  0.00000000000E+00 0.  1.
<mgrwt>
<rscale>  0 0.11938352E+04</rscale>
<asrwt>0</asrwt>
<pdfrwt beam="1">  1        2 0.72585130E-01 0.11938352E+04</pdfrwt>
<pdfrwt beam="2">  1       -1 0.11618616E+00 0.11938352E+04</pdfrwt>
<totfact> 0.49825182E+01</totfact>
</mgrwt>
</event>
<event>
12    7  0.1661464E-007  0.1440741E+04  0.7818608E-02  0.8924845E-01
          2   -1    0    0  501    0  0.00000000000E+00  0.00000000000E+00  0.17787611994E+04  0.17787611994E+04  0.00000000000E+00 0. -1.
         -3   -1    0    0    0  501 -0.00000000000E+00 -0.00000000000E+00 -0.29173878473E+03  0.29173878473E+03  0.00000000000E+00 0.  1.
         24    2    1    2    0    0 -0.28381015527E+03  0.27815864380E+01 -0.13895998399E+02  0.29965620173E+03  0.95104148224E+02 0.  0.
        254    2    1    2    0    0  0.28381015527E+03 -0.27815864380E+01  0.15009184131E+04  0.17708437824E+04  0.89586588146E+03 0.  0.
         23    2    4    4    0    0 -0.27923407068E+03  0.14727999496E+03  0.72741361017E+03  0.79816648798E+03  0.90973178082E+02 0.  0.
         23    2    4    4    0    0  0.56304422595E+03 -0.15006158140E+03  0.77350480293E+03  0.97267729445E+03  0.90852410001E+02 0.  0.
          2    1    3    3  502    0 -0.21055246027E+02  0.10968579426E+02 -0.27613424004E+02  0.36416126993E+02  0.00000000000E+00 0. -1.
         -1    1    3    3    0  502 -0.26275490924E+03 -0.81869929883E+01  0.13717425605E+02  0.26324007474E+03  0.00000000000E+00 0.  1.
         13    1    5    5    0    0 -0.13947129665E+03  0.83977649823E+02  0.26552253912E+03  0.31145899736E+03  0.00000000000E+00 0.  1.
        -13    1    5    5    0    0 -0.13976277403E+03  0.63302345135E+02  0.46189107106E+03  0.48670749062E+03  0.00000000000E+00 0. -1.
          2    1    6    6  503    0  0.64988212923E+02 -0.15088380359E+02  0.47200328932E+02  0.81725137455E+02  0.00000000000E+00 0. -1.
         -2    1    6    6    0  503  0.49805601303E+03 -0.13497320104E+03  0.72630447400E+03  0.89095215700E+03  0.00000000000E+00 0.  1.
<mgrwt>
<rscale>  0 0.14407410E+04</rscale>
<asrwt>0</asrwt>
<pdfrwt beam="1">  1        2 0.27365556E+00 0.14407410E+04</pdfrwt>
<pdfrwt beam="2">  1       -3 0.44882891E-01 0.14407410E+04</pdfrwt>
<totfact> 0.27307992E+01</totfact>
</mgrwt>
</event>
<event>
12    7  0.1661464E-007  0.1681103E+04  0.7818608E-02  0.8772216E-01
         -1   -1    0    0    0  501 -0.00000000000E+00  0.00000000000E+00  0.11312155509E+04  0.11312155509E+04  0.00000000000E+00 0.  1.
          2   -1    0    0  501    0  0.00000000000E+00 -0.00000000000E+00 -0.62457298740E+03  0.62457298740E+03  0.00000000000E+00 0. -1.
         24    2    1    2    0    0  0.47451034099E+03 -0.12424776828E+03  0.43341093415E+03  0.65921260902E+03  0.78221828352E+02 0.  0.
        254    2    1    2    0    0 -0.47451034099E+03  0.12424776828E+03  0.73231629369E+02  0.10965759293E+04  0.97801754868E+03 0.  0.
         23    2    4    4    0    0 -0.23544633291E+03  0.48824024171E+03  0.26794342923E+03  0.61107450157E+03  0.88345095495E+02 0.  0.
         23    2    4    4    0    0 -0.23906400808E+03 -0.36399247343E+03 -0.19471179986E+03  0.48550142772E+03  0.90315173942E+02 0.  0.
          4    1    3    3  502    0  0.38938781260E+02 -0.11078512005E+02  0.10904466479E+02  0.41926954378E+02  0.00000000000E+00 0. -1.
         -3    1    3    3    0  502  0.43557155973E+03 -0.11316925628E+03  0.42250646767E+03  0.61728565465E+03  0.00000000000E+00 0.  1.
         13    1    5    5    0    0 -0.42452506065E+02  0.59497380126E+02  0.72178781705E+01  0.73445566771E+02  0.00000000000E+00 0.  1.
        -13    1    5    5    0    0 -0.19299382684E+03  0.42874286158E+03  0.26072555106E+03  0.53762893480E+03  0.00000000000E+00 0. -1.
          1    1    6    6  503    0 -0.14531729061E+03 -0.17029804805E+03 -0.60546989298E+02  0.23191480770E+03  0.00000000000E+00 0.  1.
         -1    1    6    6    0  503 -0.93746717472E+02 -0.19369442537E+03 -0.13416481056E+03  0.25358662002E+03  0.00000000000E+00 0. -1.
<mgrwt>
<rscale>  0 0.16811028E+04</rscale>
<asrwt>0</asrwt>
<pdfrwt beam="1">  1        2 0.96088152E-01 0.16811028E+04</pdfrwt>
<pdfrwt beam="2">  1       -1 0.17403316E+00 0.16811028E+04</pdfrwt>
<totfact> 0.11818052E+01</totfact>
</mgrwt>
</event>
<event>
12    7  0.1661464E-007  0.2375100E+04  0.7818608E-02  0.8448885E-01
         -1   -1    0    0    0  501 -0.00000000000E+00  0.00000000000E+00  0.14408454741E+04  0.14408454741E+04  0.00000000000E+00 0.  1.
          2   -1    0    0  501    0  0.00000000000E+00 -0.00000000000E+00 -0.97878334391E+03  0.97878334391E+03  0.00000000000E+00 0. -1.
         24    2    1    2    0    0 -0.38721247473E+03 -0.50350562152E+03 -0.60758713425E+03  0.88260631148E+03  0.79877179851E+02 0.  0.
        254    2    1    2    0    0  0.38721247473E+03  0.50350562152E+03  0.10696492644E+04  0.15370225065E+04  0.90268334712E+03 0.  0.
         23    2    4    4    0    0 -0.15231825478E+03  0.41491723674E+03  0.80331679947E+03  0.92199213695E+03  0.96925002975E+02 0.  0.
         23    2    4    4    0    0  0.53953072951E+03  0.88588384775E+02  0.26633246495E+03  0.61503036957E+03  0.91586372326E+02 0.  0.
          4    1    3    3  502    0 -0.25861266904E+03 -0.36971733650E+03 -0.38772127925E+03  0.59489428630E+03  0.00000000000E+00 0. -1.
         -3    1    3    3    0  502 -0.12859980569E+03 -0.13378828502E+03 -0.21986585500E+03  0.28771202517E+03  0.00000000000E+00 0.  1.
         13    1    5    5    0    0 -0.10919348706E+03  0.15847708840E+03  0.34080125775E+03  0.39138689611E+03  0.00000000000E+00 0.  1.
        -13    1    5    5    0    0 -0.43124767722E+02  0.25644014835E+03  0.46251554172E+03  0.53060524084E+03  0.00000000000E+00 0. -1.
          1    1    6    6  503    0  0.46675550925E+03  0.57591912704E+02  0.19716145045E+03  0.50995114606E+03  0.00000000000E+00 0. -1.
         -1    1    6    6    0  503  0.72775220262E+02  0.30996472071E+02  0.69171014508E+02  0.10507922351E+03  0.00000000000E+00 0.  1.
<mgrwt>
<rscale>  0 0.23751005E+04</rscale>
<asrwt>0</asrwt>
<pdfrwt beam="1">  1        2 0.15058205E+00 0.23751005E+04</pdfrwt>
<pdfrwt beam="2">  1       -1 0.22166853E+00 0.23751005E+04</pdfrwt>
<totfact> 0.28648025E+00</totfact>
</mgrwt>
</event>
<event>
12    7  0.1661464E-007  0.2068203E+04  0.7818608E-02  0.8575381E-01
          2   -1    0    0  501    0  0.00000000000E+00  0.00000000000E+00  0.19698931110E+04  0.19698931110E+04  0.00000000000E+00 0. -1.
         -1   -1    0    0    0  501 -0.00000000000E+00 -0.00000000000E+00 -0.54285492377E+03  0.54285492377E+03  0.00000000000E+00 0.  1.
         24    2    1    2    0    0 -0.56645496498E+03 -0.53102280990E+03  0.79002018333E+03  0.11121009290E+04  0.98894560587E+02 0.  0.
        254    2    1    2    0    0  0.56645496498E+03  0.53102280990E+03  0.63701800391E+03  0.14006471058E+04  0.97630114502E+03 0.  0.
         23    2    4    4    0    0  0.71461108858E+03  0.52988035612E+03  0.77221116706E+03  0.11815929617E+04  0.91704094688E+02 0.  0.
         23    2    4    4    0    0 -0.14815612359E+03  0.11424537778E+01 -0.13519316315E+03  0.21905414409E+03  0.88068067541E+02 0.  0.
          2    1    3    3  502    0 -0.41298528148E+03 -0.32632690454E+03  0.55047078803E+03  0.76161944554E+03  0.00000000000E+00 0. -1.
         -1    1    3    3    0  502 -0.15346968350E+03 -0.20469590537E+03  0.23954939530E+03  0.35048148341E+03  0.00000000000E+00 0.  1.
         13    1    5    5    0    0  0.63214797377E+03  0.48822781002E+03  0.65920981161E+03  0.10356326718E+04  0.00000000000E+00 0. -1.
        -13    1    5    5    0    0  0.82463114810E+02  0.41652546107E+02  0.11300135545E+03  0.14596028993E+03  0.00000000000E+00 0.  1.
          1    1    6    6  503    0 -0.15823514211E+03  0.96438327424E+01 -0.11929909286E+03  0.19840271487E+03  0.00000000000E+00 0. -1.
         -1    1    6    6    0  503  0.10079018517E+02 -0.85013789647E+01 -0.15894070287E+02  0.20651429220E+02  0.00000000000E+00 0.  1.
<mgrwt>
<rscale>  0 0.20682033E+04</rscale>
<asrwt>0</asrwt>
<pdfrwt beam="1">  1        2 0.30306047E+00 0.20682033E+04</pdfrwt>
<pdfrwt beam="2">  1       -1 0.83516143E-01 0.20682033E+04</pdfrwt>
<totfact> 0.10388402E+01</totfact>
</mgrwt>
</event>
<event>
12    7  0.1661464E-007  0.1900256E+04  0.7818608E-02  0.8654729E-01
         -1   -1    0    0    0  501 -0.00000000000E+00  0.00000000000E+00  0.78916927321E+03  0.78916927321E+03  0.00000000000E+00 0.  1.
          2   -1    0    0  501    0  0.00000000000E+00 -0.00000000000E+00 -0.11439153646E+04  0.11439153646E+04  0.00000000000E+00 0. -1.
         24    2    1    2    0    0 -0.31128191547E+03 -0.50533512074E+03  0.29813354746E+03  0.66923798832E+03  0.82072271517E+02 0.  0.
        254    2    1    2    0    0  0.31128191547E+03  0.50533512074E+03 -0.65287963883E+03  0.12638466495E+04  0.90487375663E+03 0.  0.
         23    2    4    4    0    0  0.60807778728E+03  0.34875583910E+03 -0.29572895780E+03  0.76624872116E+03  0.91061822438E+02 0.  0.
         23    2    4    4    0    0 -0.29679587182E+03  0.15657928163E+03 -0.35715068103E+03  0.49759792831E+03  0.86268350726E+02 0.  0.
          2    1    3    3  502    0 -0.90589077902E+02 -0.89405966701E+02  0.47657516250E+02  0.13590822923E+03  0.00000000000E+00 0. -1.
         -1    1    3    3    0  502 -0.22069283756E+03 -0.41592915403E+03  0.25047603121E+03  0.53332975910E+03  0.00000000000E+00 0.  1.
         13    1    5    5    0    0  0.39476385763E+03  0.17570479080E+03 -0.18708641352E+03  0.47086304052E+03  0.00000000000E+00 0. -1.
        -13    1    5    5    0    0  0.21331392965E+03  0.17305104830E+03 -0.10864254427E+03  0.29538568064E+03  0.00000000000E+00 0.  1.
          1    1    6    6  503    0 -0.26520958400E+03  0.16606438519E+03 -0.33113921444E+03  0.45559486697E+03  0.00000000000E+00 0. -1.
         -1    1    6    6    0  503 -0.31586287818E+02 -0.94851035584E+01 -0.26011466594E+02  0.42003061341E+02  0.00000000000E+00 0.  1.
<mgrwt>
<rscale>  0 0.19002556E+04</rscale>
<asrwt>0</asrwt>
<pdfrwt beam="1">  1        2 0.17598698E+00 0.19002556E+04</pdfrwt>
<pdfrwt beam="2">  1       -1 0.12141066E+00 0.19002556E+04</pdfrwt>
<totfact> 0.13156306E+01</totfact>
</mgrwt>
</event>
<event>
12    7  0.1661464E-007  0.1300967E+04  0.7818608E-02  0.9028799E-01
          2   -1    0    0  501    0  0.00000000000E+00  0.00000000000E+00  0.62991018945E+03  0.62991018945E+03  0.00000000000E+00 0. -1.
         -1   -1    0    0    0  501 -0.00000000000E+00 -0.00000000000E+00 -0.67172871079E+03  0.67172871079E+03  0.00000000000E+00 0.  1.
         24    2    1    2    0    0  0.13640099482E+02 -0.25677009029E+03 -0.21738413546E+03  0.34559737246E+03  0.77876504269E+02 0.  0.
        254    2    1    2    0    0 -0.13640099482E+02  0.25677009029E+03  0.17556561413E+03  0.95604152778E+03  0.90392211301E+03 0.  0.
         23    2    4    4    0    0 -0.22738466594E+03  0.56564318671E+02 -0.29977801283E+03  0.39056980644E+03  0.88173739148E+02 0.  0.
         23    2    4    4    0    0  0.21374456646E+03  0.20020577162E+03  0.47534362696E+03  0.56547172134E+03  0.89652737091E+02 0.  0.
          4    1    3    3  502    0 -0.20133192192E+02 -0.28145355633E+02 -0.12638526169E+02  0.36840722242E+02  0.00000000000E+00 0. -1.
         -3    1    3    3    0  502  0.33773291675E+02 -0.22862473466E+03 -0.20474560929E+03  0.30875665021E+03  0.00000000000E+00 0.  1.
         13    1    5    5    0    0 -0.16615606193E+03  0.39423159404E+02 -0.27204594894E+03  0.32120246069E+03  0.00000000000E+00 0. -1.
        -13    1    5    5    0    0 -0.61228604005E+02  0.17141159267E+02 -0.27732063887E+02  0.69367345754E+02  0.00000000000E+00 0.  1.
          1    1    6    6  503    0  0.71707830347E+01  0.21319885513E+02  0.91942555282E+02  0.94654060237E+02  0.00000000000E+00 0. -1.
         -1    1    6    6    0  503  0.20657378342E+03  0.17888588611E+03  0.38340107167E+03  0.47081766110E+03  0.00000000000E+00 0.  1.
<mgrwt>
<rscale>  0 0.13009670E+04</rscale>
<asrwt>0</asrwt>
<pdfrwt beam="1">  1        2 0.96909260E-01 0.13009670E+04</pdfrwt>
<pdfrwt beam="2">  1       -1 0.10334288E+00 0.13009670E+04</pdfrwt>
<totfact> 0.46265999E+01</totfact>
</mgrwt>
</event>
<event>
12    7  0.1661464E-007  0.1390704E+04  0.7818608E-02  0.8960575E-01
          2   -1    0    0  501    0  0.00000000000E+00  0.00000000000E+00  0.26133029262E+04  0.26133029262E+04  0.00000000000E+00 0. -1.
         -1   -1    0    0    0  501 -0.00000000000E+00 -0.00000000000E+00 -0.18502034659E+03  0.18502034659E+03  0.00000000000E+00 0.  1.
         24    2    1    2    0    0  0.64374648496E+02  0.21602371964E+03  0.13494430875E+04  0.13706738307E+04  0.83305227606E+02 0.  0.
        254    2    1    2    0    0 -0.64374648496E+02 -0.21602371964E+03  0.10788394921E+04  0.14276494421E+04  0.90745685129E+03 0.  0.
         23    2    4    4    0    0  0.37659303826E+02 -0.38069435426E+03  0.74322736035E+02  0.40044895486E+03  0.92136213444E+02 0.  0.
         23    2    4    4    0    0 -0.10203395232E+03  0.16467063462E+03  0.10045167561E+04  0.10272004872E+04  0.92518011108E+02 0.  0.
          4    1    3    3  502    0  0.48881392186E+02  0.18393895410E+03  0.12616764875E+04  0.12759508174E+04  0.00000000000E+00 0. -1.
         -3    1    3    3    0  502  0.15493256310E+02  0.32084765541E+02  0.87766599973E+02  0.94723013264E+02  0.00000000000E+00 0.  1.
         13    1    5    5    0    0  0.29045290908E+02 -0.12790517408E+03 -0.15418634043E+02  0.13206474456E+03  0.00000000000E+00 0. -1.
        -13    1    5    5    0    0  0.86140129179E+01 -0.25278918018E+03  0.89741370078E+02  0.26838421030E+03  0.00000000000E+00 0.  1.
          3    1    6    6  503    0 -0.87022454856E+02  0.17157048426E+03  0.97050592569E+03  0.98938925127E+03  0.00000000000E+00 0. -1.
         -3    1    6    6    0  503 -0.15011497466E+02 -0.68998496408E+01  0.34010830410E+02  0.37811235981E+02  0.00000000000E+00 0.  1.
<mgrwt>
<rscale>  0 0.13907037E+04</rscale>
<asrwt>0</asrwt>
<pdfrwt beam="1">  1        2 0.40204658E+00 0.13907037E+04</pdfrwt>
<pdfrwt beam="2">  1       -1 0.28464671E-01 0.13907037E+04</pdfrwt>
<totfact> 0.37270151E+01</totfact>
</mgrwt>
</event>
<event>
12    7  0.1661464E-007  0.2457741E+04  0.7818608E-02  0.8418197E-01
         -1   -1    0    0    0  501 -0.00000000000E+00  0.00000000000E+00  0.87717229852E+03  0.87717229852E+03  0.00000000000E+00 0.  1.
          2   -1    0    0  501    0  0.00000000000E+00 -0.00000000000E+00 -0.17215798154E+04  0.17215798154E+04  0.00000000000E+00 0. -1.
         24    2    1    2    0    0 -0.16305433039E+03 -0.10461522882E+04 -0.32070517031E+03  0.11089506924E+04  0.76801738911E+02 0.  0.
        254    2    1    2    0    0  0.16305433039E+03  0.10461522882E+04 -0.52370234661E+03  0.14898014215E+04  0.90786717250E+03 0.  0.
         23    2    4    4    0    0  0.13149027252E+03 -0.12096177098E+03 -0.18027504052E+03  0.26880698958E+03  0.88524943413E+02 0.  0.
         23    2    4    4    0    0  0.31564057868E+02  0.11671140592E+04 -0.34342730609E+03  0.12209944320E+04  0.98658863278E+02 0.  0.
          4    1    3    3  502    0 -0.78662790049E+02 -0.73196527900E+03 -0.21691805735E+03  0.76747276682E+03  0.00000000000E+00 0. -1.
         -3    1    3    3    0  502 -0.84391540339E+02 -0.31418700924E+03 -0.10378711295E+03  0.34147792560E+03  0.00000000000E+00 0.  1.
         13    1    5    5    0    0  0.12118586137E+03 -0.91025041733E+02 -0.18230736289E+03  0.23708130627E+03  0.00000000000E+00 0. -1.
        -13    1    5    5    0    0  0.10304411147E+02 -0.29936729249E+02  0.20323223707E+01  0.31725683310E+02  0.00000000000E+00 0.  1.
          1    1    6    6  503    0  0.20900943209E+02  0.10594092534E+04 -0.28179819154E+03  0.10964465497E+04  0.00000000000E+00 0. -1.
         -1    1    6    6    0  503  0.10663114659E+02  0.10770480587E+03 -0.61629114552E+02  0.12454788229E+03  0.00000000000E+00 0.  1.
<mgrwt>
<rscale>  0 0.24577405E+04</rscale>
<asrwt>0</asrwt>
<pdfrwt beam="1">  1        2 0.26485843E+00 0.24577405E+04</pdfrwt>
<pdfrwt beam="2">  1       -1 0.13494959E+00 0.24577405E+04</pdfrwt>
<totfact> 0.44818222E+00</totfact>
</mgrwt>
</event>
<event>
12    7  0.1661464E-007  0.1951812E+04  0.7818608E-02  0.8629488E-01
          2   -1    0    0  501    0  0.00000000000E+00  0.00000000000E+00  0.32914482017E+04  0.32914482017E+04  0.00000000000E+00 0. -1.
         -1   -1    0    0    0  501 -0.00000000000E+00 -0.00000000000E+00 -0.28935354003E+03  0.28935354003E+03  0.00000000000E+00 0.  1.
         24    2    1    2    0    0 -0.69535421745E+03  0.13979550229E+03  0.72372738799E+03  0.10165174697E+04  0.80412461579E+02 0.  0.
        254    2    1    2    0    0  0.69535421745E+03 -0.13979550229E+03  0.22783672737E+04  0.25642842720E+04  0.93890155162E+03 0.  0.
         23    2    4    4    0    0  0.81649505818E+03 -0.15111094756E+03  0.22638786925E+04  0.24131912069E+04  0.94055132480E+02 0.  0.
         23    2    4    4    0    0 -0.12114084073E+03  0.11315445275E+02  0.14488581145E+02  0.15109306511E+03  0.88408442734E+02 0.  0.
          2    1    3    3  502    0 -0.41354223067E+02  0.30038039030E+00  0.70298646334E+02  0.81560785126E+02  0.00000000000E+00 0. -1.
         -1    1    3    3    0  502 -0.65399999438E+03  0.13949512190E+03  0.65342874165E+03  0.93495668461E+03  0.00000000000E+00 0.  1.
         13    1    5    5    0    0  0.21974143258E+03  0.13627914402E+01  0.59465380285E+03  0.63395685944E+03  0.00000000000E+00 0.  1.
        -13    1    5    5    0    0  0.59675362560E+03 -0.15247373900E+03  0.16692248897E+04  0.17792343474E+04  0.00000000000E+00 0. -1.
          2    1    6    6  503    0 -0.99499774043E+02  0.21066060000E+02 -0.25261223665E+02  0.10479557882E+03  0.00000000000E+00 0. -1.
         -2    1    6    6    0  503 -0.21641066690E+02 -0.97506147246E+01  0.39749804810E+02  0.46297486297E+02  0.00000000000E+00 0.  1.
<mgrwt>
<rscale>  0 0.19518117E+04</rscale>
<asrwt>0</asrwt>
<pdfrwt beam="1">  1        2 0.50637662E+00 0.19518117E+04</pdfrwt>
<pdfrwt beam="2">  1       -1 0.44515931E-01 0.19518117E+04</pdfrwt>
<totfact> 0.60149294E+00</totfact>
</mgrwt>
</event>
<event>
12    7  0.1661464E-007  0.1457539E+04  0.7818608E-02  0.8913191E-01
         -1   -1    0    0    0  501 -0.00000000000E+00  0.00000000000E+00  0.18731703002E+03  0.18731703002E+03  0.00000000000E+00 0.  1.
          2   -1    0    0  501    0  0.00000000000E+00 -0.00000000000E+00 -0.28353263335E+04  0.28353263335E+04  0.00000000000E+00 0. -1.
         24    2    1    2    0    0 -0.99445408043E+02 -0.21705768478E+03 -0.16145929318E+04  0.16341251408E+04  0.80319440796E+02 0.  0.
        254    2    1    2    0    0  0.99445408043E+02  0.21705768478E+03 -0.10334163716E+04  0.13885182227E+04  0.89611942839E+03 0.  0.
         23    2    4    4    0    0  0.12024221387E+03  0.16889099828E+03  0.10174839221E+03  0.24856890348E+03  0.91931524336E+02 0.  0.
         23    2    4    4    0    0 -0.20796805825E+02  0.48166686500E+02 -0.11351647638E+04  0.11399493192E+04  0.90182440244E+02 0.  0.
          2    1    3    3  502    0 -0.90447192176E+02 -0.12548059771E+03 -0.84394980272E+03  0.85800777647E+03  0.00000000000E+00 0. -1.
         -1    1    3    3    0  502 -0.89982158674E+01 -0.91577087070E+02 -0.77064312910E+03  0.77611736432E+03  0.00000000000E+00 0.  1.
         13    1    5    5    0    0  0.39312749924E+02  0.10887167763E+03  0.17169299570E+02  0.11701845728E+03  0.00000000000E+00 0.  1.
        -13    1    5    5    0    0  0.80929463945E+02  0.60019320651E+02  0.84579092635E+02  0.13155044621E+03  0.00000000000E+00 0. -1.
          3    1    6    6  503    0 -0.34167464858E+02  0.23725729987E+01 -0.16030466518E+03  0.16392263552E+03  0.00000000000E+00 0. -1.
         -3    1    6    6    0  503  0.13370659032E+02  0.45794113501E+02 -0.97486009867E+03  0.97602668372E+03  0.00000000000E+00 0.  1.
<mgrwt>
<rscale>  0 0.14575389E+04</rscale>
<asrwt>0</asrwt>
<pdfrwt beam="1">  1        2 0.43620403E+00 0.14575389E+04</pdfrwt>
<pdfrwt beam="2">  1       -1 0.28818006E-01 0.14575389E+04</pdfrwt>
<totfact> 0.26764347E+01</totfact>
</mgrwt>
</event>
<event>
12    7  0.1661464E-007  0.2350296E+04  0.7818608E-02  0.8458350E-01
         -1   -1    0    0    0  501 -0.00000000000E+00  0.00000000000E+00  0.12613374643E+04  0.12613374643E+04  0.00000000000E+00 0.  1.
          2   -1    0    0  501    0  0.00000000000E+00 -0.00000000000E+00 -0.10948484260E+04  0.10948484260E+04  0.00000000000E+00 0. -1.
         24    2    1    2    0    0  0.39828528181E+03  0.15014568417E+03 -0.84062061995E+03  0.94554149364E+03  0.78935399701E+02 0.  0.
        254    2    1    2    0    0 -0.39828528181E+03 -0.15014568417E+03  0.10071096583E+04  0.14106443967E+04  0.89133206934E+03 0.  0.
         23    2    4    4    0    0 -0.52093041608E+03  0.22250582081E+03  0.69139136973E+03  0.89844761140E+03  0.91152320830E+02 0.  0.
         23    2    4    4    0    0  0.12264513428E+03 -0.37265150498E+03  0.31571828858E+03  0.51219678528E+03  0.93576364429E+02 0.  0.
          4    1    3    3  502    0  0.18712403841E+03  0.95486409681E+02 -0.48208240209E+03  0.52586738118E+03  0.00000000000E+00 0. -1.
         -3    1    3    3    0  502  0.21116124340E+03  0.54659274487E+02 -0.35853821787E+03  0.41967411246E+03  0.00000000000E+00 0.  1.
         13    1    5    5    0    0 -0.94624379699E+02  0.19837537128E+02  0.16644760806E+03  0.19248923955E+03  0.00000000000E+00 0. -1.
        -13    1    5    5    0    0 -0.42630603638E+03  0.20266828369E+03  0.52494376167E+03  0.70595837185E+03  0.00000000000E+00 0.  1.
          1    1    6    6  503    0  0.23730079694E+02 -0.16366104131E+02  0.46882695461E+02  0.55035926270E+02  0.00000000000E+00 0. -1.
         -1    1    6    6    0  503  0.98915054583E+02 -0.35628540085E+03  0.26883559312E+03  0.45716085901E+03  0.00000000000E+00 0.  1.
<mgrwt>
<rscale>  0 0.23502964E+04</rscale>
<asrwt>0</asrwt>
<pdfrwt beam="1">  1        2 0.16843822E+00 0.23502964E+04</pdfrwt>
<pdfrwt beam="2">  1       -1 0.19405192E+00 0.23502964E+04</pdfrwt>
<totfact> 0.37392645E+00</totfact>
</mgrwt>
</event>
<event>
12    7  0.1661464E-007  0.2359117E+04  0.7818608E-02  0.8454970E-01
         -1   -1    0    0    0  501 -0.00000000000E+00  0.00000000000E+00  0.48290008745E+03  0.48290008745E+03  0.00000000000E+00 0.  1.
          2   -1    0    0  501    0  0.00000000000E+00 -0.00000000000E+00 -0.28812544596E+04  0.28812544596E+04  0.00000000000E+00 0. -1.
         24    2    1    2    0    0 -0.30898697804E+01 -0.93660286230E+03 -0.48175461918E+03  0.10561740965E+04  0.78624041985E+02 0.  0.
        254    2    1    2    0    0  0.30898697804E+01  0.93660286230E+03 -0.19165997529E+04  0.23079804506E+04  0.88101343816E+03 0.  0.
         23    2    4    4    0    0  0.23317626727E+03 -0.99580942452E+01 -0.16103291100E+03  0.29827776945E+03  0.92561839115E+02 0.  0.
         23    2    4    4    0    0 -0.23008639749E+03  0.94656095655E+03 -0.17555668419E+04  0.20097026811E+04  0.89289054137E+02 0.  0.
          4    1    3    3  502    0 -0.51495035225E+01 -0.21835676557E+03 -0.15029930168E+03  0.26513406899E+03  0.00000000000E+00 0. -1.
         -3    1    3    3    0  502  0.20596337421E+01 -0.71824609674E+03 -0.33145531750E+03  0.79104002748E+03  0.00000000000E+00 0.  1.
         13    1    5    5    0    0  0.11908926342E+03 -0.28934220374E+02 -0.12972629080E+03  0.17846106660E+03  0.00000000000E+00 0.  1.
        -13    1    5    5    0    0  0.11408700385E+03  0.18976126129E+02 -0.31306620209E+02  0.11981670284E+03  0.00000000000E+00 0. -1.
          4    1    6    6  503    0 -0.10247937016E+03  0.32689859714E+03 -0.69283372401E+03  0.77290574020E+03  0.00000000000E+00 0. -1.
         -4    1    6    6    0  503 -0.12760702733E+03  0.61966235941E+03 -0.10627331179E+04  0.12367969409E+04  0.00000000000E+00 0.  1.
<mgrwt>
<rscale>  0 0.23591168E+04</rscale>
<asrwt>0</asrwt>
<pdfrwt beam="1">  1        2 0.44326992E+00 0.23591168E+04</pdfrwt>
<pdfrwt beam="2">  1       -1 0.74292321E-01 0.23591168E+04</pdfrwt>
<totfact> 0.38631065E+00</totfact>
</mgrwt>
</event>
<event>
12    7  0.1661464E-007  0.1596540E+04  0.7818608E-02  0.8822676E-01
         -3   -1    0    0    0  501 -0.00000000000E+00  0.00000000000E+00  0.25579030942E+03  0.25579030942E+03  0.00000000000E+00 0.  1.
          2   -1    0    0  501    0  0.00000000000E+00 -0.00000000000E+00 -0.24912412343E+04  0.24912412343E+04  0.00000000000E+00 0. -1.
         24    2    1    2    0    0  0.49280145156E+03  0.12846206960E+03 -0.11031752508E+04  0.12175126052E+04  0.77366245308E+02 0.  0.
        254    2    1    2    0    0 -0.49280145156E+03 -0.12846206960E+03 -0.11322756741E+04  0.15295189385E+04  0.89332200640E+03 0.  0.
         23    2    4    4    0    0  0.24193833458E+03  0.15144344787E+02 -0.18020888976E+03  0.31544557933E+03  0.90923927834E+02 0.  0.
         23    2    4    4    0    0 -0.73473978614E+03 -0.14360641439E+03 -0.95206678431E+03  0.12140733592E+04  0.84128497144E+02 0.  0.
          4    1    3    3  502    0  0.46177320394E+03  0.11027256877E+03 -0.10589816305E+04  0.11605329056E+04  0.00000000000E+00 0. -1.
         -3    1    3    3    0  502  0.31028247614E+02  0.18189500833E+02 -0.44193620277E+02  0.56979699576E+02  0.00000000000E+00 0.  1.
         13    1    5    5    0    0  0.17269308650E+03  0.44250434012E+02 -0.95536717919E+02  0.20225792322E+03  0.00000000000E+00 0. -1.
        -13    1    5    5    0    0  0.69245248085E+02 -0.29106089225E+02 -0.84672171841E+02  0.11318765611E+03  0.00000000000E+00 0.  1.
          3    1    6    6  503    0 -0.37392555184E+03 -0.11144005840E+03 -0.52380856960E+03  0.65315742553E+03  0.00000000000E+00 0. -1.
         -3    1    6    6    0  503 -0.36081423430E+03 -0.32166355994E+02 -0.42825821471E+03  0.56091593362E+03  0.00000000000E+00 0.  1.
<mgrwt>
<rscale>  0 0.15965405E+04</rscale>
<asrwt>0</asrwt>
<pdfrwt beam="1">  1        2 0.38326789E+00 0.15965405E+04</pdfrwt>
<pdfrwt beam="2">  1       -3 0.39352354E-01 0.15965405E+04</pdfrwt>
<totfact> 0.14038862E+01</totfact>
</mgrwt>
</event>
<event>
12    7  0.1661464E-007  0.2480024E+04  0.7818608E-02  0.8410137E-01
         -1   -1    0    0    0  501 -0.00000000000E+00  0.00000000000E+00  0.92774573056E+03  0.92774573056E+03  0.00000000000E+00 0.  1.
          2   -1    0    0  501    0  0.00000000000E+00 -0.00000000000E+00 -0.16573822093E+04  0.16573822093E+04  0.00000000000E+00 0. -1.
         24    2    1    2    0    0 -0.43575008996E+03 -0.62115321435E+03  0.45791669990E+03  0.89013325724E+03  0.83306992554E+02 0.  0.
        254    2    1    2    0    0  0.43575008996E+03  0.62115321435E+03 -0.11875531786E+04  0.16949946826E+04  0.94181471927E+03 0.  0.
         23    2    4    4    0    0  0.50735893914E+03  0.42931327355E+03 -0.22656705624E+03  0.70805432633E+03  0.91023722645E+02 0.  0.
         23    2    4    4    0    0 -0.71608849182E+02  0.19183994079E+03 -0.96098612240E+03  0.98694035630E+03  0.92879218755E+02 0.  0.
          2    1    3    3  502    0 -0.12129121893E+03 -0.22528955111E+03  0.18381111080E+03  0.31504518102E+03  0.00000000000E+00 0. -1.
         -1    1    3    3    0  502 -0.31445887103E+03 -0.39586366324E+03  0.27410558910E+03  0.57508807622E+03  0.00000000000E+00 0.  1.
         13    1    5    5    0    0  0.22540797250E+03  0.18824352626E+03 -0.52677220171E+02  0.29836097059E+03  0.00000000000E+00 0. -1.
        -13    1    5    5    0    0  0.28195096664E+03  0.24106974729E+03 -0.17388983607E+03  0.40969335574E+03  0.00000000000E+00 0.  1.
          3    1    6    6  503    0 -0.22677154143E+01  0.10506362769E+03 -0.33242834044E+03  0.34864324162E+03  0.00000000000E+00 0. -1.
         -3    1    6    6    0  503 -0.69341133767E+02  0.86776313106E+02 -0.62855778196E+03  0.63829711468E+03  0.00000000000E+00 0.  1.
<mgrwt>
<rscale>  0 0.24800236E+04</rscale>
<asrwt>0</asrwt>
<pdfrwt beam="1">  1        2 0.25498187E+00 0.24800236E+04</pdfrwt>
<pdfrwt beam="2">  1       -1 0.14273012E+00 0.24800236E+04</pdfrwt>
<totfact> 0.41977065E+00</totfact>
</mgrwt>
</event>
<event>
12    7  0.1661464E-007  0.4418582E+04  0.7818608E-02  0.7925048E-01
         -1   -1    0    0    0  501 -0.00000000000E+00  0.00000000000E+00  0.14543808144E+04  0.14543808144E+04  0.00000000000E+00 0.  1.
          2   -1    0    0  501    0  0.00000000000E+00 -0.00000000000E+00 -0.33560444559E+04  0.33560444559E+04  0.00000000000E+00 0. -1.
         24    2    1    2    0    0 -0.24551000781E+03 -0.17523165082E+04 -0.21772837254E+04  0.28067556660E+04  0.80153845743E+02 0.  0.
        254    2    1    2    0    0  0.24551000781E+03  0.17523165082E+04  0.27562008397E+03  0.20036696043E+04  0.89879761003E+03 0.  0.
         23    2    4    4    0    0 -0.32397342397E+03  0.78497593669E+03  0.18024510105E+03  0.87313536209E+03  0.93440159770E+02 0.  0.
         23    2    4    4    0    0  0.56948343178E+03  0.96734057146E+03  0.95374982911E+02  0.11305342422E+04  0.94615670774E+02 0.  0.
          2    1    3    3  502    0 -0.17587444374E+03 -0.99691569394E+03 -0.12176586683E+04  0.15834978223E+04  0.00000000000E+00 0. -1.
         -1    1    3    3    0  502 -0.69635564067E+02 -0.75540081421E+03 -0.95962505715E+03  0.12232578437E+04  0.00000000000E+00 0.  1.
         13    1    5    5    0    0 -0.56889934502E+02  0.24979851434E+03  0.56250187391E+02  0.26229724741E+03  0.00000000000E+00 0. -1.
        -13    1    5    5    0    0 -0.26708348947E+03  0.53517742235E+03  0.12399491366E+03  0.61083811468E+03  0.00000000000E+00 0.  1.
          4    1    6    6  503    0  0.57926300214E+01  0.14238062204E+02  0.13044787428E+02  0.20160442876E+02  0.00000000000E+00 0. -1.
         -4    1    6    6    0  503  0.56369080176E+03  0.95310250926E+03  0.82330195483E+02  0.11103737993E+04  0.00000000000E+00 0.  1.
<mgrwt>
<rscale>  0 0.44185820E+04</rscale>
<asrwt>0</asrwt>
<pdfrwt beam="1">  1        2 0.51631453E+00 0.44185820E+04</pdfrwt>
<pdfrwt beam="2">  1       -1 0.22375090E+00 0.44185820E+04</pdfrwt>
<totfact> 0.91733127E-02</totfact>
</mgrwt>
</event>
<event>
12    7  0.1661464E-007  0.2540412E+04  0.7818608E-02  0.8388728E-01
         -1   -1    0    0    0  501 -0.00000000000E+00  0.00000000000E+00  0.56259770415E+03  0.56259770415E+03  0.00000000000E+00 0.  1.
          2   -1    0    0  501    0  0.00000000000E+00 -0.00000000000E+00 -0.28678109107E+04  0.28678109107E+04  0.00000000000E+00 0. -1.
         24    2    1    2    0    0  0.39837284833E+02  0.54438608165E+03 -0.23129836927E+04  0.23778092013E+04  0.78357003601E+02 0.  0.
        254    2    1    2    0    0 -0.39837284833E+02 -0.54438608165E+03  0.77704861087E+01  0.10525994136E+04  0.89997884966E+03 0.  0.
         23    2    4    4    0    0 -0.42337687935E+03 -0.12366806616E+03 -0.11064880600E+03  0.46386790784E+03  0.91588782599E+02 0.  0.
         23    2    4    4    0    0  0.38353959452E+03 -0.42071801549E+03  0.11841929211E+03  0.58873150573E+03  0.92061870349E+02 0.  0.
          4    1    3    3  502    0  0.15240262574E+02  0.50321674297E+03 -0.21189471273E+04  0.21779339485E+04  0.00000000000E+00 0. -1.
         -3    1    3    3    0  502  0.24597022259E+02  0.41169338686E+02 -0.19403656539E+03  0.19987525275E+03  0.00000000000E+00 0.  1.
         13    1    5    5    0    0 -0.15978341855E+03 -0.61432239026E+02  0.29135328551E+00  0.17118628953E+03  0.00000000000E+00 0.  1.
        -13    1    5    5    0    0 -0.26359346080E+03 -0.62235827138E+02 -0.11094015929E+03  0.29268161831E+03  0.00000000000E+00 0. -1.
          1    1    6    6  503    0  0.16349456014E+03 -0.20704804667E+03  0.97664044821E+02  0.28131411354E+03  0.00000000000E+00 0. -1.
         -1    1    6    6    0  503  0.22004503439E+03 -0.21366996882E+03  0.20755247289E+02  0.30741739219E+03  0.00000000000E+00 0.  1.
<mgrwt>
<rscale>  0 0.25404124E+04</rscale>
<asrwt>0</asrwt>
<pdfrwt beam="1">  1        2 0.44120168E+00 0.25404124E+04</pdfrwt>
<pdfrwt beam="2">  1       -1 0.86553493E-01 0.25404124E+04</pdfrwt>
<totfact> 0.27971925E+00</totfact>
</mgrwt>
</event>
<event>
12    7  0.1661464E-007  0.1954755E+04  0.7818608E-02  0.8628071E-01
         -1   -1    0    0    0  501 -0.00000000000E+00  0.00000000000E+00  0.39326744360E+03  0.39326744360E+03  0.00000000000E+00 0.  1.
          2   -1    0    0  501    0  0.00000000000E+00 -0.00000000000E+00 -0.24290518657E+04  0.24290518657E+04  0.00000000000E+00 0. -1.
         24    2    1    2    0    0 -0.54539156064E+03  0.23551831463E+03 -0.11532830283E+03  0.61027977958E+03  0.78866729254E+02 0.  0.
        254    2    1    2    0    0  0.54539156064E+03 -0.23551831463E+03 -0.19204561193E+04  0.22120395298E+04  0.92306356451E+03 0.  0.
         23    2    4    4    0    0  0.15680155434E+03  0.33502478911E+03 -0.48142881509E+03  0.61348516340E+03  0.88102241433E+02 0.  0.
         23    2    4    4    0    0  0.38859000630E+03 -0.57054310374E+03 -0.14390273042E+04  0.15985543664E+04  0.89748836985E+02 0.  0.
          2    1    3    3  502    0 -0.25147280400E+03  0.10676392628E+03 -0.93108633921E+02  0.28862835068E+03  0.00000000000E+00 0. -1.
         -1    1    3    3    0  502 -0.29391875664E+03  0.12875438835E+03 -0.22219668911E+02  0.32165142890E+03  0.00000000000E+00 0.  1.
         13    1    5    5    0    0  0.36954296927E+02  0.15965976658E+03 -0.25413014711E+03  0.30238881064E+03  0.00000000000E+00 0. -1.
        -13    1    5    5    0    0  0.11984725742E+03  0.17536502253E+03 -0.22729866798E+03  0.31109635277E+03  0.00000000000E+00 0.  1.
          1    1    6    6  503    0  0.74775658515E+02 -0.56722262855E+02 -0.18167926237E+03  0.20449002074E+03  0.00000000000E+00 0. -1.
         -1    1    6    6    0  503  0.31381434778E+03 -0.51382084089E+03 -0.12573480418E+04  0.13940643456E+04  0.00000000000E+00 0.  1.
<mgrwt>
<rscale>  0 0.19547552E+04</rscale>
<asrwt>0</asrwt>
<pdfrwt beam="1">  1        2 0.37370028E+00 0.19547552E+04</pdfrwt>
<pdfrwt beam="2">  1       -1 0.60502685E-01 0.19547552E+04</pdfrwt>
<totfact> 0.11255692E+01</totfact>
</mgrwt>
</event>
<event>
12    7  0.1661464E-007  0.3093908E+04  0.7818608E-02  0.8217412E-01
          2   -1    0    0  501    0  0.00000000000E+00  0.00000000000E+00  0.23627819757E+04  0.23627819757E+04  0.00000000000E+00 0. -1.
         -1   -1    0    0    0  501 -0.00000000000E+00 -0.00000000000E+00 -0.10128174959E+04  0.10128174959E+04  0.00000000000E+00 0.  1.
         24    2    1    2    0    0  0.15023386393E+02 -0.70300958836E+03  0.19594977051E+04  0.20833681218E+04  0.79644782269E+02 0.  0.
        254    2    1    2    0    0 -0.15023386393E+02  0.70300958836E+03 -0.60953322529E+03  0.12922313498E+04  0.89659518468E+03 0.  0.
         23    2    4    4    0    0  0.17198623325E+03  0.15782234236E+03 -0.66072589447E+03  0.70650936570E+03  0.90053428744E+02 0.  0.
         23    2    4    4    0    0 -0.18700961964E+03  0.54518724601E+03  0.51192669180E+02  0.58572198409E+03  0.90817521585E+02 0.  0.
          2    1    3    3  502    0  0.10899205690E+02 -0.70017693863E+03  0.19230682879E+04  0.20465967306E+04  0.00000000000E+00 0. -1.
         -1    1    3    3    0  502  0.41241807031E+01 -0.28326497383E+01  0.36429417211E+02  0.36771391180E+02  0.00000000000E+00 0.  1.
         13    1    5    5    0    0  0.21081592511E+02  0.12496904270E+02 -0.18603384051E+03  0.18764113614E+03  0.00000000000E+00 0.  1.
        -13    1    5    5    0    0  0.15090464074E+03  0.14532543809E+03 -0.47469205396E+03  0.51886822956E+03  0.00000000000E+00 0. -1.
          2    1    6    6  503    0 -0.13249974942E+03  0.48102348661E+03  0.50911186991E+02  0.50152938820E+03  0.00000000000E+00 0. -1.
         -2    1    6    6    0  503 -0.54509870217E+02  0.64163759394E+02  0.28148218838E+00  0.84192595891E+02  0.00000000000E+00 0.  1.
<mgrwt>
<rscale>  0 0.30939082E+04</rscale>
<asrwt>0</asrwt>
<pdfrwt beam="1">  1        2 0.36350492E+00 0.30939082E+04</pdfrwt>
<pdfrwt beam="2">  1       -1 0.15581808E+00 0.30939082E+04</pdfrwt>
<totfact> 0.12679629E+00</totfact>
</mgrwt>
</event>
<event>
12    7  0.1661464E-007  0.1698100E+04  0.7818608E-02  0.8762449E-01
         -1   -1    0    0    0  501 -0.00000000000E+00  0.00000000000E+00  0.35786905405E+03  0.35786905405E+03  0.00000000000E+00 0.  1.
          2   -1    0    0  501    0  0.00000000000E+00 -0.00000000000E+00 -0.20143837284E+04  0.20143837284E+04  0.00000000000E+00 0. -1.
         24    2    1    2    0    0 -0.19084669393E+03 -0.71001010039E+02 -0.14012674586E+04  0.14182642624E+04  0.80370539550E+02 0.  0.
        254    2    1    2    0    0  0.19084669393E+03  0.71001010039E+02 -0.25524721577E+03  0.95398852001E+03  0.89637009719E+03 0.  0.
         23    2    4    4    0    0  0.47726832335E+03  0.24689516817E+03 -0.26429336136E+03  0.60583107917E+03  0.91858799678E+02 0.  0.
         23    2    4    4    0    0 -0.28642162942E+03 -0.17589415813E+03  0.90461455941E+01  0.34815744084E+03  0.90308727124E+02 0.  0.
          2    1    3    3  502    0 -0.19100703215E+03 -0.67855989625E+02 -0.12019873584E+04  0.12189592821E+04  0.00000000000E+00 0. -1.
         -1    1    3    3    0  502  0.16033821585E+00 -0.31450204146E+01 -0.19928010015E+03  0.19930498032E+03  0.00000000000E+00 0.  1.
         13    1    5    5    0    0  0.10015588981E+03  0.96339711054E+02 -0.61927378236E+02  0.15214316404E+03  0.00000000000E+00 0.  1.
        -13    1    5    5    0    0  0.37711243355E+03  0.15055545712E+03 -0.20236598313E+03  0.45368791513E+03  0.00000000000E+00 0. -1.
          2    1    6    6  503    0 -0.24628752832E+03 -0.17872630387E+03 -0.81263612897E+01  0.30441201692E+03  0.00000000000E+00 0.  1.
         -2    1    6    6    0  503 -0.40134101105E+02  0.28321457338E+01  0.17172506884E+02  0.43745423917E+02  0.00000000000E+00 0. -1.
<mgrwt>
<rscale>  0 0.16980996E+04</rscale>
<asrwt>0</asrwt>
<pdfrwt beam="1">  1        2 0.30990518E+00 0.16980996E+04</pdfrwt>
<pdfrwt beam="2">  1       -1 0.55056779E-01 0.16980996E+04</pdfrwt>
<totfact> 0.23709364E+01</totfact>
</mgrwt>
</event>
<event>
12    7  0.1661464E-007  0.1223003E+04  0.7818608E-02  0.9092957E-01
         -1   -1    0    0    0  501 -0.00000000000E+00  0.00000000000E+00  0.64003391528E+03  0.64003391528E+03  0.00000000000E+00 0.  1.
          2   -1    0    0  501    0  0.00000000000E+00 -0.00000000000E+00 -0.58424084939E+03  0.58424084939E+03  0.00000000000E+00 0. -1.
         24    2    1    2    0    0  0.26661890043E+02  0.13017516688E+03 -0.22508179744E+03  0.27339688838E+03  0.80172392898E+02 0.  0.
        254    2    1    2    0    0 -0.26661890043E+02 -0.13017516688E+03  0.28087486333E+03  0.95087787629E+03  0.89867770436E+03 0.  0.
         23    2    4    4    0    0  0.30702498354E+03  0.52608363435E+02  0.42455564312E+03  0.53430714100E+03  0.90579503154E+02 0.  0.
         23    2    4    4    0    0 -0.33368687358E+03 -0.18278353032E+03 -0.14368077979E+03  0.41657073529E+03  0.90167968053E+02 0.  0.
          4    1    3    3  502    0  0.67772108593E+01  0.12201763085E+03 -0.21944368595E+03  0.25117675873E+03  0.00000000000E+00 0. -1.
         -3    1    3    3    0  502  0.19884679183E+02  0.81575360304E+01 -0.56381114951E+01  0.22220129647E+02  0.00000000000E+00 0.  1.
         13    1    5    5    0    0  0.28332078819E+02 -0.20152975992E+02  0.30811915483E+02  0.46456681621E+02  0.00000000000E+00 0. -1.
        -13    1    5    5    0    0  0.27869290472E+03  0.72761339427E+02  0.39374372764E+03  0.48785045938E+03  0.00000000000E+00 0.  1.
          1    1    6    6  503    0 -0.65037756636E+02 -0.56079246640E+02 -0.69350317029E+02  0.11038232723E+03  0.00000000000E+00 0. -1.
         -1    1    6    6    0  503 -0.26864911695E+03 -0.12670428368E+03 -0.74330462762E+02  0.30618840807E+03  0.00000000000E+00 0.  1.
<mgrwt>
<rscale>  0 0.12230028E+04</rscale>
<asrwt>0</asrwt>
<pdfrwt beam="1">  1        2 0.89883207E-01 0.12230028E+04</pdfrwt>
<pdfrwt beam="2">  1       -1 0.98466757E-01 0.12230028E+04</pdfrwt>
<totfact> 0.56977171E+01</totfact>
</mgrwt>
</event>
<event>
12    7  0.1661464E-007  0.1086786E+04  0.7818608E-02  0.9218167E-01
          2   -1    0    0  501    0  0.00000000000E+00  0.00000000000E+00  0.74829000358E+03  0.74829000358E+03  0.00000000000E+00 0. -1.
         -1   -1    0    0    0  501 -0.00000000000E+00 -0.00000000000E+00 -0.39460124814E+03  0.39460124814E+03  0.00000000000E+00 0.  1.
         24    2    1    2    0    0  0.13161728441E+02  0.13558171414E+03  0.17649096750E+03  0.23744658938E+03  0.81707948793E+02 0.  0.
        254    2    1    2    0    0 -0.13161728441E+02 -0.13558171414E+03  0.17719778794E+03  0.90544466235E+03  0.87742540892E+03 0.  0.
         23    2    4    4    0    0  0.24351337893E+03 -0.29218663612E+03  0.36908210594E+03  0.53765616919E+03  0.90447550022E+02 0.  0.
         23    2    4    4    0    0 -0.25667510737E+03  0.15660492198E+03 -0.19188431799E+03  0.36778849316E+03  0.89674811814E+02 0.  0.
          2    1    3    3  502    0 -0.23915226941E+02  0.61735944037E+02  0.12094825533E+03  0.13788308574E+03  0.00000000000E+00 0. -1.
         -1    1    3    3    0  502  0.37076955382E+02  0.73845770099E+02  0.55542712166E+02  0.99563503638E+02  0.00000000000E+00 0.  1.
         13    1    5    5    0    0  0.11864237505E+02 -0.64290680021E+02  0.50812093416E+02  0.82800486149E+02  0.00000000000E+00 0. -1.
        -13    1    5    5    0    0  0.23164914142E+03 -0.22789595610E+03  0.31827001252E+03  0.45485568304E+03  0.00000000000E+00 0.  1.
          4    1    6    6  503    0  0.63710623380E+01 -0.18121339487E+01 -0.29281324412E+01  0.72421146329E+01  0.00000000000E+00 0. -1.
         -4    1    6    6    0  503 -0.26304616971E+03  0.15841705593E+03 -0.18895618555E+03  0.36054637852E+03  0.00000000000E+00 0.  1.
<mgrwt>
<rscale>  0 0.10867864E+04</rscale>
<asrwt>0</asrwt>
<pdfrwt beam="1">  1        2 0.11512154E+00 0.10867864E+04</pdfrwt>
<pdfrwt beam="2">  1       -1 0.60707884E-01 0.10867864E+04</pdfrwt>
<totfact> 0.11742956E+02</totfact>
</mgrwt>
</event>
<event>
12    7  0.1661464E-007  0.1358608E+04  0.7818608E-02  0.8984338E-01
         -1   -1    0    0    0  501 -0.00000000000E+00  0.00000000000E+00  0.27834409901E+03  0.27834409901E+03  0.00000000000E+00 0.  1.
          2   -1    0    0  501    0  0.00000000000E+00 -0.00000000000E+00 -0.16578532202E+04  0.16578532202E+04  0.00000000000E+00 0. -1.
         24    2    1    2    0    0  0.18118175180E+03 -0.32291802226E+01  0.64784477708E+02  0.21688244723E+03  0.10001856116E+03 0.  0.
        254    2    1    2    0    0 -0.18118175180E+03  0.32291802226E+01 -0.14442935989E+04  0.17193148720E+04  0.91499856524E+03 0.  0.
         23    2    4    4    0    0  0.35901667054E+03  0.55896267519E+02 -0.48172523302E+03  0.61062714194E+03  0.93749367465E+02 0.  0.
         23    2    4    4    0    0 -0.54019842233E+03 -0.52667087297E+02 -0.96256836586E+03  0.11086877300E+04  0.89791236629E+02 0.  0.
          4    1    3    3  502    0 -0.12077316729E+02  0.58964384651E+01  0.55805997774E+01  0.14552410790E+02  0.00000000000E+00 0. -1.
         -3    1    3    3    0  502  0.19325906852E+03 -0.91256186877E+01  0.59203877931E+02  0.20233003644E+03  0.00000000000E+00 0.  1.
         13    1    5    5    0    0  0.24933366612E+03  0.81781656239E+02 -0.32921457573E+03  0.42099614397E+03  0.00000000000E+00 0.  1.
        -13    1    5    5    0    0  0.10968300441E+03 -0.25885388720E+02 -0.15251065729E+03  0.18963099798E+03  0.00000000000E+00 0. -1.
          3    1    6    6  503    0 -0.14793914733E+03 -0.54121404678E+02 -0.25825941656E+03  0.30251122954E+03  0.00000000000E+00 0. -1.
         -3    1    6    6    0  503 -0.39225927500E+03  0.14543173815E+01 -0.70430894931E+03  0.80617650049E+03  0.00000000000E+00 0.  1.
<mgrwt>
<rscale>  0 0.13586076E+04</rscale>
<asrwt>0</asrwt>
<pdfrwt beam="1">  1        2 0.25505434E+00 0.13586076E+04</pdfrwt>
<pdfrwt beam="2">  1       -1 0.42822170E-01 0.13586076E+04</pdfrwt>
<totfact> 0.61834472E+01</totfact>
</mgrwt>
</event>
<event>
12    7  0.1661464E-007  0.2527904E+04  0.7818608E-02  0.8393112E-01
          2   -1    0    0  501    0  0.00000000000E+00  0.00000000000E+00  0.20169344482E+04  0.20169344482E+04  0.00000000000E+00 0. -1.
         -1   -1    0    0    0  501 -0.00000000000E+00 -0.00000000000E+00 -0.79208039868E+03  0.79208039868E+03  0.00000000000E+00 0.  1.
         24    2    1    2    0    0  0.49740452820E+03 -0.95809966182E+03  0.34038443345E+03  0.11344618852E+04  0.75999867082E+02 0.  0.
        254    2    1    2    0    0 -0.49740452820E+03  0.95809966182E+03  0.88446961606E+03  0.16745529617E+04  0.92545928761E+03 0.  0.
         23    2    4    4    0    0 -0.38500447245E+03  0.14944152000E+03  0.72236597632E+03  0.83720625467E+03  0.92414811624E+02 0.  0.
         23    2    4    4    0    0 -0.11240005575E+03  0.80865814183E+03  0.16210363974E+03  0.83734670699E+03  0.91160050571E+02 0.  0.
          2    1    3    3  502    0  0.38951308906E+03 -0.81135323199E+03  0.27921684887E+03  0.94232508314E+03  0.00000000000E+00 0. -1.
         -1    1    3    3    0  502  0.10789143913E+03 -0.14674642983E+03  0.61167584579E+02  0.19213680207E+03  0.00000000000E+00 0.  1.
         13    1    5    5    0    0 -0.22299846820E+03  0.13452177420E+03  0.43659934826E+03  0.50837330324E+03  0.00000000000E+00 0. -1.
        -13    1    5    5    0    0 -0.16200600425E+03  0.14919745793E+02  0.28576662807E+03  0.32883295143E+03  0.00000000000E+00 0.  1.
          3    1    6    6  503    0 -0.22849237501E+02  0.44586960816E+02 -0.41968073184E+01  0.50276216254E+02  0.00000000000E+00 0. -1.
         -3    1    6    6    0  503 -0.89550818248E+02  0.76407118101E+03  0.16630044705E+03  0.78707049074E+03  0.00000000000E+00 0.  1.
<mgrwt>
<rscale>  0 0.25279037E+04</rscale>
<asrwt>0</asrwt>
<pdfrwt beam="1">  1        2 0.31029761E+00 0.25279037E+04</pdfrwt>
<pdfrwt beam="2">  1       -1 0.12185852E+00 0.25279037E+04</pdfrwt>
<totfact> 0.39455398E+00</totfact>
</mgrwt>
</event>
<event>
12    7  0.1661464E-007  0.1521301E+04  0.7818608E-02  0.8870410E-01
          2   -1    0    0  501    0  0.00000000000E+00  0.00000000000E+00  0.36069489397E+03  0.36069489397E+03  0.00000000000E+00 0. -1.
         -1   -1    0    0    0  501 -0.00000000000E+00 -0.00000000000E+00 -0.16040955901E+04  0.16040955901E+04  0.00000000000E+00 0.  1.
         24    2    1    2    0    0  0.23764710264E+03  0.29384490514E+03 -0.47294782430E+01  0.38890506808E+03  0.91672298677E+02 0.  0.
        254    2    1    2    0    0 -0.23764710264E+03 -0.29384490514E+03 -0.12386712179E+04  0.15758854160E+04  0.89793512275E+03 0.  0.
         23    2    4    4    0    0 -0.27740157440E+03 -0.55879397967E+03 -0.57290472464E+03  0.85203234072E+03  0.92395567691E+02 0.  0.
         23    2    4    4    0    0  0.39754471763E+02  0.26494907453E+03 -0.66576649329E+03  0.72385307531E+03  0.94550626266E+02 0.  0.
          2    1    3    3  502    0  0.18581441105E+03  0.16343618801E+03 -0.16938957916E+02  0.24804296240E+03  0.00000000000E+00 0. -1.
         -1    1    3    3    0  502  0.51832691593E+02  0.13040871713E+03  0.12209479673E+02  0.14086210567E+03  0.00000000000E+00 0.  1.
         13    1    5    5    0    0 -0.25543837226E+03 -0.43184126307E+03 -0.46174690238E+03  0.68186937192E+03  0.00000000000E+00 0.  1.
        -13    1    5    5    0    0 -0.21963202139E+02 -0.12695271660E+03 -0.11115782226E+03  0.17016296880E+03  0.00000000000E+00 0. -1.
          3    1    6    6  503    0 -0.98869058675E+01 -0.22592572849E+01 -0.46161097548E+02  0.47262057488E+02  0.00000000000E+00 0. -1.
         -3    1    6    6    0  503  0.49641377631E+02  0.26720833181E+03 -0.61960539574E+03  0.67659101782E+03  0.00000000000E+00 0.  1.
<mgrwt>
<rscale>  0 0.15213009E+04</rscale>
<asrwt>0</asrwt>
<pdfrwt beam="1">  1        2 0.55491522E-01 0.15213009E+04</pdfrwt>
<pdfrwt beam="2">  1       -1 0.24678394E+00 0.15213009E+04</pdfrwt>
<totfact> 0.72208473E+00</totfact>
</mgrwt>
</event>
<event>
12    7  0.1661464E-007  0.2166354E+04  0.7818608E-02  0.8532564E-01
         -1   -1    0    0    0  501 -0.00000000000E+00  0.00000000000E+00  0.11784901913E+04  0.11784901913E+04  0.00000000000E+00 0.  1.
          2   -1    0    0  501    0  0.00000000000E+00 -0.00000000000E+00 -0.99557232952E+03  0.99557232952E+03  0.00000000000E+00 0. -1.
         24    2    1    2    0    0  0.51162780004E+03 -0.57902764123E+03 -0.37188897616E+03  0.86129279993E+03  0.80547262805E+02 0.  0.
        254    2    1    2    0    0 -0.51162780004E+03  0.57902764123E+03  0.55480683792E+03  0.13127697209E+04  0.90471967898E+03 0.  0.
         23    2    4    4    0    0 -0.86950524318E+01  0.44849420635E+02 -0.22073934763E+03  0.24115172441E+03  0.85680920426E+02 0.  0.
         23    2    4    4    0    0 -0.50293274761E+03  0.53417822059E+03  0.77554618555E+03  0.10716179965E+04  0.92765966012E+02 0.  0.
          4    1    3    3  502    0  0.47394523040E+03 -0.56296650805E+03 -0.35198396172E+03  0.81575001067E+03  0.00000000000E+00 0. -1.
         -3    1    3    3    0  502  0.37682569642E+02 -0.16061133180E+02 -0.19905014437E+02  0.45542789260E+02  0.00000000000E+00 0.  1.
         13    1    5    5    0    0 -0.39906299150E+02  0.43749894256E+02 -0.18200165966E+03  0.19139271167E+03  0.00000000000E+00 0. -1.
        -13    1    5    5    0    0  0.31211246718E+02  0.10995263793E+01 -0.38737687965E+02  0.49759012740E+02  0.00000000000E+00 0.  1.
          3    1    6    6  503    0 -0.42590385069E+03  0.49399130895E+03  0.67274704145E+03  0.93702192350E+03  0.00000000000E+00 0. -1.
         -3    1    6    6    0  503 -0.77028896925E+02  0.40186911644E+02  0.10279914409E+03  0.13459607296E+03  0.00000000000E+00 0.  1.
<mgrwt>
<rscale>  0 0.21663538E+04</rscale>
<asrwt>0</asrwt>
<pdfrwt beam="1">  1        2 0.15316497E+00 0.21663538E+04</pdfrwt>
<pdfrwt beam="2">  1       -1 0.18130618E+00 0.21663538E+04</pdfrwt>
<totfact> 0.53980072E+00</totfact>
</mgrwt>
</event>
<event>
12    7  0.1661464E-007  0.9748665E+03  0.7818608E-02  0.9336549E-01
          2   -1    0    0  501    0  0.00000000000E+00  0.00000000000E+00  0.12656578614E+04  0.12656578614E+04  0.00000000000E+00 0. -1.
         -1   -1    0    0    0  501 -0.00000000000E+00 -0.00000000000E+00 -0.18772148687E+03  0.18772148687E+03  0.00000000000E+00 0.  1.
         24    2    1    2    0    0  0.16068727327E+02 -0.11559485199E+02  0.82187172076E+01  0.78972795648E+02  0.76008745839E+02 0.  0.
        254    2    1    2    0    0 -0.16068727327E+02  0.11559485199E+02  0.10697176574E+04  0.13744065527E+04  0.86273152246E+03 0.  0.
         23    2    4    4    0    0  0.22031746220E+03  0.22074965723E+03  0.98251116349E+03  0.10344875208E+04  0.86983038888E+02 0.  0.
         23    2    4    4    0    0 -0.23638618953E+03 -0.20919017203E+03  0.87206493870E+02  0.33991903183E+03  0.91109916897E+02 0.  0.
          4    1    3    3  502    0  0.44892011881E+02 -0.13377893201E+01  0.15543749128E+02  0.47525683035E+02  0.00000000000E+00 0. -1.
         -1    1    3    3    0  502 -0.28823284553E+02 -0.10221695879E+02 -0.73250319208E+01  0.31447112614E+02  0.00000000000E+00 0.  1.
         13    1    5    5    0    0  0.45307474909E+02  0.23332541569E+02  0.26853160303E+03  0.27332470910E+03  0.00000000000E+00 0.  1.
        -13    1    5    5    0    0  0.17500998729E+03  0.19741711566E+03  0.71397956046E+03  0.76116281173E+03  0.00000000000E+00 0. -1.
          4    1    6    6  503    0 -0.67900028701E+02 -0.41428811811E+02  0.61946942192E+02  0.10081757780E+03  0.00000000000E+00 0. -1.
         -4    1    6    6    0  503 -0.16848616083E+03 -0.16776136022E+03  0.25259551679E+02  0.23910145404E+03  0.00000000000E+00 0.  1.
<mgrwt>
<rscale>  0 0.97486650E+03</rscale>
<asrwt>0</asrwt>
<pdfrwt beam="1">  1        2 0.19471659E+00 0.97486650E+03</pdfrwt>
<pdfrwt beam="2">  1       -1 0.28880230E-01 0.97486650E+03</pdfrwt>
<totfact> 0.21483711E+02</totfact>
</mgrwt>
</event>
<event>
12    7  0.1661464E-007  0.1133671E+04  0.7818608E-02  0.9172981E-01
          2   -1    0    0  501    0  0.00000000000E+00  0.00000000000E+00  0.81790073623E+03  0.81790073623E+03  0.00000000000E+00 0. -1.
         -1   -1    0    0    0  501 -0.00000000000E+00 -0.00000000000E+00 -0.39283791037E+03  0.39283791037E+03  0.00000000000E+00 0.  1.
         24    2    1    2    0    0 -0.24860970707E+02 -0.26417759079E+02 -0.11307594159E+03  0.14394884782E+03  0.81358074973E+02 0.  0.
        254    2    1    2    0    0  0.24860970707E+02  0.26417759079E+02  0.53813876745E+03  0.10667897988E+04  0.92039729241E+03 0.  0.
         23    2    4    4    0    0 -0.27261098745E+03 -0.25208321107E+03 -0.31880319543E+01  0.38277048742E+03  0.92953680455E+02 0.  0.
         23    2    4    4    0    0  0.29747195815E+03  0.27850097015E+03  0.54132679941E+03  0.68401931135E+03  0.93783571479E+02 0.  0.
          2    1    3    3  502    0  0.23445312845E+01  0.22824077151E+02 -0.71874662461E+01  0.24043606131E+02  0.00000000000E+00 0. -1.
         -1    1    3    3    0  502 -0.27205501991E+02 -0.49241836231E+02 -0.10588847535E+03  0.11990524169E+03  0.00000000000E+00 0.  1.
         13    1    5    5    0    0 -0.18458784381E+03 -0.22417647987E+03 -0.59319074744E+00  0.29039304070E+03  0.00000000000E+00 0.  1.
        -13    1    5    5    0    0 -0.88023143637E+02 -0.27906731201E+02 -0.25948412068E+01  0.92377446722E+02  0.00000000000E+00 0. -1.
          2    1    6    6  503    0  0.71359689476E+02  0.61356022557E+02  0.67269078095E+02  0.11568014373E+03  0.00000000000E+00 0. -1.
         -2    1    6    6    0  503  0.22611226868E+03  0.21714494759E+03  0.47405772131E+03  0.56833916762E+03  0.00000000000E+00 0.  1.
<mgrwt>
<rscale>  0 0.11336709E+04</rscale>
<asrwt>0</asrwt>
<pdfrwt beam="1">  1        2 0.12583088E+00 0.11336709E+04</pdfrwt>
<pdfrwt beam="2">  1       -1 0.60436602E-01 0.11336709E+04</pdfrwt>
<totfact> 0.10501276E+02</totfact>
</mgrwt>
</event>
<event>
12    7  0.1661464E-007  0.1678752E+04  0.7818608E-02  0.8773576E-01
          2   -1    0    0  501    0  0.00000000000E+00  0.00000000000E+00  0.90286769571E+03  0.90286769571E+03  0.00000000000E+00 0. -1.
         -1   -1    0    0    0  501 -0.00000000000E+00 -0.00000000000E+00 -0.78034929058E+03  0.78034929058E+03  0.00000000000E+00 0.  1.
         24    2    1    2    0    0 -0.29248319735E+03 -0.16045454105E+02 -0.47447876732E+03  0.56308432393E+03  0.78294175304E+02 0.  0.
        254    2    1    2    0    0  0.29248319735E+03  0.16045454105E+02  0.59699717245E+03  0.11201326624E+04  0.90138098496E+03 0.  0.
         23    2    4    4    0    0 -0.97171841626E+02  0.38041366781E+03  0.30559316805E+03  0.50550319668E+03  0.89383287197E+02 0.  0.
         23    2    4    4    0    0  0.38965503897E+03 -0.36436821371E+03  0.29140400439E+03  0.61462946568E+03  0.90872667769E+02 0.  0.
          2    1    3    3  502    0 -0.58327731063E+01  0.13678888900E+02 -0.27298238130E+02  0.31085801400E+02  0.00000000000E+00 0. -1.
         -1    1    3    3    0  502 -0.28665042424E+03 -0.29724343005E+02 -0.44718052919E+03  0.53199852253E+03  0.00000000000E+00 0.  1.
         13    1    5    5    0    0 -0.77944517242E+02  0.20182916642E+03  0.12078122689E+03  0.24778713638E+03  0.00000000000E+00 0. -1.
        -13    1    5    5    0    0 -0.19227324384E+02  0.17858450139E+03  0.18481194116E+03  0.25771606030E+03  0.00000000000E+00 0.  1.
          2    1    6    6  503    0  0.29066455926E+03 -0.25605443760E+03  0.16531898669E+03  0.42116520320E+03  0.00000000000E+00 0. -1.
         -2    1    6    6    0  503  0.98990479710E+02 -0.10831377611E+03  0.12608501770E+03  0.19346426248E+03  0.00000000000E+00 0.  1.
<mgrwt>
<rscale>  0 0.16787521E+04</rscale>
<asrwt>0</asrwt>
<pdfrwt beam="1">  1        2 0.13890272E+00 0.16787521E+04</pdfrwt>
<pdfrwt beam="2">  1       -1 0.12005374E+00 0.16787521E+04</pdfrwt>
<totfact> 0.19639518E+01</totfact>
</mgrwt>
</event>
<event>
12    7  0.1661464E-007  0.1918841E+04  0.7818608E-02  0.8645534E-01
         -1   -1    0    0    0  501 -0.00000000000E+00  0.00000000000E+00  0.50409745350E+03  0.50409745350E+03  0.00000000000E+00 0.  1.
          2   -1    0    0  501    0  0.00000000000E+00 -0.00000000000E+00 -0.18260121044E+04  0.18260121044E+04  0.00000000000E+00 0. -1.
         24    2    1    2    0    0  0.62061167200E+03  0.40418541929E+03 -0.39218021767E+03  0.84185536418E+03  0.79940168106E+02 0.  0.
        254    2    1    2    0    0 -0.62061167200E+03 -0.40418541929E+03 -0.92973443327E+03  0.14882541937E+04  0.89552762560E+03 0.  0.
         23    2    4    4    0    0  0.22154907188E+03 -0.56564538041E+02 -0.17542792494E+03  0.30195791306E+03  0.90111520878E+02 0.  0.
         23    2    4    4    0    0 -0.84216074388E+03 -0.34762088125E+03 -0.75430650832E+03  0.11862962807E+04  0.90805074040E+02 0.  0.
          2    1    3    3  502    0  0.24688140073E+03  0.18910547912E+03 -0.20016846125E+03  0.36983607333E+03  0.00000000000E+00 0. -1.
         -1    1    3    3    0  502  0.37373027128E+03  0.21507994018E+03 -0.19201175642E+03  0.47201929085E+03  0.00000000000E+00 0.  1.
         13    1    5    5    0    0  0.20924845397E+03 -0.54655650231E+02 -0.18628769949E+03  0.28543871947E+03  0.00000000000E+00 0.  1.
        -13    1    5    5    0    0  0.12300617902E+02 -0.19088878100E+01  0.10859774548E+02  0.16519193584E+02  0.00000000000E+00 0. -1.
          4    1    6    6  503    0 -0.54543891963E+03 -0.17837286165E+03 -0.46290339836E+03  0.73729237690E+03  0.00000000000E+00 0. -1.
         -4    1    6    6    0  503 -0.29672182425E+03 -0.16924801960E+03 -0.29140310996E+03  0.44900390379E+03  0.00000000000E+00 0.  1.
<mgrwt>
<rscale>  0 0.19188414E+04</rscale>
<asrwt>0</asrwt>
<pdfrwt beam="1">  1        2 0.28092494E+00 0.19188414E+04</pdfrwt>
<pdfrwt beam="2">  1       -1 0.77553453E-01 0.19188414E+04</pdfrwt>
<totfact> 0.14810529E+01</totfact>
</mgrwt>
</event>
<event>
12    7  0.1661464E-007  0.1428224E+04  0.7818608E-02  0.8933638E-01
          2   -1    0    0  501    0  0.00000000000E+00  0.00000000000E+00  0.27199809808E+04  0.27199809808E+04  0.00000000000E+00 0. -1.
         -1   -1    0    0    0  501 -0.00000000000E+00 -0.00000000000E+00 -0.18748504746E+03  0.18748504746E+03  0.00000000000E+00 0.  1.
         24    2    1    2    0    0  0.10176884431E+03  0.28441777316E+03  0.13696836322E+04  0.14048265675E+04  0.79082646176E+02 0.  0.
        254    2    1    2    0    0 -0.10176884431E+03 -0.28441777316E+03  0.11628123011E+04  0.15026394608E+04  0.90252010179E+03 0.  0.
         23    2    4    4    0    0 -0.36320953905E+03 -0.45450730799E+03  0.53631829590E+03  0.79685909630E+03  0.94069349779E+02 0.  0.
         23    2    4    4    0    0  0.26144069474E+03  0.17008953483E+03  0.62649400522E+03  0.70578036449E+03  0.91375585375E+02 0.  0.
          4    1    3    3  502    0  0.11093318167E+03  0.24947317054E+03  0.11348707542E+04  0.11672508995E+04  0.00000000000E+00 0. -1.
         -3    1    3    3    0  502 -0.91643373667E+01  0.34944602628E+02  0.23481287803E+03  0.23757566799E+03  0.00000000000E+00 0.  1.
         13    1    5    5    0    0 -0.10633314571E+02 -0.38288562253E+02  0.15447075225E+02  0.42634416979E+02  0.00000000000E+00 0.  1.
        -13    1    5    5    0    0 -0.35257622448E+03 -0.41621874574E+03  0.52087122068E+03  0.75422467932E+03  0.00000000000E+00 0. -1.
          1    1    6    6  503    0  0.18567744758E+03  0.13580509495E+03  0.36558594209E+03  0.43194006460E+03  0.00000000000E+00 0. -1.
         -1    1    6    6    0  503  0.75763247157E+02  0.34284439880E+02  0.26090806313E+03  0.27384029989E+03  0.00000000000E+00 0.  1.
<mgrwt>
<rscale>  0 0.14282237E+04</rscale>
<asrwt>0</asrwt>
<pdfrwt beam="1">  1        2 0.41845858E+00 0.14282237E+04</pdfrwt>
<pdfrwt beam="2">  1       -1 0.28843855E-01 0.14282237E+04</pdfrwt>
<totfact> 0.31411412E+01</totfact>
</mgrwt>
</event>
<event>
12    7  0.1661464E-007  0.1845511E+04  0.7818608E-02  0.8682464E-01
         -1   -1    0    0    0  501 -0.00000000000E+00  0.00000000000E+00  0.57193016869E+03  0.57193016869E+03  0.00000000000E+00 0.  1.
          2   -1    0    0  501    0  0.00000000000E+00 -0.00000000000E+00 -0.14887799553E+04  0.14887799553E+04  0.00000000000E+00 0. -1.
         24    2    1    2    0    0 -0.15049013780E+03  0.59713694711E+03  0.29521868933E+02  0.62143862915E+03  0.78068008027E+02 0.  0.
        254    2    1    2    0    0  0.15049013780E+03 -0.59713694711E+03 -0.94637165555E+03  0.14392714949E+04  0.89255997574E+03 0.  0.
         23    2    4    4    0    0  0.16394591497E+03 -0.11704258709E+03  0.13052517944E+03  0.25661454677E+03  0.90757770565E+02 0.  0.
         23    2    4    4    0    0 -0.13455777172E+02 -0.48009436002E+03 -0.10768968350E+04  0.11826569481E+04  0.91098908718E+02 0.  0.
          4    1    3    3  502    0 -0.78238568251E+02  0.35595010907E+03  0.54200935073E+02  0.36845555373E+03  0.00000000000E+00 0. -1.
         -3    1    3    3    0  502 -0.72251569551E+02  0.24118683804E+03 -0.24679066140E+02  0.25298307542E+03  0.00000000000E+00 0.  1.
         13    1    5    5    0    0  0.89230826762E+02 -0.98797378485E+02  0.11954386020E+03  0.17892399770E+03  0.00000000000E+00 0.  1.
        -13    1    5    5    0    0  0.74715088211E+02 -0.18245208606E+02  0.10981319240E+02  0.77690549076E+02  0.00000000000E+00 0. -1.
          3    1    6    6  503    0 -0.44503710521E+02 -0.13057863924E+03 -0.30370957916E+03  0.33357288521E+03  0.00000000000E+00 0. -1.
         -3    1    6    6    0  503  0.31047933349E+02 -0.34951572078E+03 -0.77318725583E+03  0.84908406287E+03  0.00000000000E+00 0.  1.
<mgrwt>
<rscale>  0 0.18455115E+04</rscale>
<asrwt>0</asrwt>
<pdfrwt beam="1">  1        2 0.22904307E+00 0.18455115E+04</pdfrwt>
<pdfrwt beam="2">  1       -1 0.87989258E-01 0.18455115E+04</pdfrwt>
<totfact> 0.17527860E+01</totfact>
</mgrwt>
</event>
<event>
12    7  0.1661464E-007  0.3591156E+04  0.7818608E-02  0.8092520E-01
         -3   -1    0    0    0  501 -0.00000000000E+00  0.00000000000E+00  0.11959757938E+04  0.11959757938E+04  0.00000000000E+00 0.  1.
          2   -1    0    0  501    0  0.00000000000E+00 -0.00000000000E+00 -0.26957911143E+04  0.26957911143E+04  0.00000000000E+00 0. -1.
         24    2    1    2    0    0  0.94664922718E+03  0.63924951256E+03  0.63532199397E+03  0.13095650094E+04  0.80881265933E+02 0.  0.
        254    2    1    2    0    0 -0.94664922718E+03 -0.63924951256E+03 -0.21351373145E+04  0.25822018988E+04  0.89675559418E+03 0.  0.
         23    2    4    4    0    0 -0.13183038744E+03 -0.51052159985E+03 -0.43284454304E+03  0.68836079450E+03  0.92057753633E+02 0.  0.
         23    2    4    4    0    0 -0.81481883975E+03 -0.12872791272E+03 -0.17022927714E+04  0.18938411043E+04  0.91284343745E+02 0.  0.
          2    1    3    3  502    0  0.37762976698E+03  0.22008359351E+03  0.27334959095E+03  0.51552015277E+03  0.00000000000E+00 0. -1.
         -1    1    3    3    0  502  0.56901946021E+03  0.41916591905E+03  0.36197240302E+03  0.79404485663E+03  0.00000000000E+00 0.  1.
         13    1    5    5    0    0 -0.39606536543E+01 -0.27878013004E+02 -0.92775198952E+00  0.28173233932E+02  0.00000000000E+00 0. -1.
        -13    1    5    5    0    0 -0.12786973378E+03 -0.48264358684E+03 -0.43191679105E+03  0.66018756057E+03  0.00000000000E+00 0.  1.
          3    1    6    6  503    0 -0.17047252086E+03 -0.23599423530E+02 -0.27651312256E+03  0.32569513369E+03  0.00000000000E+00 0. -1.
         -3    1    6    6    0  503 -0.64434631889E+03 -0.10512848919E+03 -0.14257796489E+04  0.15681459706E+04  0.00000000000E+00 0.  1.
<mgrwt>
<rscale>  0 0.35911563E+04</rscale>
<asrwt>0</asrwt>
<pdfrwt beam="1">  1        2 0.41473709E+00 0.35911563E+04</pdfrwt>
<pdfrwt beam="2">  1       -3 0.18399628E+00 0.35911563E+04</pdfrwt>
<totfact> 0.25687836E-01</totfact>
</mgrwt>
</event>
<event>
12    7  0.1661464E-007  0.2352212E+04  0.7818608E-02  0.8457614E-01
          2   -1    0    0  501    0  0.00000000000E+00  0.00000000000E+00  0.20341078120E+04  0.20341078120E+04  0.00000000000E+00 0. -1.
         -1   -1    0    0    0  501 -0.00000000000E+00 -0.00000000000E+00 -0.68001582927E+03  0.68001582927E+03  0.00000000000E+00 0.  1.
         24    2    1    2    0    0 -0.51711292169E+03 -0.74652602317E+03  0.10652759921E+04  0.14020321556E+04  0.78577026823E+02 0.  0.
        254    2    1    2    0    0  0.51711292169E+03  0.74652602317E+03  0.28881599064E+03  0.13120914856E+04  0.90192156702E+03 0.  0.
         23    2    4    4    0    0  0.17319859055E+03  0.54475910575E+03  0.57272684176E+03  0.81409788418E+03  0.89325778351E+02 0.  0.
         23    2    4    4    0    0  0.34391433114E+03  0.20176691742E+03 -0.28391085112E+03  0.49799360141E+03  0.91680420656E+02 0.  0.
          2    1    3    3  502    0 -0.10024971284E+03 -0.98406266853E+02  0.18040863779E+03  0.22865055186E+03  0.00000000000E+00 0. -1.
         -1    1    3    3    0  502 -0.41686320886E+03 -0.64811975632E+03  0.88486735427E+03  0.11733816038E+04  0.00000000000E+00 0.  1.
         13    1    5    5    0    0  0.99828255337E+02  0.43354901755E+03  0.45388239406E+03  0.63556247436E+03  0.00000000000E+00 0. -1.
        -13    1    5    5    0    0  0.73370335217E+02  0.11121008821E+03  0.11884444770E+03  0.17853540981E+03  0.00000000000E+00 0.  1.
          3    1    6    6  503    0  0.19421947207E+03  0.69353694782E+02 -0.17449803332E+03  0.27014940671E+03  0.00000000000E+00 0. -1.
         -3    1    6    6    0  503  0.14969485907E+03  0.13241322264E+03 -0.10941281781E+03  0.22784419470E+03  0.00000000000E+00 0.  1.
<mgrwt>
<rscale>  0 0.23522122E+04</rscale>
<asrwt>0</asrwt>
<pdfrwt beam="1">  1        2 0.31293966E+00 0.23522122E+04</pdfrwt>
<pdfrwt beam="2">  1       -1 0.10461782E+00 0.23522122E+04</pdfrwt>
<totfact> 0.56408137E+00</totfact>
</mgrwt>
</event>
<event>
12    7  0.1661464E-007  0.1447141E+04  0.7818608E-02  0.8920385E-01
          2   -1    0    0  501    0  0.00000000000E+00  0.00000000000E+00  0.26318757330E+03  0.26318757330E+03  0.00000000000E+00 0. -1.
         -1   -1    0    0    0  501 -0.00000000000E+00 -0.00000000000E+00 -0.19892814054E+04  0.19892814054E+04  0.00000000000E+00 0.  1.
         24    2    1    2    0    0  0.11070904687E+03 -0.41581283782E+03 -0.50925425037E+03  0.67141314641E+03  0.79365688394E+02 0.  0.
        254    2    1    2    0    0 -0.11070904687E+03  0.41581283782E+03 -0.12168395817E+04  0.15810558323E+04  0.91317148880E+03 0.  0.
         23    2    4    4    0    0 -0.20219224550E+03  0.23569238905E+03 -0.13034178664E+04  0.13428210978E+04  0.88531124355E+02 0.  0.
         23    2    4    4    0    0  0.91483198631E+02  0.18012044877E+03  0.86578284686E+02  0.23823473442E+03  0.91909942916E+02 0.  0.
          4    1    3    3  502    0  0.64303792302E+02 -0.13578451500E+03 -0.13732567502E+03  0.20354545743E+03  0.00000000000E+00 0. -1.
         -3    1    3    3    0  502  0.46405254566E+02 -0.28002832282E+03 -0.37192857535E+03  0.46786768899E+03  0.00000000000E+00 0.  1.
         13    1    5    5    0    0 -0.18546648662E+03  0.16087134164E+03 -0.95333555020E+03  0.98444201327E+03  0.00000000000E+00 0.  1.
        -13    1    5    5    0    0 -0.16725758880E+02  0.74821047413E+02 -0.35008231620E+03  0.35837908458E+03  0.00000000000E+00 0. -1.
          3    1    6    6  503    0 -0.14653500356E+02  0.31839678177E+02  0.33085037457E+02  0.48198650216E+02  0.00000000000E+00 0. -1.
         -3    1    6    6    0  503  0.10613669899E+03  0.14828077060E+03  0.53493247230E+02  0.19003608420E+03  0.00000000000E+00 0.  1.
<mgrwt>
<rscale>  0 0.14471408E+04</rscale>
<asrwt>0</asrwt>
<pdfrwt beam="1">  1        2 0.40490397E-01 0.14471408E+04</pdfrwt>
<pdfrwt beam="2">  1       -1 0.30604329E+00 0.14471408E+04</pdfrwt>
<totfact> 0.42749444E+00</totfact>
</mgrwt>
</event>
<event>
12    7  0.1661464E-007  0.1515370E+04  0.7818608E-02  0.8874296E-01
         -1   -1    0    0    0  501 -0.00000000000E+00  0.00000000000E+00  0.24539037606E+03  0.24539037606E+03  0.00000000000E+00 0.  1.
          2   -1    0    0  501    0  0.00000000000E+00 -0.00000000000E+00 -0.23394839513E+04  0.23394839513E+04  0.00000000000E+00 0. -1.
         24    2    1    2    0    0  0.28604908549E+03  0.37496539928E+03 -0.87045933743E+03  0.99326456621E+03  0.80323784803E+02 0.  0.
        254    2    1    2    0    0 -0.28604908549E+03 -0.37496539928E+03 -0.12236342378E+04  0.15916097612E+04  0.90195219046E+03 0.  0.
         23    2    4    4    0    0 -0.11273439841E+03  0.56863973863E+02  0.98977877553E+02  0.18650315879E+03  0.95101271736E+02 0.  0.
         23    2    4    4    0    0 -0.17331468708E+03 -0.43182937314E+03 -0.13226121154E+04  0.14051066024E+04  0.92234310271E+02 0.  0.
          2    1    3    3  502    0  0.23838746155E+03  0.31248899525E+03 -0.78008377795E+03  0.87350366605E+03  0.00000000000E+00 0. -1.
         -1    1    3    3    0  502  0.47661623941E+02  0.62476404028E+02 -0.90375559485E+02  0.11976090017E+03  0.00000000000E+00 0.  1.
         13    1    5    5    0    0 -0.92267664194E+02 -0.54851907402E+01  0.59311414653E+02  0.10982373642E+03  0.00000000000E+00 0.  1.
        -13    1    5    5    0    0 -0.20466734218E+02  0.62349164603E+02  0.39666462900E+02  0.76679422372E+02  0.00000000000E+00 0. -1.
          1    1    6    6  503    0 -0.10865822690E+03 -0.30225908159E+03 -0.10247869999E+04  0.10739439268E+04  0.00000000000E+00 0. -1.
         -1    1    6    6    0  503 -0.64656460181E+02 -0.12957029156E+03 -0.29782511545E+03  0.33116267557E+03  0.00000000000E+00 0.  1.
<mgrwt>
<rscale>  0 0.15153704E+04</rscale>
<asrwt>0</asrwt>
<pdfrwt beam="1">  1        2 0.35992059E+00 0.15153704E+04</pdfrwt>
<pdfrwt beam="2">  1       -1 0.37752367E-01 0.15153704E+04</pdfrwt>
<totfact> 0.32082724E+01</totfact>
</mgrwt>
</event>
<event>
12    7  0.1661464E-007  0.1748739E+04  0.7818608E-02  0.8734044E-01
          2   -1    0    0  501    0  0.00000000000E+00  0.00000000000E+00  0.18760777860E+04  0.18760777860E+04  0.00000000000E+00 0. -1.
         -1   -1    0    0    0  501 -0.00000000000E+00 -0.00000000000E+00 -0.40751102857E+03  0.40751102857E+03  0.00000000000E+00 0.  1.
         24    2    1    2    0    0 -0.52106107397E+03 -0.30938430349E+03  0.27586512312E+03  0.67083927190E+03  0.81856414044E+02 0.  0.
        254    2    1    2    0    0  0.52106107397E+03  0.30938430349E+03  0.11927016343E+04  0.16127495427E+04  0.90066675794E+03 0.  0.
         23    2    4    4    0    0  0.58415256284E+03  0.47094998883E+03  0.53306270696E+03  0.92460123523E+03  0.87769504823E+02 0.  0.
         23    2    4    4    0    0 -0.63091488873E+02 -0.16156568534E+03  0.65963892733E+03  0.68814830744E+03  0.91326731732E+02 0.  0.
          4    1    3    3  502    0 -0.23497206886E+03 -0.14257775051E+03  0.16995846860E+03  0.32315038161E+03  0.00000000000E+00 0. -1.
         -3    1    3    3    0  502 -0.28608900511E+03 -0.16680655298E+03  0.10590665451E+03  0.34768889029E+03  0.00000000000E+00 0.  1.
         13    1    5    5    0    0  0.49758719254E+03  0.43570894471E+03  0.45443508857E+03  0.80246280188E+03  0.00000000000E+00 0.  1.
        -13    1    5    5    0    0  0.86565370302E+02  0.35241044120E+02  0.78627618393E+02  0.12213843335E+03  0.00000000000E+00 0. -1.
          3    1    6    6  503    0  0.58443993396E+01  0.92019590187E+01  0.23797480308E+02  0.26175429747E+02  0.00000000000E+00 0. -1.
         -3    1    6    6    0  503 -0.68935888212E+02 -0.17076764436E+03  0.63584144702E+03  0.66197287769E+03  0.00000000000E+00 0.  1.
<mgrwt>
<rscale>  0 0.17487394E+04</rscale>
<asrwt>0</asrwt>
<pdfrwt beam="1">  1        2 0.28862735E+00 0.17487394E+04</pdfrwt>
<pdfrwt beam="2">  1       -1 0.62694006E-01 0.17487394E+04</pdfrwt>
<totfact> 0.21812100E+01</totfact>
</mgrwt>
</event>
<event>
12    7  0.1661464E-007  0.1427950E+04  0.7818608E-02  0.8933832E-01
         -1   -1    0    0    0  501 -0.00000000000E+00  0.00000000000E+00  0.46423468886E+03  0.46423468886E+03  0.00000000000E+00 0.  1.
          2   -1    0    0  501    0  0.00000000000E+00 -0.00000000000E+00 -0.10980660931E+04  0.10980660931E+04  0.00000000000E+00 0. -1.
         24    2    1    2    0    0  0.23050057285E+03  0.37512596977E+02  0.19549378219E+03  0.31511848926E+03  0.80895824272E+02 0.  0.
        254    2    1    2    0    0 -0.23050057285E+03 -0.37512596977E+02 -0.82932518643E+03  0.12471822927E+04  0.90174591620E+03 0.  0.
         23    2    4    4    0    0  0.25841707522E+03  0.19353369854E+03 -0.51616183118E+03  0.61560650657E+03  0.91179261488E+02 0.  0.
         23    2    4    4    0    0 -0.48891764807E+03 -0.23104629552E+03 -0.31316335525E+03  0.63157578614E+03  0.91617843776E+02 0.  0.
          4    1    3    3  502    0  0.60438469401E+02  0.17610349086E+02  0.11888678350E+02  0.64064605293E+02  0.00000000000E+00 0. -1.
         -3    1    3    3    0  502  0.17006210345E+03  0.19902247891E+02  0.18360510384E+03  0.25105388397E+03  0.00000000000E+00 0.  1.
         13    1    5    5    0    0  0.13227948983E+03  0.15429268565E+03 -0.32170155579E+03  0.38052067916E+03  0.00000000000E+00 0. -1.
        -13    1    5    5    0    0  0.12613758539E+03  0.39241012891E+02 -0.19446027539E+03  0.23508582740E+03  0.00000000000E+00 0.  1.
          3    1    6    6  503    0 -0.15956184759E+02  0.74108004192E+01 -0.32284000838E+01  0.17886932717E+02  0.00000000000E+00 0. -1.
         -3    1    6    6    0  503 -0.47296146331E+03 -0.23845709594E+03 -0.30993495517E+03  0.61368885342E+03  0.00000000000E+00 0.  1.
<mgrwt>
<rscale>  0 0.14279501E+04</rscale>
<asrwt>0</asrwt>
<pdfrwt beam="1">  1        2 0.16893324E+00 0.14279501E+04</pdfrwt>
<pdfrwt beam="2">  1       -1 0.71420722E-01 0.14279501E+04</pdfrwt>
<totfact> 0.47914687E+01</totfact>
</mgrwt>
</event>
<event>
12    7  0.1661464E-007  0.2393272E+04  0.7818608E-02  0.8442027E-01
          2   -1    0    0  501    0  0.00000000000E+00  0.00000000000E+00  0.10170508225E+04  0.10170508225E+04  0.00000000000E+00 0. -1.
         -1   -1    0    0    0  501 -0.00000000000E+00 -0.00000000000E+00 -0.14079309128E+04  0.14079309128E+04  0.00000000000E+00 0.  1.
         24    2    1    2    0    0 -0.42579290961E+03 -0.84297448760E+03 -0.59135237853E+03  0.11175653186E+04  0.85726409035E+02 0.  0.
        254    2    1    2    0    0  0.42579290961E+03  0.84297448760E+03  0.20047228826E+03  0.13074164167E+04  0.88161383820E+03 0.  0.
         23    2    4    4    0    0 -0.43637996924E+02  0.80292795363E+03  0.17032553724E+03  0.82704918746E+03  0.91662404276E+02 0.  0.
         23    2    4    4    0    0  0.46943090653E+03  0.40046533977E+02  0.30146751025E+02  0.48036722925E+03  0.88739773772E+02 0.  0.
          4    1    3    3  502    0 -0.17099937545E+03 -0.32423512782E+03 -0.27868717665E+03  0.46047339440E+03  0.00000000000E+00 0. -1.
         -3    1    3    3    0  502 -0.25479353416E+03 -0.51873935978E+03 -0.31266520188E+03  0.65709192424E+03  0.00000000000E+00 0.  1.
         13    1    5    5    0    0 -0.40130665836E+02  0.46580066405E+03  0.55123013266E+02  0.47076456489E+03  0.00000000000E+00 0. -1.
        -13    1    5    5    0    0 -0.35073310877E+01  0.33712728958E+03  0.11520252397E+03  0.35628462257E+03  0.00000000000E+00 0.  1.
          1    1    6    6  503    0  0.19969717510E+03 -0.18263593602E+02  0.38878654621E+02  0.20426470664E+03  0.00000000000E+00 0. -1.
         -1    1    6    6    0  503  0.26973373144E+03  0.58310127579E+02 -0.87319035965E+01  0.27610252261E+03  0.00000000000E+00 0.  1.
<mgrwt>
<rscale>  0 0.23932716E+04</rscale>
<asrwt>0</asrwt>
<pdfrwt beam="1">  1        2 0.15646936E+00 0.23932716E+04</pdfrwt>
<pdfrwt beam="2">  1       -1 0.21660476E+00 0.23932716E+04</pdfrwt>
<totfact> 0.29224685E+00</totfact>
</mgrwt>
</event>
<event>
12    7  0.1661464E-007  0.1423066E+04  0.7818608E-02  0.8937289E-01
         -1   -1    0    0    0  501 -0.00000000000E+00  0.00000000000E+00  0.24688636415E+03  0.24688636415E+03  0.00000000000E+00 0.  1.
          2   -1    0    0  501    0  0.00000000000E+00 -0.00000000000E+00 -0.20506579255E+04  0.20506579255E+04  0.00000000000E+00 0. -1.
         24    2    1    2    0    0  0.28292029152E+03  0.28936983400E+03 -0.69990209613E+03  0.81242629496E+03  0.79967170707E+02 0.  0.
        254    2    1    2    0    0 -0.28292029152E+03 -0.28936983400E+03 -0.11038694652E+04  0.14851179946E+04  0.90734164994E+03 0.  0.
         23    2    4    4    0    0  0.76893167004E+02 -0.53426624908E+03 -0.64454220182E+03  0.84562334661E+03  0.91056083634E+02 0.  0.
         23    2    4    4    0    0 -0.35981345852E+03  0.24489641508E+03 -0.45932726336E+03  0.63949464804E+03  0.92368235672E+02 0.  0.
          2    1    3    3  502    0  0.73075829582E+01  0.40128216356E+02 -0.63167561527E+02  0.75191856912E+02  0.00000000000E+00 0. -1.
         -1    1    3    3    0  502  0.27561270856E+03  0.24924161764E+03 -0.63673453461E+03  0.73723443805E+03  0.00000000000E+00 0.  1.
         13    1    5    5    0    0  0.13755481708E+02 -0.12182659869E+03 -0.92209326654E+02  0.15340630152E+03  0.00000000000E+00 0.  1.
        -13    1    5    5    0    0  0.63137685296E+02 -0.41243965039E+03 -0.55233287516E+03  0.69221704508E+03  0.00000000000E+00 0. -1.
          3    1    6    6  503    0 -0.33578027014E+03  0.19245119144E+03 -0.39267127950E+03  0.55134071557E+03  0.00000000000E+00 0. -1.
         -3    1    6    6    0  503 -0.24033188379E+02  0.52445223636E+02 -0.66655983861E+02  0.88153932473E+02  0.00000000000E+00 0.  1.
<mgrwt>
<rscale>  0 0.14230664E+04</rscale>
<asrwt>0</asrwt>
<pdfrwt beam="1">  1        2 0.31548585E+00 0.14230664E+04</pdfrwt>
<pdfrwt beam="2">  1       -1 0.37982516E-01 0.14230664E+04</pdfrwt>
<totfact> 0.46423344E+01</totfact>
</mgrwt>
</event>
<event>
12    7  0.1661464E-007  0.2068246E+04  0.7818608E-02  0.8575362E-01
          2   -1    0    0  501    0  0.00000000000E+00  0.00000000000E+00  0.11427624725E+04  0.11427624725E+04  0.00000000000E+00 0. -1.
         -1   -1    0    0    0  501 -0.00000000000E+00 -0.00000000000E+00 -0.93581186882E+03  0.93581186882E+03  0.00000000000E+00 0.  1.
         24    2    1    2    0    0 -0.81580276800E+03  0.11309640660E+03  0.18747918377E+02  0.82766035668E+03  0.79656940141E+02 0.  0.
        254    2    1    2    0    0  0.81580276800E+03 -0.11309640660E+03  0.18820268530E+03  0.12509139846E+04  0.92251861376E+03 0.  0.
         23    2    4    4    0    0 -0.12257515119E+03 -0.22409293054E+03 -0.40512214175E+02  0.27440513115E+03  0.91731277619E+02 0.  0.
         23    2    4    4    0    0  0.93837791920E+03  0.11099652394E+03  0.22871489948E+03  0.97650885349E+03  0.91573403015E+02 0.  0.
          2    1    3    3  502    0 -0.89294204785E+02 -0.10372339363E+02  0.12096428328E+02  0.90704818010E+02  0.00000000000E+00 0. -1.
         -1    1    3    3    0  502 -0.72650856322E+03  0.12346874596E+03  0.66514900485E+01  0.73695553867E+03  0.00000000000E+00 0.  1.
         13    1    5    5    0    0 -0.42765365079E+02 -0.16554770613E+03 -0.39188873707E+02  0.17541575550E+03  0.00000000000E+00 0. -1.
        -13    1    5    5    0    0 -0.79809786116E+02 -0.58545224414E+02 -0.13233404688E+01  0.98989375650E+02  0.00000000000E+00 0.  1.
          1    1    6    6  503    0  0.51171085770E+03  0.50481848657E+02  0.17012117063E+03  0.54160652842E+03  0.00000000000E+00 0. -1.
         -1    1    6    6    0  503  0.42666706150E+03  0.60514675286E+02  0.58593728850E+02  0.43490232507E+03  0.00000000000E+00 0.  1.
<mgrwt>
<rscale>  0 0.20682463E+04</rscale>
<asrwt>0</asrwt>
<pdfrwt beam="1">  1        2 0.17580961E+00 0.20682463E+04</pdfrwt>
<pdfrwt beam="2">  1       -1 0.14397106E+00 0.20682463E+04</pdfrwt>
<totfact> 0.84138202E+00</totfact>
</mgrwt>
</event>
<event>
12    7  0.1661464E-007  0.1413537E+04  0.7818608E-02  0.8944077E-01
          2   -1    0    0  501    0  0.00000000000E+00  0.00000000000E+00  0.23090611955E+04  0.23090611955E+04  0.00000000000E+00 0. -1.
         -1   -1    0    0    0  501 -0.00000000000E+00 -0.00000000000E+00 -0.21633121445E+03  0.21633121445E+03  0.00000000000E+00 0.  1.
         24    2    1    2    0    0 -0.22640563588E+03 -0.70310841690E+02  0.15134218681E+02  0.24910239486E+03  0.74965539638E+02 0.  0.
        254    2    1    2    0    0  0.22640563588E+03  0.70310841690E+02  0.20775957624E+04  0.22762900151E+04  0.89938254073E+03 0.  0.
         23    2    4    4    0    0 -0.32971606802E+03 -0.65984878401E+02  0.72558230887E+03  0.80519413220E+03  0.93814785101E+02 0.  0.
         23    2    4    4    0    0  0.55612170390E+03  0.13629572009E+03  0.13520134535E+04  0.14710958829E+04  0.91295374169E+02 0.  0.
          2    1    3    3  502    0 -0.18352864416E+02  0.10543668488E+02 -0.11863655184E+02  0.24264024641E+02  0.00000000000E+00 0. -1.
         -1    1    3    3    0  502 -0.20805277146E+03 -0.80854510178E+02  0.26997873866E+02  0.22483837022E+03  0.00000000000E+00 0.  1.
         13    1    5    5    0    0 -0.22058918566E+03 -0.32726467693E+02  0.37262554805E+03  0.43425845942E+03  0.00000000000E+00 0. -1.
        -13    1    5    5    0    0 -0.10912688236E+03 -0.33258410708E+02  0.35295676082E+03  0.37093567278E+03  0.00000000000E+00 0.  1.
          1    1    6    6  503    0  0.49695026940E+03  0.14995635719E+03  0.12117160556E+04  0.13182193591E+04  0.00000000000E+00 0. -1.
         -1    1    6    6    0  503  0.59171434499E+02 -0.13660637104E+02  0.14029739791E+03  0.15287652380E+03  0.00000000000E+00 0.  1.
<mgrwt>
<rscale>  0 0.14135374E+04</rscale>
<asrwt>0</asrwt>
<pdfrwt beam="1">  1        2 0.35524017E+00 0.14135374E+04</pdfrwt>
<pdfrwt beam="2">  1       -1 0.33281727E-01 0.14135374E+04</pdfrwt>
<totfact> 0.42219995E+01</totfact>
</mgrwt>
</event>
<event>
12    7  0.1661464E-007  0.1374293E+04  0.7818608E-02  0.8972639E-01
         -1   -1    0    0    0  501 -0.00000000000E+00  0.00000000000E+00  0.67881400732E+03  0.67881400732E+03  0.00000000000E+00 0.  1.
          2   -1    0    0  501    0  0.00000000000E+00 -0.00000000000E+00 -0.69558154783E+03  0.69558154783E+03  0.00000000000E+00 0. -1.
         24    2    1    2    0    0 -0.15274821581E+03  0.25867126371E+03  0.23953662205E+03  0.39076412516E+03  0.71245828725E+02 0.  0.
        254    2    1    2    0    0  0.15274821581E+03 -0.25867126371E+03 -0.25630416255E+03  0.98363142998E+03  0.90088630037E+03 0.  0.
         23    2    4    4    0    0 -0.26096093340E+02  0.14219431236E+03 -0.45995429138E+03  0.49140925566E+03  0.94999357055E+02 0.  0.
         23    2    4    4    0    0  0.17884430915E+03 -0.40086557607E+03  0.20365012882E+03  0.49222217432E+03  0.90170931708E+02 0.  0.
          2    1    3    3  502    0 -0.61682445020E+02  0.49339205579E+02  0.45475155822E+02  0.91143134836E+02  0.00000000000E+00 0. -1.
         -1    1    3    3    0  502 -0.91065770788E+02  0.20933205813E+03  0.19406146622E+03  0.29962099033E+03  0.00000000000E+00 0.  1.
         13    1    5    5    0    0 -0.52304511821E+02  0.85193636550E+02 -0.19503723604E+03  0.21916487197E+03  0.00000000000E+00 0. -1.
        -13    1    5    5    0    0  0.26208418481E+02  0.57000675809E+02 -0.26491705534E+03  0.27224438369E+03  0.00000000000E+00 0.  1.
          2    1    6    6  503    0  0.44763059075E+02 -0.17571282961E+03  0.48557895783E+02  0.18771414222E+03  0.00000000000E+00 0. -1.
         -2    1    6    6    0  503  0.13408125007E+03 -0.22515274646E+03  0.15509223304E+03  0.30450803209E+03  0.00000000000E+00 0.  1.
<mgrwt>
<rscale>  0 0.13742933E+04</rscale>
<asrwt>0</asrwt>
<pdfrwt beam="1">  1        2 0.10701255E+00 0.13742933E+04</pdfrwt>
<pdfrwt beam="2">  1       -1 0.10443292E+00 0.13742933E+04</pdfrwt>
<totfact> 0.39680962E+01</totfact>
</mgrwt>
</event>
<event>
12    7  0.1661464E-007  0.1306242E+04  0.7818608E-02  0.9024630E-01
          2   -1    0    0  501    0  0.00000000000E+00  0.00000000000E+00  0.17957890477E+04  0.17957890477E+04  0.00000000000E+00 0. -1.
         -1   -1    0    0    0  501 -0.00000000000E+00 -0.00000000000E+00 -0.23753750075E+03  0.23753750075E+03  0.00000000000E+00 0.  1.
         24    2    1    2    0    0  0.10379154614E+03 -0.72187019642E+02 -0.75480485825E+02  0.16789564901E+03  0.80672141170E+02 0.  0.
        254    2    1    2    0    0 -0.10379154614E+03  0.72187019642E+02  0.16337320328E+04  0.18654308995E+04  0.89149786025E+03 0.  0.
         23    2    4    4    0    0 -0.23304911582E+03  0.43591363456E+03  0.95510040132E+03  0.10792103357E+04  0.90252894191E+02 0.  0.
         23    2    4    4    0    0  0.12925756968E+03 -0.36372661492E+03  0.67863163149E+03  0.78622056377E+03  0.92721701389E+02 0.  0.
          2    1    3    3  502    0  0.22703974610E+01 -0.44290618654E+02 -0.27596916982E+02  0.52234121341E+02  0.00000000000E+00 0. -1.
         -1    1    3    3    0  502  0.10152114868E+03 -0.27896400988E+02 -0.47883568843E+02  0.11566152767E+03  0.00000000000E+00 0.  1.
         13    1    5    5    0    0 -0.18225743179E+03  0.25661765702E+03  0.63769680382E+03  0.71114527836E+03  0.00000000000E+00 0.  1.
        -13    1    5    5    0    0 -0.50791684032E+02  0.17929597755E+03  0.31740359750E+03  0.36806505735E+03  0.00000000000E+00 0. -1.
          3    1    6    6  503    0 -0.83211044758E+01 -0.20303787904E+02  0.75879047020E+02  0.78988064666E+02  0.00000000000E+00 0. -1.
         -3    1    6    6    0  503  0.13757867416E+03 -0.34342282702E+03  0.60275258447E+03  0.70723249910E+03  0.00000000000E+00 0.  1.
<mgrwt>
<rscale>  0 0.13062423E+04</rscale>
<asrwt>0</asrwt>
<pdfrwt beam="1">  1        2 0.27627523E+00 0.13062423E+04</pdfrwt>
<pdfrwt beam="2">  1       -1 0.36544232E-01 0.13062423E+04</pdfrwt>
<totfact> 0.69525484E+01</totfact>
</mgrwt>
</event>
<event>
12    7  0.1661464E-007  0.1897718E+04  0.7818608E-02  0.8655993E-01
         -1   -1    0    0    0  501 -0.00000000000E+00  0.00000000000E+00  0.37343584504E+03  0.37343584504E+03  0.00000000000E+00 0.  1.
          2   -1    0    0  501    0  0.00000000000E+00 -0.00000000000E+00 -0.24109465211E+04  0.24109465211E+04  0.00000000000E+00 0. -1.
         24    2    1    2    0    0 -0.34823053075E+03 -0.20638888057E+03  0.10239080867E+03  0.42473011542E+03  0.77787664045E+02 0.  0.
        254    2    1    2    0    0  0.34823053075E+03  0.20638888057E+03 -0.21399014847E+04  0.23596522507E+04  0.90825079543E+03 0.  0.
         23    2    4    4    0    0  0.58501358850E+03  0.13806961221E+03 -0.85685249809E+03  0.10503022579E+04  0.87375700206E+02 0.  0.
         23    2    4    4    0    0 -0.23678305774E+03  0.68319268356E+02 -0.12830489866E+04  0.13093499928E+04  0.86307373036E+02 0.  0.
          4    1    3    3  502    0 -0.14216257016E+03 -0.10741012651E+03  0.10947045401E+02  0.17851321922E+03  0.00000000000E+00 0. -1.
         -3    1    3    3    0  502 -0.20606796059E+03 -0.98978754054E+02  0.91443763270E+02  0.24621689621E+03  0.00000000000E+00 0.  1.
         13    1    5    5    0    0  0.69925993903E+01  0.72986511259E+01 -0.23017157145E+01  0.10366515795E+02  0.00000000000E+00 0. -1.
        -13    1    5    5    0    0  0.57802098911E+03  0.13077096108E+03 -0.85455078238E+03  0.10399357421E+04  0.00000000000E+00 0.  1.
          4    1    6    6  503    0 -0.50426404722E+02 -0.48747417333E+01 -0.13968190575E+03  0.14858539698E+03  0.00000000000E+00 0. -1.
         -4    1    6    6    0  503 -0.18635665302E+03  0.73194010089E+02 -0.11433670809E+04  0.11607645958E+04  0.00000000000E+00 0.  1.
<mgrwt>
<rscale>  0 0.18977185E+04</rscale>
<asrwt>0</asrwt>
<pdfrwt beam="1">  1        2 0.37091485E+00 0.18977185E+04</pdfrwt>
<pdfrwt beam="2">  1       -1 0.57451669E-01 0.18977185E+04</pdfrwt>
<totfact> 0.12829699E+01</totfact>
</mgrwt>
</event>
<event>
12    7  0.1661464E-007  0.2179951E+04  0.7818608E-02  0.8526820E-01
         -1   -1    0    0    0  501 -0.00000000000E+00  0.00000000000E+00  0.64747398870E+03  0.64747398870E+03  0.00000000000E+00 0.  1.
          2   -1    0    0  501    0  0.00000000000E+00 -0.00000000000E+00 -0.18348944852E+04  0.18348944852E+04  0.00000000000E+00 0. -1.
         24    2    1    2    0    0  0.59571477052E+03 -0.56444135062E+03 -0.93028228833E+03  0.12428116547E+04  0.75402566602E+02 0.  0.
        254    2    1    2    0    0 -0.59571477052E+03  0.56444135062E+03 -0.25713820813E+03  0.12395568191E+04  0.89269867460E+03 0.  0.
         23    2    4    4    0    0 -0.28471871008E+03  0.64280055165E+03  0.13822033746E+03  0.72191389576E+03  0.88303556695E+02 0.  0.
         23    2    4    4    0    0 -0.31099606045E+03 -0.78359201032E+02 -0.39535854559E+03  0.51764292336E+03  0.93739546279E+02 0.  0.
          4    1    3    3  502    0  0.15019409359E+03 -0.15353928372E+03 -0.29366051534E+03  0.36382561161E+03  0.00000000000E+00 0. -1.
         -3    1    3    3    0  502  0.44552067694E+03 -0.41090206690E+03 -0.63662177299E+03  0.87898604313E+03  0.00000000000E+00 0.  1.
         13    1    5    5    0    0 -0.22788832866E+03  0.52422932755E+03  0.14673003286E+03  0.59015182855E+03  0.00000000000E+00 0.  1.
        -13    1    5    5    0    0 -0.56830381414E+02  0.11857122411E+03 -0.85096954028E+01  0.13176206720E+03  0.00000000000E+00 0. -1.
          2    1    6    6  503    0 -0.11318003101E+03  0.17143674027E+02 -0.13554631322E+03  0.17741597449E+03  0.00000000000E+00 0. -1.
         -2    1    6    6    0  503 -0.19781602944E+03 -0.95502875059E+02 -0.25981223237E+03  0.34022694887E+03  0.00000000000E+00 0.  1.
<mgrwt>
<rscale>  0 0.21799509E+04</rscale>
<asrwt>0</asrwt>
<pdfrwt beam="1">  1        2 0.28229145E+00 0.21799509E+04</pdfrwt>
<pdfrwt beam="2">  1       -1 0.99611385E-01 0.21799509E+04</pdfrwt>
<totfact> 0.82717970E+00</totfact>
</mgrwt>
</event>
<event>
12    7  0.1661464E-007  0.1210984E+04  0.7818608E-02  0.9103297E-01
         -1   -1    0    0    0  501 -0.00000000000E+00  0.00000000000E+00  0.10715076345E+03  0.10715076345E+03  0.00000000000E+00 0.  1.
          2   -1    0    0  501    0  0.00000000000E+00 -0.00000000000E+00 -0.34215372590E+04  0.34215372590E+04  0.00000000000E+00 0. -1.
         24    2    1    2    0    0  0.16345457199E+03  0.99797859642E+02 -0.12805626092E+04  0.12972636754E+04  0.79846336813E+02 0.  0.
        254    2    1    2    0    0 -0.16345457199E+03 -0.99797859642E+02 -0.20338238863E+04  0.22314243470E+04  0.89785188427E+03 0.  0.
         23    2    4    4    0    0  0.19022522838E+03 -0.11526504519E+03 -0.17559816871E+04  0.17726112402E+04  0.95954444293E+02 0.  0.
         23    2    4    4    0    0 -0.35367980037E+03  0.15467185545E+02 -0.27784219925E+03  0.45881310685E+03  0.89356277407E+02 0.  0.
          4    1    3    3  502    0  0.10010088788E+03  0.93822692157E+02 -0.70757047451E+03  0.72074882013E+03  0.00000000000E+00 0. -1.
         -3    1    3    3    0  502  0.63353684113E+02  0.59751674854E+01 -0.57299213472E+03  0.57651485528E+03  0.00000000000E+00 0.  1.
         13    1    5    5    0    0  0.83745242555E+02 -0.10564176400E+03 -0.92153411250E+03  0.93134234761E+03  0.00000000000E+00 0.  1.
        -13    1    5    5    0    0  0.10647998583E+03 -0.96232811916E+01 -0.83444757456E+03  0.84126889257E+03  0.00000000000E+00 0. -1.
          1    1    6    6  503    0 -0.31519557382E+03 -0.11602867244E+02 -0.25902616906E+03  0.40813898679E+03  0.00000000000E+00 0. -1.
         -1    1    6    6    0  503 -0.38484226552E+02  0.27070052789E+02 -0.18816030198E+02  0.50674120058E+02  0.00000000000E+00 0.  1.
<mgrwt>
<rscale>  0 0.12109836E+04</rscale>
<asrwt>0</asrwt>
<pdfrwt beam="1">  1        2 0.52639025E+00 0.12109836E+04</pdfrwt>
<pdfrwt beam="2">  1       -1 0.16484736E-01 0.12109836E+04</pdfrwt>
<totfact> 0.29863003E+01</totfact>
</mgrwt>
</event>
<event>
12    7  0.1661464E-007  0.2018742E+04  0.7818608E-02  0.8597908E-01
          2   -1    0    0  501    0  0.00000000000E+00  0.00000000000E+00  0.69048301849E+03  0.69048301849E+03  0.00000000000E+00 0. -1.
         -1   -1    0    0    0  501 -0.00000000000E+00 -0.00000000000E+00 -0.14755315966E+04  0.14755315966E+04  0.00000000000E+00 0.  1.
         24    2    1    2    0    0 -0.74200635536E+02  0.80130328455E+03 -0.43174694474E+03  0.91668897105E+03  0.79501932133E+02 0.  0.
        254    2    1    2    0    0  0.74200635536E+02 -0.80130328455E+03 -0.35330163339E+03  0.12493256441E+04  0.88791882095E+03 0.  0.
         23    2    4    4    0    0  0.36946543141E+03 -0.75832717835E+03 -0.11230298179E+03  0.85569195562E+03  0.89621140184E+02 0.  0.
         23    2    4    4    0    0 -0.29526479587E+03 -0.42976106201E+02 -0.24099865160E+03  0.39363368843E+03  0.88537479122E+02 0.  0.
          4    1    3    3  502    0 -0.22003966662E+02  0.16146190041E+03 -0.12400466569E+03  0.20477127959E+03  0.00000000000E+00 0. -1.
         -3    1    3    3    0  502 -0.52196668873E+02  0.63984138414E+03 -0.30774227905E+03  0.71191769146E+03  0.00000000000E+00 0.  1.
         13    1    5    5    0    0  0.35604767858E+02 -0.53269092410E+02  0.13568682732E+02  0.65493548167E+02  0.00000000000E+00 0.  1.
        -13    1    5    5    0    0  0.33386066355E+03 -0.70505808594E+03 -0.12587166452E+03  0.79019840746E+03  0.00000000000E+00 0. -1.
          3    1    6    6  503    0 -0.16910959359E+03  0.15766689832E+02 -0.15570005495E+03  0.23041082931E+03  0.00000000000E+00 0. -1.
         -3    1    6    6    0  503 -0.12615520229E+03 -0.58742796034E+02 -0.85298596649E+02  0.16322285912E+03  0.00000000000E+00 0.  1.
<mgrwt>
<rscale>  0 0.20187417E+04</rscale>
<asrwt>0</asrwt>
<pdfrwt beam="1">  1        2 0.10622816E+00 0.20187417E+04</pdfrwt>
<pdfrwt beam="2">  1       -1 0.22700486E+00 0.20187417E+04</pdfrwt>
<totfact> 0.43621061E+00</totfact>
</mgrwt>
</event>
<event>
12    7  0.2833918E-007  0.2756198E+04  0.7818608E-02  0.8316998E-01
         -1   -1    0    0    0  501 -0.00000000000E+00  0.00000000000E+00  0.87516567209E+03  0.87516567209E+03  0.00000000000E+00 0.  1.
          2   -1    0    0  501    0  0.00000000000E+00 -0.00000000000E+00 -0.21700535583E+04  0.21700535583E+04  0.00000000000E+00 0. -1.
         24    2    1    2    0    0  0.38585127592E+03  0.10693261312E+03 -0.18631281005E+04  0.19074669858E+04  0.82874556307E+02 0.  0.
        254    2    1    2    0    0 -0.38585127592E+03 -0.10693261312E+03  0.56824021433E+03  0.11377522446E+04  0.90070385697E+03 0.  0.
         23    2    4    4    0    0 -0.28772891532E+03 -0.31980614690E+03 -0.75567905284E+02  0.44583808974E+03  0.89427029698E+02 0.  0.
         23    2    4    4    0    0 -0.98122360600E+02  0.21287353378E+03  0.64380811962E+03  0.69191415484E+03  0.96504734306E+02 0.  0.
          2    1    3    3  502    0  0.38680144588E+03  0.11248783406E+03 -0.18458167551E+04  0.18892613278E+04  0.00000000000E+00 0. -1.
         -1    1    3    3    0  502 -0.95016996109E+00 -0.55552209352E+01 -0.17311345462E+02  0.18205658029E+02  0.00000000000E+00 0.  1.
         13    1    5    5    0    0 -0.20576089965E+03 -0.28140957852E+03 -0.53738665504E+02  0.35272757601E+03  0.00000000000E+00 0. -1.
        -13    1    5    5    0    0 -0.81968015674E+02 -0.38396568383E+02 -0.21829239780E+02  0.93110513727E+02  0.00000000000E+00 0.  1.
          1    1    6    6  503    0 -0.11759019979E+03  0.18777850755E+03  0.55440195280E+03  0.59703412654E+03  0.00000000000E+00 0. -1.
         -1    1    6    6    0  503  0.19467839195E+02  0.25095026231E+02  0.89406166819E+02  0.94880028297E+02  0.00000000000E+00 0.  1.
<mgrwt>
<rscale>  0 0.27561977E+04</rscale>
<asrwt>0</asrwt>
<pdfrwt beam="1">  1        2 0.33385439E+00 0.27561977E+04</pdfrwt>
<pdfrwt beam="2">  1       -1 0.13464087E+00 0.27561977E+04</pdfrwt>
<totfact> 0.24725627E+00</totfact>
</mgrwt>
</event>
<event>
12    7  0.1661464E-007  0.1751996E+04  0.7818608E-02  0.8732252E-01
          2   -1    0    0  501    0  0.00000000000E+00  0.00000000000E+00  0.14662976580E+04  0.14662976580E+04  0.00000000000E+00 0. -1.
         -1   -1    0    0    0  501 -0.00000000000E+00 -0.00000000000E+00 -0.52334042863E+03  0.52334042863E+03  0.00000000000E+00 0.  1.
         24    2    1    2    0    0 -0.27850551973E+03 -0.48257639064E+03  0.63633259815E+03  0.84964882151E+03  0.80861901492E+02 0.  0.
        254    2    1    2    0    0  0.27850551973E+03  0.48257639064E+03  0.30662463123E+03  0.11399892651E+04  0.94610335736E+03 0.  0.
         23    2    4    4    0    0 -0.16387703528E+03  0.11408474984E+02  0.43620295630E+03  0.47470804387E+03  0.89938155578E+02 0.  0.
         23    2    4    4    0    0  0.44238255501E+03  0.47116791565E+03 -0.12957832508E+03  0.66528122126E+03  0.90039054373E+02 0.  0.
          4    1    3    3  502    0 -0.20373081503E+03 -0.37376414085E+03  0.43292270228E+03  0.60714738254E+03  0.00000000000E+00 0. -1.
         -3    1    3    3    0  502 -0.74774704698E+02 -0.10881224979E+03  0.20340989586E+03  0.24250143897E+03  0.00000000000E+00 0.  1.
         13    1    5    5    0    0 -0.96867041347E+02 -0.26586334145E+02  0.16876194373E+03  0.19639412037E+03  0.00000000000E+00 0.  1.
        -13    1    5    5    0    0 -0.67009993933E+02  0.37994809129E+02  0.26744101257E+03  0.27831392350E+03  0.00000000000E+00 0. -1.
          3    1    6    6  503    0  0.21445445744E+03  0.22437926863E+03 -0.10805273510E+03  0.32865204103E+03  0.00000000000E+00 0. -1.
         -3    1    6    6    0  503  0.22792809757E+03  0.24678864702E+03 -0.21525589974E+02  0.33662918023E+03  0.00000000000E+00 0.  1.
<mgrwt>
<rscale>  0 0.17519964E+04</rscale>
<asrwt>0</asrwt>
<pdfrwt beam="1">  1        2 0.22558425E+00 0.17519964E+04</pdfrwt>
<pdfrwt beam="2">  1       -1 0.80513913E-01 0.17519964E+04</pdfrwt>
<totfact> 0.22041379E+01</totfact>
</mgrwt>
</event>
<event>
12    7  0.1661464E-007  0.1219814E+04  0.7818608E-02  0.9095688E-01
         -1   -1    0    0    0  501 -0.00000000000E+00  0.00000000000E+00  0.47425845394E+03  0.47425845394E+03  0.00000000000E+00 0.  1.
          2   -1    0    0  501    0  0.00000000000E+00 -0.00000000000E+00 -0.78435397081E+03  0.78435397081E+03  0.00000000000E+00 0. -1.
         24    2    1    2    0    0  0.22203275876E+02  0.88321134236E+01 -0.35263110037E+03  0.36361043134E+03  0.85398250256E+02 0.  0.
        254    2    1    2    0    0 -0.22203275876E+02 -0.88321134236E+01  0.42535583496E+02  0.89500199340E+03  0.89367124864E+03 0.  0.
         23    2    4    4    0    0  0.14555891552E+03  0.25597148074E+03 -0.29473327802E+03  0.42649835673E+03  0.91237855569E+02 0.  0.
         23    2    4    4    0    0 -0.16776219139E+03 -0.26480359416E+03  0.33726886151E+03  0.46850363667E+03  0.86488590501E+02 0.  0.
          2    1    3    3  502    0 -0.29271889552E+02  0.11081198367E+02 -0.75504271275E+02  0.81734518142E+02  0.00000000000E+00 0. -1.
         -1    1    3    3    0  502  0.51475165428E+02 -0.22490849435E+01 -0.27712682909E+03  0.28187591320E+03  0.00000000000E+00 0.  1.
         13    1    5    5    0    0  0.12239876900E+03  0.18139470367E+03 -0.16114251708E+03  0.27175799525E+03  0.00000000000E+00 0.  1.
        -13    1    5    5    0    0  0.23160146519E+02  0.74576777069E+02 -0.13359076093E+03  0.15474036148E+03  0.00000000000E+00 0. -1.
          3    1    6    6  503    0  0.83810491947E+01 -0.10530128345E+02  0.28132717350E+02  0.31186140737E+02  0.00000000000E+00 0. -1.
         -3    1    6    6    0  503 -0.17614324059E+03 -0.25427346582E+03  0.30913614416E+03  0.43731749593E+03  0.00000000000E+00 0.  1.
<mgrwt>
<rscale>  0 0.12198139E+04</rscale>
<asrwt>0</asrwt>
<pdfrwt beam="1">  1        2 0.12066984E+00 0.12198139E+04</pdfrwt>
<pdfrwt beam="2">  1       -1 0.72962840E-01 0.12198139E+04</pdfrwt>
<totfact> 0.75370538E+01</totfact>
</mgrwt>
</event>
<event>
12    7  0.1661464E-007  0.1423916E+04  0.7818608E-02  0.8936687E-01
         -1   -1    0    0    0  501 -0.00000000000E+00  0.00000000000E+00  0.38971391701E+03  0.38971391701E+03  0.00000000000E+00 0.  1.
          2   -1    0    0  501    0  0.00000000000E+00 -0.00000000000E+00 -0.13006570897E+04  0.13006570897E+04  0.00000000000E+00 0. -1.
         24    2    1    2    0    0 -0.18346725193E+03  0.15026657441E+03 -0.69702462575E+03  0.74065333410E+03  0.80521776580E+02 0.  0.
        254    2    1    2    0    0  0.18346725193E+03 -0.15026657441E+03 -0.21391854691E+03  0.94971767258E+03  0.89440608058E+03 0.  0.
         23    2    4    4    0    0  0.22542895392E+03 -0.32747112564E+03 -0.47003092832E+03  0.62240771804E+03  0.91688289859E+02 0.  0.
         23    2    4    4    0    0 -0.41961701994E+02  0.17720455123E+03  0.25611238141E+03  0.32730995454E+03  0.91520582490E+02 0.  0.
          2    1    3    3  502    0 -0.14868928457E+03  0.14932766065E+03 -0.53650726794E+03  0.57640897124E+03  0.00000000000E+00 0. -1.
         -1    1    3    3    0  502 -0.34777967360E+02  0.93891376294E+00 -0.16051735781E+03  0.16424436286E+03  0.00000000000E+00 0.  1.
         13    1    5    5    0    0  0.19236708575E+02 -0.77478380059E+01 -0.45470864348E+01  0.21231013768E+02  0.00000000000E+00 0. -1.
        -13    1    5    5    0    0  0.20619224535E+03 -0.31972328764E+03 -0.46548384189E+03  0.60117670427E+03  0.00000000000E+00 0.  1.
          3    1    6    6  503    0 -0.26187449291E+02  0.98691421744E+01  0.10920415787E+02  0.30040604997E+02  0.00000000000E+00 0. -1.
         -3    1    6    6    0  503 -0.15774252703E+02  0.16733540905E+03  0.24519196562E+03  0.29726934954E+03  0.00000000000E+00 0.  1.
<mgrwt>
<rscale>  0 0.14239160E+04</rscale>
<asrwt>0</asrwt>
<pdfrwt beam="1">  1        2 0.20010109E+00 0.14239160E+04</pdfrwt>
<pdfrwt beam="2">  1       -1 0.59955986E-01 0.14239160E+04</pdfrwt>
<totfact> 0.51597926E+01</totfact>
</mgrwt>
</event>
<event>
12    7  0.1661464E-007  0.1429113E+04  0.7818608E-02  0.8933011E-01
          2   -1    0    0  501    0  0.00000000000E+00  0.00000000000E+00  0.80183215919E+03  0.80183215919E+03  0.00000000000E+00 0. -1.
         -1   -1    0    0    0  501 -0.00000000000E+00 -0.00000000000E+00 -0.63678024581E+03  0.63678024581E+03  0.00000000000E+00 0.  1.
         24    2    1    2    0    0  0.23209367835E+03  0.32770775764E+03  0.18832934005E+03  0.45114939865E+03  0.82510542530E+02 0.  0.
        254    2    1    2    0    0 -0.23209367835E+03 -0.32770775764E+03 -0.23277426674E+02  0.98746300636E+03  0.90182121309E+03 0.  0.
         23    2    4    4    0    0  0.17858416486E+03  0.70276154473E+02 -0.28148679960E+03  0.35305681356E+03  0.92645849495E+02 0.  0.
         23    2    4    4    0    0 -0.41067784321E+03 -0.39798391211E+03  0.25820937292E+03  0.63440619280E+03  0.93550264517E+02 0.  0.
          2    1    3    3  502    0  0.28562524497E+02  0.62431292121E+02  0.65656535979E+02  0.94996130228E+02  0.00000000000E+00 0. -1.
         -1    1    3    3    0  502  0.20353115385E+03  0.26527646552E+03  0.12267280407E+03  0.35615326842E+03  0.00000000000E+00 0.  1.
         13    1    5    5    0    0  0.15103165254E+03  0.43582727887E+02 -0.27099366421E+03  0.31328514213E+03  0.00000000000E+00 0. -1.
        -13    1    5    5    0    0  0.27552512320E+02  0.26693426586E+02 -0.10493135388E+02  0.39771671430E+02  0.00000000000E+00 0.  1.
          3    1    6    6  503    0 -0.24502596152E+03 -0.26176511976E+03  0.20660989748E+03  0.41381922319E+03  0.00000000000E+00 0. -1.
         -3    1    6    6    0  503 -0.16565188168E+03 -0.13621879235E+03  0.51599475447E+02  0.22058696961E+03  0.00000000000E+00 0.  1.
<mgrwt>
<rscale>  0 0.14291128E+04</rscale>
<asrwt>0</asrwt>
<pdfrwt beam="1">  1        2 0.12335879E+00 0.14291128E+04</pdfrwt>
<pdfrwt beam="2">  1       -1 0.97966192E-01 0.14291128E+04</pdfrwt>
<totfact> 0.38052540E+01</totfact>
</mgrwt>
</event>
<event>
12    7  0.1661464E-007  0.1023351E+04  0.7818608E-02  0.9283299E-01
          2   -1    0    0  501    0  0.00000000000E+00  0.00000000000E+00  0.11529702220E+03  0.11529702220E+03  0.00000000000E+00 0. -1.
         -1   -1    0    0    0  501 -0.00000000000E+00 -0.00000000000E+00 -0.22707578614E+04  0.22707578614E+04  0.00000000000E+00 0.  1.
         24    2    1    2    0    0  0.53895466011E+02  0.53856321819E+02 -0.38027653427E+03  0.39582162834E+03  0.79115701923E+02 0.  0.
        254    2    1    2    0    0 -0.53895466011E+02 -0.53856321819E+02 -0.17751843049E+04  0.19902332552E+04  0.89662917040E+03 0.  0.
         23    2    4    4    0    0 -0.40412498154E+03 -0.16149339396E+03 -0.13521317074E+04  0.14233608370E+04  0.91097757177E+02 0.  0.
         23    2    4    4    0    0  0.35022951553E+03  0.10763707214E+03 -0.42305259756E+03  0.56687241821E+03  0.90135372538E+02 0.  0.
          2    1    3    3  502    0  0.16628838342E+02  0.59637482766E+02 -0.14684097559E+03  0.15935940427E+03  0.00000000000E+00 0. -1.
         -1    1    3    3    0  502  0.37266627669E+02 -0.57811609474E+01 -0.23343555868E+03  0.23646222408E+03  0.00000000000E+00 0.  1.
         13    1    5    5    0    0 -0.31931315572E+03 -0.14810229496E+03 -0.11737264851E+04  0.12253689416E+04  0.00000000000E+00 0. -1.
        -13    1    5    5    0    0 -0.84811825824E+02 -0.13391099003E+02 -0.17840522221E+03  0.19799189540E+03  0.00000000000E+00 0.  1.
          3    1    6    6  503    0  0.24261469609E+03  0.11657201949E+03 -0.30950055127E+03  0.41017254628E+03  0.00000000000E+00 0. -1.
         -3    1    6    6    0  503  0.10761481944E+03 -0.89349473489E+01 -0.11355204629E+03  0.15669987193E+03  0.00000000000E+00 0.  1.
<mgrwt>
<rscale>  0 0.10233506E+04</rscale>
<asrwt>0</asrwt>
<pdfrwt beam="1">  1        2 0.17738006E-01 0.10233506E+04</pdfrwt>
<pdfrwt beam="2">  1       -1 0.34934731E+00 0.10233506E+04</pdfrwt>
<totfact> 0.60153106E+00</totfact>
</mgrwt>
</event>
<event>
12    7  0.1661464E-007  0.1408203E+04  0.7818608E-02  0.8947902E-01
          2   -1    0    0  501    0  0.00000000000E+00  0.00000000000E+00  0.11812022703E+04  0.11812022703E+04  0.00000000000E+00 0. -1.
         -1   -1    0    0    0  501 -0.00000000000E+00 -0.00000000000E+00 -0.41970709049E+03  0.41970709049E+03  0.00000000000E+00 0.  1.
         24    2    1    2    0    0 -0.20498811140E+03 -0.60804004234E+02  0.62051216306E+03  0.66150410017E+03  0.82674526231E+02 0.  0.
        254    2    1    2    0    0  0.20498811140E+03  0.60804004234E+02  0.14098301670E+03  0.93940526058E+03  0.90381899729E+03 0.  0.
         23    2    4    4    0    0  0.15206703252E+02 -0.20203685761E+03 -0.30729849161E+03  0.37863820377E+03  0.88794091893E+02 0.  0.
         23    2    4    4    0    0  0.18978140815E+03  0.26284086185E+03  0.44828150831E+03  0.56076705680E+03  0.91657404354E+02 0.  0.
          2    1    3    3  502    0 -0.18345402694E+03 -0.28805288930E+02  0.55760101404E+03  0.58771082646E+03  0.00000000000E+00 0. -1.
         -1    1    3    3    0  502 -0.21534084458E+02 -0.31998715304E+02  0.62911149019E+02  0.73793273714E+02  0.00000000000E+00 0.  1.
         13    1    5    5    0    0  0.28919565941E+02 -0.20241778863E+03 -0.26854841037E+03  0.33753155580E+03  0.00000000000E+00 0. -1.
        -13    1    5    5    0    0 -0.13712862689E+02  0.38093102075E+00 -0.38750081241E+02  0.41106647975E+02  0.00000000000E+00 0.  1.
          3    1    6    6  503    0  0.13793277766E+03  0.23951238071E+03  0.39986427634E+03  0.48608957113E+03  0.00000000000E+00 0. -1.
         -3    1    6    6    0  503  0.51848630486E+02  0.23328481133E+02  0.48417231962E+02  0.74677485670E+02  0.00000000000E+00 0.  1.
<mgrwt>
<rscale>  0 0.14082031E+04</rscale>
<asrwt>0</asrwt>
<pdfrwt beam="1">  1        2 0.18172343E+00 0.14082031E+04</pdfrwt>
<pdfrwt beam="2">  1       -1 0.64570322E-01 0.14082031E+04</pdfrwt>
<totfact> 0.52440258E+01</totfact>
</mgrwt>
</event>
<event>
12    7  0.1661464E-007  0.1381607E+04  0.7818608E-02  0.8967241E-01
         -1   -1    0    0    0  501 -0.00000000000E+00  0.00000000000E+00  0.32300150292E+03  0.32300150292E+03  0.00000000000E+00 0.  1.
          2   -1    0    0  501    0  0.00000000000E+00 -0.00000000000E+00 -0.14774226571E+04  0.14774226571E+04  0.00000000000E+00 0. -1.
         24    2    1    2    0    0  0.16353242798E+03 -0.33343533780E+03 -0.15395235546E+03  0.40972828881E+03  0.79082004307E+02 0.  0.
        254    2    1    2    0    0 -0.16353242798E+03  0.33343533780E+03 -0.10004687987E+04  0.13906958712E+04  0.89172597220E+03 0.  0.
         23    2    4    4    0    0  0.27884444789E+03  0.38621546685E+03 -0.35188677040E+03  0.59836792786E+03  0.85459142012E+02 0.  0.
         23    2    4    4    0    0 -0.44237687587E+03 -0.52780129052E+02 -0.64858202832E+03  0.79232794335E+03  0.92961712734E+02 0.  0.
          2    1    3    3  502    0  0.11931708427E+03 -0.23571087729E+03 -0.14678259188E+03  0.30222725481E+03  0.00000000000E+00 0. -1.
         -1    1    3    3    0  502  0.44215343712E+02 -0.97724460508E+02 -0.71697635813E+01  0.10750103400E+03  0.00000000000E+00 0.  1.
         13    1    5    5    0    0  0.46330793305E+02  0.12955469759E+03 -0.10406797604E+03  0.17251407395E+03  0.00000000000E+00 0. -1.
        -13    1    5    5    0    0  0.23251365458E+03  0.25666076926E+03 -0.24781879436E+03  0.42585385390E+03  0.00000000000E+00 0.  1.
          2    1    6    6  503    0 -0.13765945320E+03 -0.55828949965E+02 -0.24676165574E+03  0.28802484521E+03  0.00000000000E+00 0. -1.
         -2    1    6    6    0  503 -0.30471742266E+03  0.30488209132E+01 -0.40182037258E+03  0.50430309815E+03  0.00000000000E+00 0.  1.
<mgrwt>
<rscale>  0 0.13816074E+04</rscale>
<asrwt>0</asrwt>
<pdfrwt beam="1">  1        2 0.22729579E+00 0.13816074E+04</pdfrwt>
<pdfrwt beam="2">  1       -1 0.49692539E-01 0.13816074E+04</pdfrwt>
<totfact> 0.58954901E+01</totfact>
</mgrwt>
</event>
<event>
12    7  0.1661464E-007  0.2138635E+04  0.7818608E-02  0.8544413E-01
         -1   -1    0    0    0  501 -0.00000000000E+00  0.00000000000E+00  0.33999396436E+03  0.33999396436E+03  0.00000000000E+00 0.  1.
          2   -1    0    0  501    0  0.00000000000E+00 -0.00000000000E+00 -0.33631177884E+04  0.33631177884E+04  0.00000000000E+00 0. -1.
         24    2    1    2    0    0  0.47775031296E+03 -0.73694035998E+03 -0.12773154477E+04  0.15521147234E+04  0.78733130936E+02 0.  0.
        254    2    1    2    0    0 -0.47775031296E+03  0.73694035998E+03 -0.17458083763E+04  0.21509970294E+04  0.89867395525E+03 0.  0.
         23    2    4    4    0    0 -0.59557891236E+02  0.70598236564E+03 -0.61922130552E+03  0.94539834485E+03  0.91568347293E+02 0.  0.
         23    2    4    4    0    0 -0.41819242173E+03  0.30957994332E+02 -0.11265870708E+04  0.12055986845E+04  0.91795757137E+02 0.  0.
          2    1    3    3  502    0  0.47078410367E+03 -0.72261079584E+03 -0.12303454193E+04  0.15025158519E+04  0.00000000000E+00 0. -1.
         -1    1    3    3    0  502  0.69662092907E+01 -0.14329564134E+02 -0.46970028420E+02  0.49598871458E+02  0.00000000000E+00 0.  1.
         13    1    5    5    0    0 -0.46782595120E+02  0.68613501884E+03 -0.61229050940E+03  0.92079831841E+03  0.00000000000E+00 0.  1.
        -13    1    5    5    0    0 -0.12775296116E+02  0.19847346806E+02 -0.69307961205E+01  0.24600026442E+02  0.00000000000E+00 0. -1.
          3    1    6    6  503    0 -0.21009201963E+03  0.60923770792E+02 -0.59591042854E+03  0.63479099033E+03  0.00000000000E+00 0. -1.
         -3    1    6    6    0  503 -0.20810040210E+03 -0.29965776459E+02 -0.53067664227E+03  0.57080769421E+03  0.00000000000E+00 0.  1.
<mgrwt>
<rscale>  0 0.21386348E+04</rscale>
<asrwt>0</asrwt>
<pdfrwt beam="1">  1        2 0.51740273E+00 0.21386348E+04</pdfrwt>
<pdfrwt beam="2">  1       -1 0.52306764E-01 0.21386348E+04</pdfrwt>
<totfact> 0.39006121E+00</totfact>
</mgrwt>
</event>
<event>
12    7  0.1661464E-007  0.2213801E+04  0.7818608E-02  0.8512706E-01
          2   -1    0    0  501    0  0.00000000000E+00  0.00000000000E+00  0.27371170093E+04  0.27371170093E+04  0.00000000000E+00 0. -1.
         -1   -1    0    0    0  501 -0.00000000000E+00 -0.00000000000E+00 -0.44763486520E+03  0.44763486520E+03  0.00000000000E+00 0.  1.
         24    2    1    2    0    0  0.62760490488E+03 -0.12921177851E+01 -0.23342339008E+02  0.63286744649E+03  0.78017650854E+02 0.  0.
        254    2    1    2    0    0 -0.62760490488E+03  0.12921177851E+01  0.23128244831E+04  0.25518844280E+04  0.87696491265E+03 0.  0.
         23    2    4    4    0    0  0.79760864751E+02  0.76891022667E+02  0.13165811823E+04  0.13242678869E+04  0.89584606311E+02 0.  0.
         23    2    4    4    0    0 -0.70736576963E+03 -0.75598904882E+02  0.99624330081E+03  0.12276165411E+04  0.91978971477E+02 0.  0.
          2    1    3    3  502    0  0.71014605636E+02  0.21318891803E+02  0.10021642408E+02  0.74819801376E+02  0.00000000000E+00 0. -1.
         -1    1    3    3    0  502  0.55659029924E+03 -0.22611009588E+02 -0.33363981417E+02  0.55804764512E+03  0.00000000000E+00 0.  1.
         13    1    5    5    0    0  0.30014222385E+02  0.73004794836E+02  0.10564169828E+04  0.10593617868E+04  0.00000000000E+00 0. -1.
        -13    1    5    5    0    0  0.49746642367E+02  0.38862278307E+01  0.26016419950E+03  0.26490610015E+03  0.00000000000E+00 0.  1.
          3    1    6    6  503    0 -0.33173266924E+02  0.11376663925E+01  0.20107099389E+02  0.38807929204E+02  0.00000000000E+00 0. -1.
         -3    1    6    6    0  503 -0.67419250271E+03 -0.76736571275E+02  0.97613620142E+03  0.11888086119E+04  0.00000000000E+00 0.  1.
<mgrwt>
<rscale>  0 0.22138013E+04</rscale>
<asrwt>0</asrwt>
<pdfrwt beam="1">  1        2 0.42109491E+00 0.22138013E+04</pdfrwt>
<pdfrwt beam="2">  1       -1 0.68866904E-01 0.22138013E+04</pdfrwt>
<totfact> 0.55953498E+00</totfact>
</mgrwt>
</event>
<event>
12    7  0.1661464E-007  0.1759159E+04  0.7818608E-02  0.8728325E-01
         -1   -1    0    0    0  501 -0.00000000000E+00  0.00000000000E+00  0.53904943495E+03  0.53904943495E+03  0.00000000000E+00 0.  1.
          2   -1    0    0  501    0  0.00000000000E+00 -0.00000000000E+00 -0.14352303001E+04  0.14352303001E+04  0.00000000000E+00 0. -1.
         24    2    1    2    0    0  0.31307180606E+03 -0.56635627873E+03 -0.41463378796E+03  0.77270057669E+03  0.79822383420E+02 0.  0.
        254    2    1    2    0    0 -0.31307180606E+03  0.56635627873E+03 -0.48154707723E+03  0.12015791584E+04  0.89057930364E+03 0.  0.
         23    2    4    4    0    0 -0.18158488794E+03 -0.20322820107E+03 -0.16516774206E+02  0.28818786462E+03  0.92220758215E+02 0.  0.
         23    2    4    4    0    0 -0.13148691812E+03  0.76958447981E+03 -0.46503030302E+03  0.91339129377E+03  0.92094471083E+02 0.  0.
          4    1    3    3  502    0  0.28868534986E+03 -0.47553623518E+03 -0.37352377237E+03  0.67007010881E+03  0.00000000000E+00 0. -1.
         -3    1    3    3    0  502  0.24386456204E+02 -0.90820043550E+02 -0.41110015594E+02  0.10263046789E+03  0.00000000000E+00 0.  1.
         13    1    5    5    0    0 -0.89170089096E+02 -0.63370065829E+02  0.31453847701E+02  0.11382624727E+03  0.00000000000E+00 0. -1.
        -13    1    5    5    0    0 -0.92414798845E+02 -0.13985813524E+03 -0.47970621906E+02  0.17436161735E+03  0.00000000000E+00 0.  1.
          2    1    6    6  503    0 -0.94513046859E+01  0.31913707981E+03 -0.19869624344E+03  0.37605584695E+03  0.00000000000E+00 0. -1.
         -2    1    6    6    0  503 -0.12203561343E+03  0.45044740000E+03 -0.26633405959E+03  0.53733544682E+03  0.00000000000E+00 0.  1.
<mgrwt>
<rscale>  0 0.17591590E+04</rscale>
<asrwt>0</asrwt>
<pdfrwt beam="1">  1        2 0.22080466E+00 0.17591590E+04</pdfrwt>
<pdfrwt beam="2">  1       -1 0.82930683E-01 0.17591590E+04</pdfrwt>
<totfact> 0.21534262E+01</totfact>
</mgrwt>
</event>
<event>
12    7  0.1661464E-007  0.1307868E+04  0.7818608E-02  0.9023349E-01
          2   -1    0    0  501    0  0.00000000000E+00  0.00000000000E+00  0.98467582048E+03  0.98467582048E+03  0.00000000000E+00 0. -1.
         -1   -1    0    0    0  501 -0.00000000000E+00 -0.00000000000E+00 -0.43428490843E+03  0.43428490843E+03  0.00000000000E+00 0.  1.
         24    2    1    2    0    0 -0.23501340471E+03 -0.12121776743E+03 -0.51537855024E+02  0.28498998215E+03  0.92941335775E+02 0.  0.
        254    2    1    2    0    0  0.23501340471E+03  0.12121776743E+03  0.60192876708E+03  0.11339707468E+04  0.92392984925E+03 0.  0.
         23    2    4    4    0    0  0.27350983286E+03 -0.35140954285E+03  0.17222204260E+03  0.48615541504E+03  0.91598909085E+02 0.  0.
         23    2    4    4    0    0 -0.38496428148E+02  0.47262731028E+03  0.42970672448E+03  0.64781533171E+03  0.10078832045E+03 0.  0.
          4    1    3    3  502    0 -0.17552083038E+03 -0.88650521359E+02 -0.78871506495E+02  0.21186597502E+03  0.00000000000E+00 0. -1.
         -3    1    3    3    0  502 -0.59492574326E+02 -0.32567246067E+02  0.27333651471E+02  0.73124007132E+02  0.00000000000E+00 0.  1.
         13    1    5    5    0    0  0.21800355528E+03 -0.32571984519E+03  0.16219011340E+03  0.42417520030E+03  0.00000000000E+00 0.  1.
        -13    1    5    5    0    0  0.55506277578E+02 -0.25689697662E+02  0.10031929195E+02  0.61980214745E+02  0.00000000000E+00 0. -1.
          1    1    6    6  503    0 -0.63737232316E+02  0.17808703701E+03  0.16507497474E+03  0.25105213566E+03  0.00000000000E+00 0. -1.
         -1    1    6    6    0  503  0.25240804169E+02  0.29454027327E+03  0.26463174974E+03  0.39676319605E+03  0.00000000000E+00 0.  1.
<mgrwt>
<rscale>  0 0.13078683E+04</rscale>
<asrwt>0</asrwt>
<pdfrwt beam="1">  1        2 0.15148859E+00 0.13078683E+04</pdfrwt>
<pdfrwt beam="2">  1       -1 0.66813063E-01 0.13078683E+04</pdfrwt>
<totfact> 0.65375008E+01</totfact>
</mgrwt>
</event>
<event>
12    7  0.1691243E-007  0.1645079E+04  0.7818608E-02  0.8793323E-01
          2   -1    0    0  501    0  0.00000000000E+00  0.00000000000E+00  0.20938081904E+04  0.20938081904E+04  0.00000000000E+00 0. -1.
         -1   -1    0    0    0  501 -0.00000000000E+00 -0.00000000000E+00 -0.32312940076E+03  0.32312940076E+03  0.00000000000E+00 0.  1.
         24    2    1    2    0    0 -0.21717866129E+03  0.24726604022E+02 -0.15553654784E+03  0.28009389840E+03  0.80517068609E+02 0.  0.
        254    2    1    2    0    0  0.21717866129E+03 -0.24726604022E+02  0.19262153375E+04  0.21368436928E+04  0.89889791695E+03 0.  0.
         23    2    4    4    0    0 -0.85629697833E+02  0.35466144929E+03  0.12083458439E+04  0.12653715483E+04  0.89153171798E+02 0.  0.
         23    2    4    4    0    0  0.30280835913E+03 -0.37938805331E+03  0.71786949360E+03  0.87147214448E+03  0.92189432142E+02 0.  0.
          4    1    3    3  502    0 -0.14707162860E+00  0.74898935011E+01 -0.25328434413E+02  0.26413059735E+02  0.00000000000E+00 0. -1.
         -3    1    3    3    0  502 -0.21703158967E+03  0.17236710521E+02 -0.13020811343E+03  0.25368083866E+03  0.00000000000E+00 0.  1.
         13    1    5    5    0    0 -0.33652727003E+02  0.25940627126E+02  0.12171138522E+03  0.12891502419E+03  0.00000000000E+00 0. -1.
        -13    1    5    5    0    0 -0.51976970831E+02  0.32872082217E+03  0.10866344586E+04  0.11364565241E+04  0.00000000000E+00 0.  1.
          4    1    6    6  503    0  0.30430368157E+03 -0.35520325586E+03  0.66189786234E+03  0.81048063750E+03  0.00000000000E+00 0.  1.
         -4    1    6    6    0  503 -0.14953224435E+01 -0.24184797453E+02  0.55971631267E+02  0.60991506980E+02  0.00000000000E+00 0. -1.
<mgrwt>
<rscale>  0 0.16450787E+04</rscale>
<asrwt>0</asrwt>
<pdfrwt beam="1">  1        2 0.32212433E+00 0.16450787E+04</pdfrwt>
<pdfrwt beam="2">  1       -1 0.49712217E-01 0.16450787E+04</pdfrwt>
<totfact> 0.26170975E+01</totfact>
</mgrwt>
</event>
<event>
12    7  0.1661464E-007  0.2180799E+04  0.7818608E-02  0.8526463E-01
          2   -1    0    0  501    0  0.00000000000E+00  0.00000000000E+00  0.69039967944E+03  0.69039967944E+03  0.00000000000E+00 0. -1.
         -1   -1    0    0    0  501 -0.00000000000E+00 -0.00000000000E+00 -0.17221486255E+04  0.17221486255E+04  0.00000000000E+00 0.  1.
         24    2    1    2    0    0  0.59350854125E+03 -0.10328279169E+03 -0.11637355925E+04  0.13128312875E+04  0.79534500341E+02 0.  0.
        254    2    1    2    0    0 -0.59350854125E+03  0.10328279169E+03  0.13198664637E+03  0.10997170174E+04  0.91051486536E+03 0.  0.
         23    2    4    4    0    0 -0.53690386707E+03 -0.29567687357E+03  0.25345690225E+03  0.66969658710E+03  0.92534001568E+02 0.  0.
         23    2    4    4    0    0 -0.56604674182E+02  0.39895966526E+03 -0.12147025587E+03  0.43002043034E+03  0.88258958792E+02 0.  0.
          2    1    3    3  502    0  0.77415040716E+02 -0.41612171150E+02 -0.16894191904E+03  0.19043642857E+03  0.00000000000E+00 0. -1.
         -1    1    3    3    0  502  0.51609350053E+03 -0.61670620540E+02 -0.99479367343E+03  0.11223948590E+04  0.00000000000E+00 0.  1.
         13    1    5    5    0    0 -0.47353808039E+03 -0.22501426572E+03  0.22579131855E+03  0.57083399767E+03  0.00000000000E+00 0.  1.
        -13    1    5    5    0    0 -0.63365786675E+02 -0.70662607849E+02  0.27665583699E+02  0.98862589438E+02  0.00000000000E+00 0. -1.
          2    1    6    6  503    0 -0.50677855672E+02  0.12219288244E+03 -0.13855244171E+02  0.13300869658E+03  0.00000000000E+00 0. -1.
         -2    1    6    6    0  503 -0.59268185101E+01  0.27676678282E+03 -0.10761501170E+03  0.29701173377E+03  0.00000000000E+00 0.  1.
<mgrwt>
<rscale>  0 0.21807988E+04</rscale>
<asrwt>0</asrwt>
<pdfrwt beam="1">  1        2 0.10621534E+00 0.21807988E+04</pdfrwt>
<pdfrwt beam="2">  1       -1 0.26494594E+00 0.21807988E+04</pdfrwt>
<totfact> 0.24277420E+00</totfact>
</mgrwt>
</event>
<event>
12    7  0.1661464E-007  0.1363989E+04  0.7818608E-02  0.8980306E-01
         -1   -1    0    0    0  501 -0.00000000000E+00  0.00000000000E+00  0.30915751778E+03  0.30915751778E+03  0.00000000000E+00 0.  1.
          2   -1    0    0  501    0  0.00000000000E+00 -0.00000000000E+00 -0.15044633926E+04  0.15044633926E+04  0.00000000000E+00 0. -1.
         24    2    1    2    0    0  0.53408182312E+02 -0.11726057638E+03  0.13639756176E+03  0.20404077647E+03  0.80161505077E+02 0.  0.
        254    2    1    2    0    0 -0.53408182312E+02  0.11726057638E+03 -0.13317034366E+04  0.16095801339E+04  0.89482494811E+03 0.  0.
         23    2    4    4    0    0 -0.14099149063E+03 -0.17856013944E+03 -0.56284867729E+01  0.24499749891E+03  0.90718084118E+02 0.  0.
         23    2    4    4    0    0  0.87583308314E+02  0.29582071582E+03 -0.13260749498E+04  0.13645826350E+04  0.91816465889E+02 0.  0.
          2    1    3    3  502    0  0.25322405478E+02 -0.29500148202E+02 -0.66529451540E+00  0.38883487239E+02  0.00000000000E+00 0. -1.
         -1    1    3    3    0  502  0.28085776834E+02 -0.87760428178E+02  0.13706285628E+03  0.16515728923E+03  0.00000000000E+00 0.  1.
         13    1    5    5    0    0 -0.57270467274E+02 -0.46844208052E+02  0.37677338236E+02  0.83029320522E+02  0.00000000000E+00 0.  1.
        -13    1    5    5    0    0 -0.83721023352E+02 -0.13171593139E+03 -0.43305825009E+02  0.16196817839E+03  0.00000000000E+00 0. -1.
          3    1    6    6  503    0  0.27840585190E+02  0.16564464902E+03 -0.53845647421E+03  0.56404664926E+03  0.00000000000E+00 0. -1.
         -3    1    6    6    0  503  0.59742723123E+02  0.13017606680E+03 -0.78761847561E+03  0.80053598573E+03  0.00000000000E+00 0.  1.
<mgrwt>
<rscale>  0 0.13639885E+04</rscale>
<asrwt>0</asrwt>
<pdfrwt beam="1">  1        2 0.23145591E+00 0.13639885E+04</pdfrwt>
<pdfrwt beam="2">  1       -1 0.47562695E-01 0.13639885E+04</pdfrwt>
<totfact> 0.61918433E+01</totfact>
</mgrwt>
</event>
<event>
12    7  0.1661464E-007  0.5216556E+04  0.7818608E-02  0.7795943E-01
         -1   -1    0    0    0  501 -0.00000000000E+00  0.00000000000E+00  0.18783608392E+04  0.18783608392E+04  0.00000000000E+00 0.  1.
          2   -1    0    0  501    0  0.00000000000E+00 -0.00000000000E+00 -0.36218355230E+04  0.36218355230E+04  0.00000000000E+00 0. -1.
         24    2    1    2    0    0 -0.34526523030E+03  0.53531240759E+03  0.17369709927E+04  0.18517173429E+04  0.77597909319E+02 0.  0.
        254    2    1    2    0    0  0.34526523030E+03 -0.53531240759E+03 -0.34804456765E+04  0.36484790193E+04  0.89001662597E+03 0.  0.
         23    2    4    4    0    0  0.41210311968E+03 -0.65951779238E+03 -0.18423148229E+04  0.20017690091E+04  0.90346883643E+02 0.  0.
         23    2    4    4    0    0 -0.66837889382E+02  0.12420538479E+03 -0.16381308535E+04  0.16467100102E+04  0.91032319847E+02 0.  0.
          2    1    3    3  502    0 -0.37624443571E+02  0.45976813932E+02  0.23426968759E+03  0.24168523475E+03  0.00000000000E+00 0. -1.
         -1    1    3    3    0  502 -0.30764078673E+03  0.48933559366E+03  0.15027013051E+04  0.16100321081E+04  0.00000000000E+00 0.  1.
         13    1    5    5    0    0  0.38784174070E+03 -0.62854613735E+03 -0.17893944610E+04  0.19358264384E+04  0.00000000000E+00 0. -1.
        -13    1    5    5    0    0  0.24261378979E+02 -0.30971655031E+02 -0.52920361954E+02  0.65942570732E+02  0.00000000000E+00 0.  1.
          4    1    6    6  503    0 -0.49774119978E+02  0.13736025478E+03 -0.13973049600E+04  0.14049222234E+04  0.00000000000E+00 0. -1.
         -4    1    6    6    0  503 -0.17063769403E+02 -0.13154869987E+02 -0.24082589357E+03  0.24178778680E+03  0.00000000000E+00 0.  1.
<mgrwt>
<rscale>  0 0.52165560E+04</rscale>
<asrwt>0</asrwt>
<pdfrwt beam="1">  1        2 0.55720546E+00 0.52165560E+04</pdfrwt>
<pdfrwt beam="2">  1       -1 0.28897859E+00 0.52165560E+04</pdfrwt>
<totfact> 0.21013826E-02</totfact>
</mgrwt>
</event>
<event>
12    7  0.1661464E-007  0.1373718E+04  0.7818608E-02  0.8973066E-01
          2   -1    0    0  501    0  0.00000000000E+00  0.00000000000E+00  0.52347986348E+03  0.52347986348E+03  0.00000000000E+00 0. -1.
         -1   -1    0    0    0  501 -0.00000000000E+00 -0.00000000000E+00 -0.90122923679E+03  0.90122923679E+03  0.00000000000E+00 0.  1.
         24    2    1    2    0    0  0.34442956351E+03  0.51708987697E+02  0.60297325794E+02  0.36456072061E+03  0.89236807920E+02 0.  0.
        254    2    1    2    0    0 -0.34442956351E+03 -0.51708987697E+02 -0.43804669911E+03  0.10601483797E+04  0.90040220604E+03 0.  0.
         23    2    4    4    0    0 -0.46842797040E+03  0.10384009000E+03  0.82349199079E+02  0.49561824782E+03  0.92997468992E+02 0.  0.
         23    2    4    4    0    0  0.12399840689E+03 -0.15554907770E+03 -0.52039589819E+03  0.56453013183E+03  0.91166103379E+02 0.  0.
          2    1    3    3  502    0  0.23351082501E+03  0.68525418649E+02  0.15794153750E+02  0.24386982940E+03  0.00000000000E+00 0. -1.
         -1    1    3    3    0  502  0.11091873850E+03 -0.16816430952E+02  0.44503172044E+02  0.12069089122E+03  0.00000000000E+00 0.  1.
         13    1    5    5    0    0 -0.32501020109E+03  0.28115759862E+02  0.63477771468E+02  0.33234252547E+03  0.00000000000E+00 0. -1.
        -13    1    5    5    0    0 -0.14341776931E+03  0.75724330141E+02  0.18871427611E+02  0.16327572236E+03  0.00000000000E+00 0.  1.
          4    1    6    6  503    0  0.10984514938E+03 -0.14419249490E+03 -0.51442478526E+03  0.54542670646E+03  0.00000000000E+00 0. -1.
         -4    1    6    6    0  503  0.14153257514E+02 -0.11356582804E+02 -0.59711129254E+01  0.19103425369E+02  0.00000000000E+00 0.  1.
<mgrwt>
<rscale>  0 0.13737181E+04</rscale>
<asrwt>0</asrwt>
<pdfrwt beam="1">  1        2 0.80535364E-01 0.13737181E+04</pdfrwt>
<pdfrwt beam="2">  1       -1 0.13865065E+00 0.13737181E+04</pdfrwt>
<totfact> 0.27976793E+01</totfact>
</mgrwt>
</event>
<event>
12    7  0.1661464E-007  0.1924941E+04  0.7818608E-02  0.8642540E-01
         -1   -1    0    0    0  501 -0.00000000000E+00  0.00000000000E+00  0.33164327526E+03  0.33164327526E+03  0.00000000000E+00 0.  1.
          2   -1    0    0  501    0  0.00000000000E+00 -0.00000000000E+00 -0.27932094862E+04  0.27932094862E+04  0.00000000000E+00 0. -1.
         24    2    1    2    0    0  0.45295004663E+03  0.17783997414E+03 -0.30459247700E+02  0.49411496745E+03  0.80193728830E+02 0.  0.
        254    2    1    2    0    0 -0.45295004663E+03 -0.17783997414E+03 -0.24311069632E+04  0.26307377940E+04  0.87960756760E+03 0.  0.
         23    2    4    4    0    0 -0.20504287033E+02  0.29445185970E+03 -0.12101338235E+04  0.12489737807E+04  0.91593179295E+02 0.  0.
         23    2    4    4    0    0 -0.43244575960E+03 -0.47229183384E+03 -0.12209731397E+04  0.13817640133E+04  0.91801249202E+02 0.  0.
          4    1    3    3  502    0  0.20783908238E+03  0.56524493937E+02  0.18864199866E+02  0.21621276701E+03  0.00000000000E+00 0. -1.
         -3    1    3    3    0  502  0.24511096425E+03  0.12131548020E+03 -0.49323447567E+02  0.27790220045E+03  0.00000000000E+00 0.  1.
         13    1    5    5    0    0  0.97862219406E+01  0.26958099751E+03 -0.10458497173E+04  0.10800793098E+04  0.00000000000E+00 0. -1.
        -13    1    5    5    0    0 -0.30290508973E+02  0.24870862182E+02 -0.16428410621E+03  0.16889447082E+03  0.00000000000E+00 0.  1.
          3    1    6    6  503    0 -0.27890450242E+03 -0.32221977195E+03 -0.71907960174E+03  0.83587605334E+03  0.00000000000E+00 0. -1.
         -3    1    6    6    0  503 -0.15354125718E+03 -0.15007206189E+03 -0.50189353797E+03  0.54588796000E+03  0.00000000000E+00 0.  1.
<mgrwt>
<rscale>  0 0.19249407E+04</rscale>
<asrwt>0</asrwt>
<pdfrwt beam="1">  1        2 0.42972454E+00 0.19249407E+04</pdfrwt>
<pdfrwt beam="2">  1       -1 0.51022042E-01 0.19249407E+04</pdfrwt>
<totfact> 0.96094633E+00</totfact>
</mgrwt>
</event>
<event>
12    7  0.1661464E-007  0.1857584E+04  0.7818608E-02  0.8676262E-01
         -3   -1    0    0    0  501 -0.00000000000E+00  0.00000000000E+00  0.24248964234E+04  0.24248964234E+04  0.00000000000E+00 0.  1.
          4   -1    0    0  501    0  0.00000000000E+00 -0.00000000000E+00 -0.35574908989E+03  0.35574908989E+03  0.00000000000E+00 0. -1.
         24    2    1    2    0    0 -0.31667166514E+03 -0.58790241488E+02  0.16996062942E+04  0.17317147492E+04  0.80232047442E+02 0.  0.
        254    2    1    2    0    0  0.31667166514E+03  0.58790241488E+02  0.36954103931E+03  0.10489307640E+04  0.92733916774E+03 0.  0.
         23    2    4    4    0    0 -0.72274344890E+02  0.40726719945E+03  0.39479474477E+02  0.42507154418E+03  0.89649518085E+02 0.  0.
         23    2    4    4    0    0  0.38894601003E+03 -0.34847695796E+03  0.33006156483E+03  0.62385921986E+03  0.86859085166E+02 0.  0.
          2    1    3    3  502    0 -0.25909027172E+03 -0.69205781885E+02  0.12593519401E+04  0.12875886448E+04  0.00000000000E+00 0. -1.
         -1    1    3    3    0  502 -0.57581393420E+02  0.10415540397E+02  0.44025435407E+03  0.44412610442E+03  0.00000000000E+00 0.  1.
         13    1    5    5    0    0 -0.83310830915E+02  0.38011767426E+03  0.19551514956E+02  0.38963111088E+03  0.00000000000E+00 0. -1.
        -13    1    5    5    0    0  0.11036486025E+02  0.27149525195E+02  0.19927959520E+02  0.35440433303E+02  0.00000000000E+00 0.  1.
          4    1    6    6  503    0  0.25975748832E+03 -0.28426678711E+03  0.23603794250E+03  0.45165857602E+03  0.00000000000E+00 0. -1.
         -4    1    6    6    0  503  0.12918852172E+03 -0.64210170853E+02  0.94023622327E+02  0.17220064384E+03  0.00000000000E+00 0.  1.
<mgrwt>
<rscale>  0 0.18575841E+04</rscale>
<asrwt>0</asrwt>
<pdfrwt beam="1">  1        4 0.54730631E-01 0.18575841E+04</pdfrwt>
<pdfrwt beam="2">  1       -3 0.37306098E+00 0.18575841E+04</pdfrwt>
<totfact> 0.10288003E-01</totfact>
</mgrwt>
</event>
<event>
12    7  0.1661464E-007  0.3096731E+04  0.7818608E-02  0.8216636E-01
          2   -1    0    0  501    0  0.00000000000E+00  0.00000000000E+00  0.14183386061E+04  0.14183386061E+04  0.00000000000E+00 0. -1.
         -1   -1    0    0    0  501 -0.00000000000E+00 -0.00000000000E+00 -0.16903131205E+04  0.16903131205E+04  0.00000000000E+00 0.  1.
         24    2    1    2    0    0  0.36341918856E+03  0.51535438503E+02 -0.15052441691E+04  0.15514595558E+04  0.80853798102E+02 0.  0.
        254    2    1    2    0    0 -0.36341918856E+03 -0.51535438503E+02  0.12332696547E+04  0.15571921708E+04  0.87701995845E+03 0.  0.
         23    2    4    4    0    0 -0.29009616016E+03  0.24643290296E+03  0.11643526963E+04  0.12284285358E+04  0.91839578956E+02 0.  0.
         23    2    4    4    0    0 -0.73323028395E+02 -0.29796834147E+03  0.68916958403E+02  0.32876363503E+03  0.95784036016E+02 0.  0.
          4    1    3    3  502    0  0.46961918795E+02  0.12442642644E+02 -0.11012266182E+03  0.12036295866E+03  0.00000000000E+00 0. -1.
         -3    1    3    3    0  502  0.31645726977E+03  0.39092795859E+02 -0.13951215073E+04  0.14310965971E+04  0.00000000000E+00 0.  1.
         13    1    5    5    0    0 -0.29565382138E+03  0.23751348495E+03  0.11080300247E+04  0.11711337982E+04  0.00000000000E+00 0. -1.
        -13    1    5    5    0    0  0.55576612137E+01  0.89194180108E+01  0.56322671626E+02  0.57294737584E+02  0.00000000000E+00 0.  1.
          4    1    6    6  503    0 -0.62690000017E+02 -0.30316803088E+03  0.65380808734E+02  0.31641039995E+03  0.00000000000E+00 0. -1.
         -4    1    6    6    0  503 -0.10633028378E+02  0.51996894106E+01  0.35361496687E+01  0.12353235080E+02  0.00000000000E+00 0.  1.
<mgrwt>
<rscale>  0 0.30967314E+04</rscale>
<asrwt>0</asrwt>
<pdfrwt beam="1">  1        2 0.21820594E+00 0.30967314E+04</pdfrwt>
<pdfrwt beam="2">  1       -1 0.26004817E+00 0.30967314E+04</pdfrwt>
<totfact> 0.81902046E-01</totfact>
</mgrwt>
</event>
<event>
12    7  0.1661464E-007  0.1188160E+04  0.7818608E-02  0.9123284E-01
         -1   -1    0    0    0  501 -0.00000000000E+00  0.00000000000E+00  0.16770749004E+03  0.16770749004E+03  0.00000000000E+00 0.  1.
          2   -1    0    0  501    0  0.00000000000E+00 -0.00000000000E+00 -0.21044429276E+04  0.21044429276E+04  0.00000000000E+00 0. -1.
         24    2    1    2    0    0 -0.10824903348E+01  0.17027148813E+03 -0.89872268836E+02  0.20833384192E+03  0.79576463403E+02 0.  0.
        254    2    1    2    0    0  0.10824903348E+01 -0.17027148813E+03 -0.18468631688E+04  0.20638165758E+04  0.90523021534E+03 0.  0.
         23    2    4    4    0    0  0.18198433914E+03 -0.68682153940E+02 -0.18231893412E+04  0.18361419822E+04  0.97787867339E+02 0.  0.
         23    2    4    4    0    0 -0.18090184880E+03 -0.10158933419E+03 -0.23673827595E+02  0.22767459358E+03  0.90716033452E+02 0.  0.
          2    1    3    3  502    0 -0.72268480143E+01  0.25992671431E+02 -0.52719590489E+02  0.59221630522E+02  0.00000000000E+00 0. -1.
         -1    1    3    3    0  502  0.61443576796E+01  0.14427881670E+03 -0.37152678347E+02  0.14911221140E+03  0.00000000000E+00 0.  1.
         13    1    5    5    0    0  0.97031494695E+02  0.10404663750E+02 -0.10113949232E+04  0.10160920523E+04  0.00000000000E+00 0. -1.
        -13    1    5    5    0    0  0.84952844442E+02 -0.79086817689E+02 -0.81179441793E+03  0.82004992988E+03  0.00000000000E+00 0.  1.
          3    1    6    6  503    0 -0.53309935655E+01 -0.39159711111E+02  0.20149159588E+01  0.39572242203E+02  0.00000000000E+00 0. -1.
         -3    1    6    6    0  503 -0.17557085524E+03 -0.62429623083E+02 -0.25688743554E+02  0.18810235137E+03  0.00000000000E+00 0.  1.
<mgrwt>
<rscale>  0 0.11881597E+04</rscale>
<asrwt>0</asrwt>
<pdfrwt beam="1">  1        2 0.32376042E+00 0.11881597E+04</pdfrwt>
<pdfrwt beam="2">  1       -1 0.25801154E-01 0.11881597E+04</pdfrwt>
<totfact> 0.87385310E+01</totfact>
</mgrwt>
</event>
<event>
12    7  0.1661464E-007  0.2157849E+04  0.7818608E-02  0.8536180E-01
          4   -1    0    0  501    0  0.00000000000E+00  0.00000000000E+00  0.21000938331E+04  0.21000938331E+04  0.00000000000E+00 0. -1.
         -3   -1    0    0    0  501 -0.00000000000E+00 -0.00000000000E+00 -0.55429815901E+03  0.55429815901E+03  0.00000000000E+00 0.  1.
         24    2    1    2    0    0 -0.17105048192E+03 -0.36833893126E+03  0.16945964591E+04  0.17443800888E+04  0.79201636603E+02 0.  0.
        254    2    1    2    0    0  0.17105048192E+03  0.36833893126E+03 -0.14880078498E+03  0.91001190337E+03  0.80065482889E+03 0.  0.
         23    2    4    4    0    0  0.26595409311E+03 -0.46966457818E+02 -0.33151453090E+03  0.43755919776E+03  0.92837166836E+02 0.  0.
         23    2    4    4    0    0 -0.94903611191E+02  0.41530538908E+03  0.18271374592E+03  0.47245270561E+03  0.91334464864E+02 0.  0.
          2    1    3    3  502    0 -0.16669190838E+03 -0.36819854538E+03  0.16200458227E+04  0.16697020180E+04  0.00000000000E+00 0. -1.
         -1    1    3    3    0  502 -0.43585735374E+01 -0.14038588314E+00  0.74550636365E+02  0.74678070770E+02  0.00000000000E+00 0.  1.
         13    1    5    5    0    0  0.21118139432E+03 -0.71559741639E+02 -0.28350069228E+03  0.36068132812E+03  0.00000000000E+00 0.  1.
        -13    1    5    5    0    0  0.54772698792E+02  0.24593283820E+02 -0.48013838623E+02  0.76877869646E+02  0.00000000000E+00 0. -1.
          1    1    6    6  503    0 -0.92309474750E+02  0.31387749177E+03  0.17414616137E+03  0.37063054986E+03  0.00000000000E+00 0. -1.
         -1    1    6    6    0  503 -0.25941364408E+01  0.10142789731E+03  0.85675845513E+01  0.10182215575E+03  0.00000000000E+00 0.  1.
<mgrwt>
<rscale>  0 0.21578491E+04</rscale>
<asrwt>0</asrwt>
<pdfrwt beam="1">  1        4 0.32309135E+00 0.21578491E+04</pdfrwt>
<pdfrwt beam="2">  1       -3 0.85276641E-01 0.21578491E+04</pdfrwt>
<totfact> 0.58269931E-02</totfact>
</mgrwt>
</event>
<event>
12    7  0.1661464E-007  0.1183184E+04  0.7818608E-02  0.9127704E-01
          2   -1    0    0  501    0  0.00000000000E+00  0.00000000000E+00  0.20662753179E+04  0.20662753179E+04  0.00000000000E+00 0. -1.
         -1   -1    0    0    0  501 -0.00000000000E+00 -0.00000000000E+00 -0.16937782538E+03  0.16937782538E+03  0.00000000000E+00 0.  1.
         24    2    1    2    0    0  0.16735324732E+03 -0.15836437815E+03  0.55272735399E+03  0.60415562024E+03  0.80063099851E+02 0.  0.
        254    2    1    2    0    0 -0.16735324732E+03  0.15836437815E+03  0.13441701386E+04  0.16314975231E+04  0.89549116175E+03 0.  0.
         23    2    4    4    0    0 -0.20539670904E+03 -0.86152172386E+02  0.13453187794E+04  0.13667447287E+04  0.92187474983E+02 0.  0.
         23    2    4    4    0    0  0.38043461724E+02  0.24451655053E+03 -0.11486407979E+01  0.26475279435E+03  0.94112030439E+02 0.  0.
          4    1    3    3  502    0  0.87862756738E+02 -0.74170082674E+02  0.37332739296E+03  0.39063334154E+03  0.00000000000E+00 0. -1.
         -3    1    3    3    0  502  0.79490490579E+02 -0.84194295475E+02  0.17939996104E+03  0.21352227870E+03  0.00000000000E+00 0.  1.
         13    1    5    5    0    0  0.80066573081E+00  0.40726349868E+00  0.18887400946E+03  0.18887614560E+03  0.00000000000E+00 0. -1.
        -13    1    5    5    0    0 -0.20619737477E+03 -0.86559435884E+02  0.11564447699E+04  0.11778685831E+04  0.00000000000E+00 0.  1.
          2    1    6    6  503    0 -0.26922046022E+02  0.12759571308E+03  0.82504224520E+01  0.13066572630E+03  0.00000000000E+00 0.  1.
         -2    1    6    6    0  503  0.64965507746E+02  0.11692083745E+03 -0.93990632499E+01  0.13408706805E+03  0.00000000000E+00 0. -1.
<mgrwt>
<rscale>  0 0.11831842E+04</rscale>
<asrwt>0</asrwt>
<pdfrwt beam="1">  1        2 0.31788849E+00 0.11831842E+04</pdfrwt>
<pdfrwt beam="2">  1       -1 0.26058128E-01 0.11831842E+04</pdfrwt>
<totfact> 0.90232683E+01</totfact>
</mgrwt>
</event>
<event>
12    7  0.1661464E-007  0.1228049E+04  0.7818608E-02  0.9088653E-01
         -1   -1    0    0    0  501 -0.00000000000E+00  0.00000000000E+00  0.14230801758E+03  0.14230801758E+03  0.00000000000E+00 0.  1.
          2   -1    0    0  501    0  0.00000000000E+00 -0.00000000000E+00 -0.26493664845E+04  0.26493664845E+04  0.00000000000E+00 0. -1.
         24    2    1    2    0    0  0.30414099391E+02  0.21256373590E+03 -0.98426084379E+03  0.10104327325E+04  0.78080337652E+02 0.  0.
        254    2    1    2    0    0 -0.30414099391E+02 -0.21256373590E+03 -0.15227976231E+04  0.17812417695E+04  0.89877765950E+03 0.  0.
         23    2    4    4    0    0  0.38780417304E+03 -0.25547883272E+03 -0.60464299463E+03  0.76766588913E+03  0.89756647610E+02 0.  0.
         23    2    4    4    0    0 -0.41821827243E+03  0.42915096824E+02 -0.91815462850E+03  0.10135758804E+04  0.87062704610E+02 0.  0.
          4    1    3    3  502    0  0.19700641936E+02  0.13999244541E+03 -0.79462252104E+03  0.80710033516E+03  0.00000000000E+00 0. -1.
         -3    1    3    3    0  502  0.10713457456E+02  0.72571290494E+02 -0.18963832274E+03  0.20333239739E+03  0.00000000000E+00 0.  1.
         13    1    5    5    0    0  0.89688130549E+02 -0.28336269081E+02 -0.83669080833E+02  0.12588653619E+03  0.00000000000E+00 0.  1.
        -13    1    5    5    0    0  0.29811604249E+03 -0.22714256364E+03 -0.52097391379E+03  0.64177935294E+03  0.00000000000E+00 0. -1.
          4    1    6    6  503    0 -0.35127315950E+03  0.42107980186E+02 -0.83472736624E+03  0.90660669009E+03  0.00000000000E+00 0. -1.
         -4    1    6    6    0  503 -0.66945112934E+02  0.80711663875E+00 -0.83427262261E+02  0.10696919029E+03  0.00000000000E+00 0.  1.
<mgrwt>
<rscale>  0 0.12280490E+04</rscale>
<asrwt>0</asrwt>
<pdfrwt beam="1">  1        2 0.40759480E+00 0.12280490E+04</pdfrwt>
<pdfrwt beam="2">  1       -1 0.21893544E-01 0.12280490E+04</pdfrwt>
<totfact> 0.56516694E+01</totfact>
</mgrwt>
</event>
<event>
12    7  0.1661464E-007  0.1311701E+04  0.7818608E-02  0.9020338E-01
          2   -1    0    0  501    0  0.00000000000E+00  0.00000000000E+00  0.50835378116E+03  0.50835378116E+03  0.00000000000E+00 0. -1.
         -1   -1    0    0    0  501 -0.00000000000E+00 -0.00000000000E+00 -0.84614227534E+03  0.84614227534E+03  0.00000000000E+00 0.  1.
         24    2    1    2    0    0  0.10280867809E+03 -0.10251438065E+03  0.22627906210E+03  0.27987918685E+03  0.77790248457E+02 0.  0.
        254    2    1    2    0    0 -0.10280867809E+03  0.10251438065E+03 -0.56406755627E+03  0.10746168697E+04  0.90307828341E+03 0.  0.
         23    2    4    4    0    0 -0.25131820630E+03  0.40212941740E+03 -0.95465086058E+02  0.49170715632E+03  0.88280438149E+02 0.  0.
         23    2    4    4    0    0  0.14850952821E+03 -0.29961503676E+03 -0.46860247022E+03  0.58290971333E+03  0.91494309038E+02 0.  0.
          4    1    3    3  502    0  0.72416458423E+02 -0.11155842393E+03  0.18226415193E+03  0.22563166107E+03  0.00000000000E+00 0. -1.
         -3    1    3    3    0  502  0.30392219670E+02  0.90440432817E+01  0.44014910167E+02  0.54247525771E+02  0.00000000000E+00 0.  1.
         13    1    5    5    0    0 -0.13151444651E+03  0.17608111878E+03 -0.85065564852E+02  0.23566238638E+03  0.00000000000E+00 0. -1.
        -13    1    5    5    0    0 -0.11980375979E+03  0.22604829863E+03 -0.10399521206E+02  0.25604476994E+03  0.00000000000E+00 0.  1.
          2    1    6    6  503    0  0.88707877513E+02 -0.24603534862E+03 -0.31361712354E+03  0.40836035615E+03  0.00000000000E+00 0. -1.
         -2    1    6    6    0  503  0.59801650697E+02 -0.53579688141E+02 -0.15498534667E+03  0.17454935718E+03  0.00000000000E+00 0.  1.
<mgrwt>
<rscale>  0 0.13117006E+04</rscale>
<asrwt>0</asrwt>
<pdfrwt beam="1">  1        2 0.78208275E-01 0.13117006E+04</pdfrwt>
<pdfrwt beam="2">  1       -1 0.13017573E+00 0.13117006E+04</pdfrwt>
<totfact> 0.34196914E+01</totfact>
</mgrwt>
</event>
<event>
12    7  0.1661464E-007  0.2979157E+04  0.7818608E-02  0.8249708E-01
         -1   -1    0    0    0  501 -0.00000000000E+00  0.00000000000E+00  0.18535732720E+04  0.18535732720E+04  0.00000000000E+00 0.  1.
          2   -1    0    0  501    0  0.00000000000E+00 -0.00000000000E+00 -0.11970630846E+04  0.11970630846E+04  0.00000000000E+00 0. -1.
         24    2    1    2    0    0  0.78666075618E+03  0.93820180515E+03 -0.28682066102E+03  0.12600659237E+04  0.80263740902E+02 0.  0.
        254    2    1    2    0    0 -0.78666075618E+03 -0.93820180515E+03  0.94333084848E+03  0.17905704328E+04  0.90399757342E+03 0.  0.
         23    2    4    4    0    0 -0.75474178479E+03 -0.24300569389E+03  0.34995063627E+03  0.87145555251E+03  0.91007709652E+02 0.  0.
         23    2    4    4    0    0 -0.31918971389E+02 -0.69519611126E+03  0.59338021221E+03  0.91911488032E+03  0.91409152347E+02 0.  0.
          2    1    3    3  502    0  0.12986828325E+03  0.14749177761E+03 -0.16526407570E+02  0.19721236676E+03  0.00000000000E+00 0. -1.
         -1    1    3    3    0  502  0.65679247293E+03  0.79071002754E+03 -0.27029425345E+03  0.10628535570E+04  0.00000000000E+00 0.  1.
         13    1    5    5    0    0 -0.17055638138E+03 -0.74562863015E+02  0.11982762572E+03  0.22137696279E+03  0.00000000000E+00 0. -1.
        -13    1    5    5    0    0 -0.58418540341E+03 -0.16844283087E+03  0.23012301055E+03  0.65007858972E+03  0.00000000000E+00 0.  1.
          1    1    6    6  503    0  0.19260201290E+02 -0.18379033102E+03  0.11977493063E+03  0.22021779024E+03  0.00000000000E+00 0. -1.
         -1    1    6    6    0  503 -0.51179172679E+02 -0.51140578024E+03  0.47360528158E+03  0.69889709008E+03  0.00000000000E+00 0.  1.
<mgrwt>
<rscale>  0 0.29791570E+04</rscale>
<asrwt>0</asrwt>
<pdfrwt beam="1">  1        2 0.18416355E+00 0.29791570E+04</pdfrwt>
<pdfrwt beam="2">  1       -1 0.28516512E+00 0.29791570E+04</pdfrwt>
<totfact> 0.76553323E-01</totfact>
</mgrwt>
</event>
<event>
12    7  0.1661464E-007  0.1752792E+04  0.7818608E-02  0.8731815E-01
         -1   -1    0    0    0  501 -0.00000000000E+00  0.00000000000E+00  0.17507988098E+03  0.17507988098E+03  0.00000000000E+00 0.  1.
          2   -1    0    0  501    0  0.00000000000E+00 -0.00000000000E+00 -0.43869699987E+04  0.43869699987E+04  0.00000000000E+00 0. -1.
         24    2    1    2    0    0  0.30719545101E+03 -0.16637760265E+03 -0.29595452361E+04  0.29812071168E+04  0.81469733180E+02 0.  0.
        254    2    1    2    0    0 -0.30719545101E+03  0.16637760265E+03 -0.12523448816E+04  0.15808427628E+04  0.89924723320E+03 0.  0.
         23    2    4    4    0    0 -0.48961441420E+03  0.23960559951E+03 -0.12477882133E+04  0.13646950709E+04  0.91016994694E+02 0.  0.
         23    2    4    4    0    0  0.18241896320E+03 -0.73227996862E+02 -0.45566682904E+01  0.21614769190E+03  0.89777746844E+02 0.  0.
          2    1    3    3  502    0  0.13187858352E+03 -0.82468845748E+02 -0.16502867839E+04  0.16576005371E+04  0.00000000000E+00 0. -1.
         -3    1    3    3    0  502  0.17531686749E+03 -0.83908756899E+02 -0.13092584521E+04  0.13236065798E+04  0.00000000000E+00 0.  1.
         13    1    5    5    0    0 -0.17143610326E+03  0.10632479274E+03 -0.36749309257E+03  0.41922126871E+03  0.00000000000E+00 0.  1.
        -13    1    5    5    0    0 -0.31817831094E+03  0.13328080677E+03 -0.88029512078E+03  0.94547380221E+03  0.00000000000E+00 0. -1.
          2    1    6    6  503    0  0.11436740580E+03 -0.44766712012E+02  0.40965002226E+02  0.12946850359E+03  0.00000000000E+00 0. -1.
         -2    1    6    6    0  503  0.68051557399E+02 -0.28461284850E+02 -0.45521670516E+02  0.86679188311E+02  0.00000000000E+00 0.  1.
<mgrwt>
<rscale>  0 0.17527923E+04</rscale>
<asrwt>0</asrwt>
<pdfrwt beam="1">  1        2 0.67491847E+00 0.17527923E+04</pdfrwt>
<pdfrwt beam="2">  1       -1 0.26935366E-01 0.17527923E+04</pdfrwt>
<totfact> 0.21445217E+00</totfact>
</mgrwt>
</event>
<event>
12    7  0.1661464E-007  0.1916925E+04  0.7818608E-02  0.8646477E-01
          2   -1    0    0  501    0  0.00000000000E+00  0.00000000000E+00  0.12569844727E+04  0.12569844727E+04  0.00000000000E+00 0. -1.
         -1   -1    0    0    0  501 -0.00000000000E+00 -0.00000000000E+00 -0.73083656346E+03  0.73083656346E+03  0.00000000000E+00 0.  1.
         24    2    1    2    0    0  0.14962807212E+02  0.27390766764E+03  0.92159432490E+03  0.96489621440E+03  0.80245304487E+02 0.  0.
        254    2    1    2    0    0 -0.14962807212E+02 -0.27390766764E+03 -0.39544641561E+03  0.10229248218E+04  0.90263393878E+03 0.  0.
         23    2    4    4    0    0  0.47869707622E+02 -0.15921836859E+01  0.27305625104E+03  0.29170682911E+03  0.90769565168E+02 0.  0.
         23    2    4    4    0    0 -0.62832514834E+02 -0.27231548395E+03 -0.66850266665E+03  0.73121799269E+03  0.98388463731E+02 0.  0.
          4    1    3    3  502    0 -0.16399341750E+02  0.21161549112E+03  0.61933348493E+03  0.65469383688E+03  0.00000000000E+00 0. -1.
         -3    1    3    3    0  502  0.31362148962E+02  0.62292176520E+02  0.30226083996E+03  0.31020237752E+03  0.00000000000E+00 0.  1.
         13    1    5    5    0    0 -0.37337364020E+00 -0.32516402573E+02  0.39200604616E+02  0.50932732564E+02  0.00000000000E+00 0.  1.
        -13    1    5    5    0    0  0.48243081262E+02  0.30924218887E+02  0.23385564642E+03  0.24077409655E+03  0.00000000000E+00 0. -1.
          3    1    6    6  503    0 -0.58322433167E+02 -0.21654665550E+03 -0.41608848131E+03  0.47267704037E+03  0.00000000000E+00 0. -1.
         -3    1    6    6    0  503 -0.45100816661E+01 -0.55768828457E+02 -0.25241418534E+03  0.25854095232E+03  0.00000000000E+00 0.  1.
<mgrwt>
<rscale>  0 0.19169248E+04</rscale>
<asrwt>0</asrwt>
<pdfrwt beam="1">  1        2 0.19338223E+00 0.19169248E+04</pdfrwt>
<pdfrwt beam="2">  1       -1 0.11243639E+00 0.19169248E+04</pdfrwt>
<totfact> 0.13535513E+01</totfact>
</mgrwt>
</event>
<event>
12    7  0.1661464E-007  0.2259420E+04  0.7818608E-02  0.8494095E-01
         -3   -1    0    0    0  501 -0.00000000000E+00  0.00000000000E+00  0.53304797307E+03  0.53304797307E+03  0.00000000000E+00 0.  1.
          2   -1    0    0  501    0  0.00000000000E+00 -0.00000000000E+00 -0.23942398645E+04  0.23942398645E+04  0.00000000000E+00 0. -1.
         24    2    1    2    0    0 -0.61038637003E+03  0.61189875170E+03 -0.19055951498E+03  0.88846184421E+03  0.77845467508E+02 0.  0.
        254    2    1    2    0    0  0.61038637003E+03 -0.61189875170E+03 -0.16706323764E+04  0.20388259933E+04  0.78664305176E+03 0.  0.
         23    2    4    4    0    0  0.24323799864E+03 -0.22855603236E+03 -0.13884479017E+04  0.14310657965E+04  0.93590354267E+02 0.  0.
         23    2    4    4    0    0  0.36714837139E+03 -0.38334271934E+03 -0.28218447476E+03  0.60776019682E+03  0.89413712341E+02 0.  0.
          4    1    3    3  502    0 -0.54534453019E+02  0.76684288655E+02 -0.20025051383E+01  0.94119587331E+02  0.00000000000E+00 0. -1.
         -3    1    3    3    0  502 -0.55585191701E+03  0.53521446305E+03 -0.18855700984E+03  0.79434225688E+03  0.00000000000E+00 0.  1.
         13    1    5    5    0    0  0.14084680591E+03 -0.18212316974E+03 -0.10291739337E+04  0.10546116145E+04  0.00000000000E+00 0. -1.
        -13    1    5    5    0    0  0.10239119273E+03 -0.46432862625E+02 -0.35927396799E+03  0.37645418201E+03  0.00000000000E+00 0.  1.
          4    1    6    6  503    0  0.15169940209E+03 -0.22231453801E+03 -0.14859934341E+03  0.30743816821E+03  0.00000000000E+00 0. -1.
         -4    1    6    6    0  503  0.21544896929E+03 -0.16102818133E+03 -0.13358513135E+03  0.30032202861E+03  0.00000000000E+00 0.  1.
<mgrwt>
<rscale>  0 0.22594200E+04</rscale>
<asrwt>0</asrwt>
<pdfrwt beam="1">  1        2 0.36834459E+00 0.22594200E+04</pdfrwt>
<pdfrwt beam="2">  1       -3 0.82007381E-01 0.22594200E+04</pdfrwt>
<totfact> 0.32095513E+00</totfact>
</mgrwt>
</event>
<event>
12    7  0.1661464E-007  0.1685471E+04  0.7818608E-02  0.8769694E-01
         -1   -1    0    0    0  501 -0.00000000000E+00  0.00000000000E+00  0.88665563990E+03  0.88665563990E+03  0.00000000000E+00 0.  1.
          2   -1    0    0  501    0  0.00000000000E+00 -0.00000000000E+00 -0.80099128499E+03  0.80099128499E+03  0.00000000000E+00 0. -1.
         24    2    1    2    0    0  0.29529149479E+03  0.46183569072E+03 -0.21813466647E+03  0.59539306357E+03  0.80130489284E+02 0.  0.
        254    2    1    2    0    0 -0.29529149479E+03 -0.46183569072E+03  0.30379902138E+03  0.10922538613E+04  0.89455876278E+03 0.  0.
         23    2    4    4    0    0  0.12859463017E+03 -0.31929924920E+03  0.48293652647E+03  0.60022667831E+03  0.92497498919E+02 0.  0.
         23    2    4    4    0    0 -0.42388612496E+03 -0.14253644152E+03 -0.17913750510E+03  0.49202718301E+03  0.10002209254E+03 0.  0.
          2    1    3    3  502    0  0.29903691902E+03  0.46139403689E+03 -0.21458966736E+03  0.59021713086E+03  0.00000000000E+00 0. -1.
         -1    1    3    3    0  502 -0.37454242332E+01  0.44165382896E+00 -0.35449991047E+01  0.51759327125E+01  0.00000000000E+00 0.  1.
         13    1    5    5    0    0  0.86126157228E+02 -0.26935406872E+03  0.43568290763E+03  0.51941209583E+03  0.00000000000E+00 0. -1.
        -13    1    5    5    0    0  0.42468472947E+02 -0.49945180485E+02  0.47253618840E+02  0.80814582481E+02  0.00000000000E+00 0.  1.
          3    1    6    6  503    0 -0.24074798017E+03 -0.60649387861E+02 -0.14793620399E+03  0.28900356166E+03  0.00000000000E+00 0. -1.
         -3    1    6    6    0  503 -0.18313814479E+03 -0.81887053661E+02 -0.31201301106E+02  0.20302362135E+03  0.00000000000E+00 0.  1.
<mgrwt>
<rscale>  0 0.16854714E+04</rscale>
<asrwt>0</asrwt>
<pdfrwt beam="1">  1        2 0.12322943E+00 0.16854714E+04</pdfrwt>
<pdfrwt beam="2">  1       -1 0.13640856E+00 0.16854714E+04</pdfrwt>
<totfact> 0.16776018E+01</totfact>
</mgrwt>
</event>
<event>
12    7  0.1661464E-007  0.1416712E+04  0.7818608E-02  0.8941810E-01
         -1   -1    0    0    0  501 -0.00000000000E+00  0.00000000000E+00  0.12570961048E+04  0.12570961048E+04  0.00000000000E+00 0.  1.
          2   -1    0    0  501    0  0.00000000000E+00 -0.00000000000E+00 -0.39914847792E+03  0.39914847792E+03  0.00000000000E+00 0. -1.
         24    2    1    2    0    0  0.91205207730E+02 -0.39600945489E+03  0.15196805496E+03  0.44082897837E+03  0.78064205347E+02 0.  0.
        254    2    1    2    0    0 -0.91205207730E+02  0.39600945489E+03  0.70597957192E+03  0.12154156043E+04  0.90204548502E+03 0.  0.
         23    2    4    4    0    0 -0.24604332871E+03 -0.21353818645E+03  0.14751482688E+03  0.36894572996E+03  0.90688757996E+02 0.  0.
         23    2    4    4    0    0  0.15483812098E+03  0.60954764134E+03  0.55846474503E+03  0.84646987439E+03  0.95421203221E+02 0.  0.
          4    1    3    3  502    0  0.81987329646E+01 -0.15833313972E+03  0.86914410837E+02  0.18080574429E+03  0.00000000000E+00 0. -1.
         -3    1    3    3    0  502  0.83006474766E+02 -0.23767631517E+03  0.65053644125E+02  0.26002323408E+03  0.00000000000E+00 0.  1.
         13    1    5    5    0    0 -0.19662544561E+03 -0.20952052570E+03  0.11411563290E+03  0.30916467170E+03  0.00000000000E+00 0. -1.
        -13    1    5    5    0    0 -0.49417883105E+02 -0.40176607472E+01  0.33399193981E+02  0.59781058263E+02  0.00000000000E+00 0.  1.
          2    1    6    6  503    0  0.16114761606E+03  0.51852020204E+03  0.45409279145E+03  0.70783615148E+03  0.00000000000E+00 0. -1.
         -2    1    6    6    0  503 -0.63094950803E+01  0.91027439303E+02  0.10437195358E+03  0.13863372291E+03  0.00000000000E+00 0.  1.
<mgrwt>
<rscale>  0 0.14167117E+04</rscale>
<asrwt>0</asrwt>
<pdfrwt beam="1">  1        2 0.61407459E-01 0.14167117E+04</pdfrwt>
<pdfrwt beam="2">  1       -1 0.19339940E+00 0.14167117E+04</pdfrwt>
<totfact> 0.14829003E+01</totfact>
</mgrwt>
</event>
<event>
12    7  0.1661464E-007  0.2320838E+04  0.7818608E-02  0.8469750E-01
         -1   -1    0    0    0  501 -0.00000000000E+00  0.00000000000E+00  0.64593117122E+03  0.64593117122E+03  0.00000000000E+00 0.  1.
          2   -1    0    0  501    0  0.00000000000E+00 -0.00000000000E+00 -0.20846996419E+04  0.20846996419E+04  0.00000000000E+00 0. -1.
         24    2    1    2    0    0  0.25090871112E+03 -0.70773763165E+03  0.11418915341E+03  0.76379268607E+03  0.80575231712E+02 0.  0.
        254    2    1    2    0    0 -0.25090871112E+03  0.70773763165E+03 -0.15529576241E+04  0.19668381270E+04  0.94494819923E+03 0.  0.
         23    2    4    4    0    0  0.82484139303E+02  0.26494297657E+03  0.21570809404E+02  0.29510002677E+03  0.98083188719E+02 0.  0.
         23    2    4    4    0    0 -0.33339285043E+03  0.44279465508E+03 -0.15745284335E+04  0.16717381003E+04  0.91381556030E+02 0.  0.
          4    1    3    3  502    0  0.21150074695E+02 -0.80622332323E+02 -0.11653714235E+02  0.84161126325E+02  0.00000000000E+00 0. -1.
         -3    1    3    3    0  502  0.22975863643E+03 -0.62711529933E+03  0.12584286765E+03  0.67963155974E+03  0.00000000000E+00 0.  1.
         13    1    5    5    0    0  0.70317904963E+02  0.27006488417E+03  0.27900487988E+02  0.28046049036E+03  0.00000000000E+00 0. -1.
        -13    1    5    5    0    0  0.12166234339E+02 -0.51219075981E+01 -0.63296785833E+01  0.14639536414E+02  0.00000000000E+00 0.  1.
          3    1    6    6  503    0 -0.18560611733E+03  0.23402885088E+03 -0.98034728940E+03  0.10248414227E+04  0.00000000000E+00 0. -1.
         -3    1    6    6    0  503 -0.14778673309E+03  0.20876580419E+03 -0.59418114406E+03  0.64689667755E+03  0.00000000000E+00 0.  1.
<mgrwt>
<rscale>  0 0.23208382E+04</rscale>
<asrwt>0</asrwt>
<pdfrwt beam="1">  1        2 0.32072302E+00 0.23208382E+04</pdfrwt>
<pdfrwt beam="2">  1       -1 0.99374026E-01 0.23208382E+04</pdfrwt>
<totfact> 0.59674700E+00</totfact>
</mgrwt>
</event>
<event>
12    7  0.1661464E-007  0.1940010E+04  0.7818608E-02  0.8635193E-01
          2   -1    0    0  501    0  0.00000000000E+00  0.00000000000E+00  0.97035367130E+03  0.97035367130E+03  0.00000000000E+00 0. -1.
         -1   -1    0    0    0  501 -0.00000000000E+00 -0.00000000000E+00 -0.96965659239E+03  0.96965659239E+03  0.00000000000E+00 0.  1.
         24    2    1    2    0    0 -0.12787072028E+03  0.48966114876E+03  0.56892123377E+03  0.76553122264E+03  0.79042525841E+02 0.  0.
        254    2    1    2    0    0  0.12787072028E+03 -0.48966114876E+03 -0.56822415486E+03  0.11744790411E+04  0.89465265104E+03 0.  0.
         23    2    4    4    0    0  0.39919291794E+03 -0.12840159704E+03 -0.57058736426E+03  0.71383205124E+03  0.90245782547E+02 0.  0.
         23    2    4    4    0    0 -0.27132219766E+03 -0.36125955171E+03  0.23632093977E+01  0.46064698982E+03  0.89810165498E+02 0.  0.
          4    1    3    3  502    0 -0.18335354903E+02  0.14240796863E+03  0.20883301089E+03  0.25343133430E+03  0.00000000000E+00 0. -1.
         -3    1    3    3    0  502 -0.10953536538E+03  0.34725318012E+03  0.36008822288E+03  0.51209988833E+03  0.00000000000E+00 0.  1.
         13    1    5    5    0    0  0.39838138746E+02 -0.79610561372E+01 -0.19667855022E+02  0.45136240813E+02  0.00000000000E+00 0. -1.
        -13    1    5    5    0    0  0.35935477919E+03 -0.12044054091E+03 -0.55091950924E+03  0.66869581042E+03  0.00000000000E+00 0.  1.
          2    1    6    6  503    0 -0.21908202709E+02 -0.34669809313E+02 -0.26287896032E+02  0.48713637736E+02  0.00000000000E+00 0. -1.
         -2    1    6    6    0  503 -0.24941399495E+03 -0.32658974240E+03  0.28651105430E+02  0.41193335208E+03  0.00000000000E+00 0.  1.
<mgrwt>
<rscale>  0 0.19400101E+04</rscale>
<asrwt>0</asrwt>
<pdfrwt beam="1">  1        2 0.14928518E+00 0.19400101E+04</pdfrwt>
<pdfrwt beam="2">  1       -1 0.14917794E+00 0.19400101E+04</pdfrwt>
<totfact> 0.99299839E+00</totfact>
</mgrwt>
</event>
<event>
12    7  0.2209432E-007  0.2490925E+04  0.7818608E-02  0.8406226E-01
          2   -1    0    0  501    0  0.00000000000E+00  0.00000000000E+00  0.20750939536E+04  0.20750939536E+04  0.00000000000E+00 0. -1.
         -1   -1    0    0    0  501 -0.00000000000E+00 -0.00000000000E+00 -0.74752097569E+03  0.74752097569E+03  0.00000000000E+00 0.  1.
         24    2    1    2    0    0  0.50244087836E+03 -0.49133430814E+03  0.15107078678E+04  0.16680497998E+04  0.79345032032E+02 0.  0.
        254    2    1    2    0    0 -0.50244087836E+03  0.49133430814E+03 -0.18313488996E+03  0.11545651294E+04  0.89756671707E+03 0.  0.
         23    2    4    4    0    0  0.34451272102E+01  0.32998849677E+03  0.28177471500E+03  0.44355355975E+03  0.91861272830E+02 0.  0.
         23    2    4    4    0    0 -0.50588600557E+03  0.16134581136E+03 -0.46490960497E+03  0.71101156969E+03  0.86275083114E+02 0.  0.
          4    1    3    3  502    0  0.49283812809E+03 -0.46727275212E+03  0.14759084167E+04  0.16246657810E+04  0.00000000000E+00 0. -1.
         -3    1    3    3    0  502  0.96027502673E+01 -0.24061556020E+02  0.34799451080E+02  0.43384018789E+02  0.00000000000E+00 0.  1.
         13    1    5    5    0    0  0.26582700619E+02  0.28596843192E+03  0.20811477387E+03  0.35467780185E+03  0.00000000000E+00 0. -1.
        -13    1    5    5    0    0 -0.23137573409E+02  0.44020064853E+02  0.73659941136E+02  0.88875757893E+02  0.00000000000E+00 0.  1.
          3    1    6    6  503    0 -0.47340055264E+03  0.14871250515E+03 -0.40008345526E+03  0.63740902379E+03  0.00000000000E+00 0. -1.
         -3    1    6    6    0  503 -0.32485452924E+02  0.12633306214E+02 -0.64826149704E+02  0.73602545900E+02  0.00000000000E+00 0.  1.
<mgrwt>
<rscale>  0 0.24909245E+04</rscale>
<asrwt>0</asrwt>
<pdfrwt beam="1">  1        2 0.31924522E+00 0.24909245E+04</pdfrwt>
<pdfrwt beam="2">  1       -1 0.11500323E+00 0.24909245E+04</pdfrwt>
<totfact> 0.42285380E+00</totfact>
</mgrwt>
</event>
<event>
12    7  0.1661464E-007  0.1930548E+04  0.7818608E-02  0.8639798E-01
         -1   -1    0    0    0  501 -0.00000000000E+00  0.00000000000E+00  0.66629690085E+03  0.66629690085E+03  0.00000000000E+00 0.  1.
          2   -1    0    0  501    0  0.00000000000E+00 -0.00000000000E+00 -0.13984069181E+04  0.13984069181E+04  0.00000000000E+00 0. -1.
         24    2    1    2    0    0  0.26922805547E+03  0.27456407303E+03 -0.96773869766E+03  0.10444146926E+04  0.80091742145E+02 0.  0.
        254    2    1    2    0    0 -0.26922805547E+03 -0.27456407303E+03  0.23562868043E+03  0.10202891263E+04  0.91520481323E+03 0.  0.
         23    2    4    4    0    0 -0.58233465334E+03 -0.64662651021E+02  0.22042300741E+03  0.63270007684E+03  0.91805109410E+02 0.  0.
         23    2    4    4    0    0  0.31310659788E+03 -0.20990142201E+03  0.15205673018E+02  0.38758904946E+03  0.88880313765E+02 0.  0.
          4    1    3    3  502    0  0.19334153906E+03  0.23840187737E+03 -0.71629425449E+03  0.77929061645E+03  0.00000000000E+00 0. -1.
         -3    1    3    3    0  502  0.75886516404E+02  0.36162195658E+02 -0.25144444316E+03  0.26512407617E+03  0.00000000000E+00 0.  1.
         13    1    5    5    0    0 -0.41506149666E+03 -0.23833620731E+02  0.19295025334E+03  0.45833818055E+03  0.00000000000E+00 0.  1.
        -13    1    5    5    0    0 -0.16727315668E+03 -0.40829030290E+02  0.27472754076E+02  0.17436189629E+03  0.00000000000E+00 0. -1.
          3    1    6    6  503    0  0.45570458103E+02  0.20832437141E+01  0.69867338802E+01  0.46149983818E+02  0.00000000000E+00 0. -1.
         -3    1    6    6    0  503  0.26753613977E+03 -0.21198466572E+03  0.82189391380E+01  0.34143906564E+03  0.00000000000E+00 0.  1.
<mgrwt>
<rscale>  0 0.19305483E+04</rscale>
<asrwt>0</asrwt>
<pdfrwt beam="1">  1        2 0.21513953E+00 0.19305483E+04</pdfrwt>
<pdfrwt beam="2">  1       -1 0.10250722E+00 0.19305483E+04</pdfrwt>
<totfact> 0.13900523E+01</totfact>
</mgrwt>
</event>
<event>
12    7  0.1661464E-007  0.2423396E+04  0.7818608E-02  0.8430796E-01
         -1   -1    0    0    0  501 -0.00000000000E+00  0.00000000000E+00  0.18728901144E+04  0.18728901144E+04  0.00000000000E+00 0.  1.
          2   -1    0    0  501    0  0.00000000000E+00 -0.00000000000E+00 -0.78392837785E+03  0.78392837785E+03  0.00000000000E+00 0. -1.
         24    2    1    2    0    0 -0.88712376942E+03  0.49871426855E+03  0.72709973513E+03  0.12533771074E+04  0.81090347631E+02 0.  0.
        254    2    1    2    0    0  0.88712376942E+03 -0.49871426855E+03  0.36186200144E+03  0.14034413849E+04  0.89610217547E+03 0.  0.
         23    2    4    4    0    0 -0.25953076108E+01  0.17776838157E+03 -0.54019008539E+02  0.20737164845E+03  0.92068529855E+02 0.  0.
         23    2    4    4    0    0  0.88971907703E+03 -0.67648265012E+03  0.41588100998E+03  0.11960697365E+04  0.91635080985E+02 0.  0.
          2    1    3    3  502    0 -0.73975103454E+03  0.42430796339E+03  0.57205985767E+03  0.10268988858E+04  0.00000000000E+00 0. -1.
         -1    1    3    3    0  502 -0.14737273488E+03  0.74406305155E+02  0.15503987747E+03  0.22647822156E+03  0.00000000000E+00 0.  1.
         13    1    5    5    0    0 -0.13462446065E+02  0.10765648716E+03  0.13620740226E+02  0.10934661058E+03  0.00000000000E+00 0. -1.
        -13    1    5    5    0    0  0.10867138454E+02  0.70111894414E+02 -0.67639748765E+02  0.98025037870E+02  0.00000000000E+00 0.  1.
          4    1    6    6  503    0  0.62853974958E+02 -0.48778732611E+02  0.56141328981E+02  0.97374718192E+02  0.00000000000E+00 0. -1.
         -4    1    6    6    0  503  0.82686510207E+03 -0.62770391751E+03  0.35973968100E+03  0.10986950183E+04  0.00000000000E+00 0.  1.
<mgrwt>
<rscale>  0 0.24233957E+04</rscale>
<asrwt>0</asrwt>
<pdfrwt beam="1">  1        2 0.12060437E+00 0.24233957E+04</pdfrwt>
<pdfrwt beam="2">  1       -1 0.28813694E+00 0.24233957E+04</pdfrwt>
<totfact> 0.14282986E+00</totfact>
</mgrwt>
</event>
<event>
12    7  0.1661464E-007  0.1884912E+04  0.7818608E-02  0.8662403E-01
          2   -1    0    0  501    0  0.00000000000E+00  0.00000000000E+00  0.15310652185E+04  0.15310652185E+04  0.00000000000E+00 0. -1.
         -1   -1    0    0    0  501 -0.00000000000E+00 -0.00000000000E+00 -0.58013409015E+03  0.58013409015E+03  0.00000000000E+00 0.  1.
         24    2    1    2    0    0 -0.45789027262E+02  0.10086663999E+03 -0.43656390484E+03  0.45767505485E+03  0.81287752744E+02 0.  0.
        254    2    1    2    0    0  0.45789027262E+02 -0.10086663999E+03  0.13874950332E+04  0.16535242538E+04  0.89259692846E+03 0.  0.
         23    2    4    4    0    0 -0.40356192293E+03 -0.14258065724E+03  0.64063821441E+03  0.77601787797E+03  0.92708984006E+02 0.  0.
         23    2    4    4    0    0  0.44935095019E+03  0.41714017247E+02  0.74685681875E+03  0.87750637581E+03  0.92552667130E+02 0.  0.
          2    1    3    3  502    0  0.49109902327E+01 -0.11204920661E+02 -0.21161136893E+02  0.24443031455E+02  0.00000000000E+00 0. -1.
         -1    1    3    3    0  502 -0.50700017494E+02  0.11207156065E+03 -0.41540276794E+03  0.43323202339E+03  0.00000000000E+00 0.  1.
         13    1    5    5    0    0 -0.68147866688E+02 -0.54117258748E+02  0.89731241358E+02  0.12499802040E+03  0.00000000000E+00 0.  1.
        -13    1    5    5    0    0 -0.33541405624E+03 -0.88463398488E+02  0.55090697305E+03  0.65101985757E+03  0.00000000000E+00 0. -1.
          4    1    6    6  503    0  0.29358536329E+03 -0.19439319366E+01  0.41537000552E+03  0.50865350279E+03  0.00000000000E+00 0. -1.
         -4    1    6    6    0  503  0.15576558690E+03  0.43657949184E+02  0.33148681323E+03  0.36885287302E+03  0.00000000000E+00 0.  1.
<mgrwt>
<rscale>  0 0.18849118E+04</rscale>
<asrwt>0</asrwt>
<pdfrwt beam="1">  1        2 0.23554849E+00 0.18849118E+04</pdfrwt>
<pdfrwt beam="2">  1       -1 0.89251399E-01 0.18849118E+04</pdfrwt>
<totfact> 0.16026478E+01</totfact>
</mgrwt>
</event>
<event>
12    7  0.1661464E-007  0.1147785E+04  0.7818608E-02  0.9159829E-01
         -1   -1    0    0    0  501 -0.00000000000E+00  0.00000000000E+00  0.24093868520E+03  0.24093868520E+03  0.00000000000E+00 0.  1.
          2   -1    0    0  501    0  0.00000000000E+00 -0.00000000000E+00 -0.13669561524E+04  0.13669561524E+04  0.00000000000E+00 0. -1.
         24    2    1    2    0    0  0.20640483982E+03  0.45888460788E+02 -0.11448209212E+03  0.25327180764E+03  0.79572296640E+02 0.  0.
        254    2    1    2    0    0 -0.20640483982E+03 -0.45888460788E+02 -0.10115353751E+04  0.13546230300E+04  0.87583733051E+03 0.  0.
         23    2    4    4    0    0 -0.10546598988E+03 -0.42428064303E+03 -0.30420677219E+03  0.54083591288E+03  0.93939264103E+02 0.  0.
         23    2    4    4    0    0 -0.10093884994E+03  0.37839218224E+03 -0.70732860290E+03  0.81378711709E+03  0.92554980663E+02 0.  0.
          2    1    3    3  502    0  0.18166884588E+02  0.98569273875E+01 -0.44807010271E+02  0.49344329792E+02  0.00000000000E+00 0. -1.
         -1    1    3    3    0  502  0.18823795523E+03  0.36031533401E+02 -0.69675081844E+02  0.20392747784E+03  0.00000000000E+00 0.  1.
         13    1    5    5    0    0 -0.94587187022E+02 -0.42113716744E+03 -0.30637045778E+03  0.52930719544E+03  0.00000000000E+00 0. -1.
        -13    1    5    5    0    0 -0.10878802862E+02 -0.31434755961E+01  0.21636855855E+01  0.11528717442E+02  0.00000000000E+00 0.  1.
          1    1    6    6  503    0 -0.11080801225E+03  0.27460730499E+03 -0.55738955373E+03  0.63116614464E+03  0.00000000000E+00 0. -1.
         -1    1    6    6    0  503  0.98691623105E+01  0.10378487726E+03 -0.14993904917E+03  0.18262097245E+03  0.00000000000E+00 0.  1.
<mgrwt>
<rscale>  0 0.11477850E+04</rscale>
<asrwt>0</asrwt>
<pdfrwt beam="1">  1        2 0.21030095E+00 0.11477850E+04</pdfrwt>
<pdfrwt beam="2">  1       -1 0.37067490E-01 0.11477850E+04</pdfrwt>
<totfact> 0.11925049E+02</totfact>
</mgrwt>
</event>
<event>
12    7  0.1661464E-007  0.2054606E+04  0.7818608E-02  0.8581508E-01
         -1   -1    0    0    0  501 -0.00000000000E+00  0.00000000000E+00  0.77216031611E+03  0.77216031611E+03  0.00000000000E+00 0.  1.
          2   -1    0    0  501    0  0.00000000000E+00 -0.00000000000E+00 -0.13667519166E+04  0.13667519166E+04  0.00000000000E+00 0. -1.
         24    2    1    2    0    0 -0.10759364488E+03 -0.10147285882E+03 -0.10794898071E+04  0.10923623442E+04  0.78000729719E+02 0.  0.
        254    2    1    2    0    0  0.10759364488E+03  0.10147285882E+03  0.48489820662E+03  0.10465498885E+04  0.91556936650E+03 0.  0.
         23    2    4    4    0    0  0.12329185225E+03 -0.27555677922E+02  0.73482611073E+03  0.75118082755E+03  0.91340168961E+02 0.  0.
         23    2    4    4    0    0 -0.15698207367E+02  0.12902853674E+03 -0.24992790410E+03  0.29536906096E+03  0.88792611838E+02 0.  0.
          4    1    3    3  502    0 -0.10153738627E+03 -0.10972121761E+03 -0.10585697686E+04  0.10690736838E+04  0.00000000000E+00 0. -1.
         -3    1    3    3    0  502 -0.60562586118E+01  0.82483587890E+01 -0.20920038521E+02  0.23288660391E+02  0.00000000000E+00 0.  1.
         13    1    5    5    0    0  0.12710603967E+03 -0.26685796985E+00  0.56387737018E+03  0.57802569591E+03  0.00000000000E+00 0. -1.
        -13    1    5    5    0    0 -0.38141874226E+01 -0.27288819952E+02  0.17094874055E+03  0.17315513164E+03  0.00000000000E+00 0.  1.
          1    1    6    6  503    0 -0.33798013066E+02  0.13051682599E+03 -0.23832819218E+03  0.27381978515E+03  0.00000000000E+00 0. -1.
         -1    1    6    6    0  503  0.18099805698E+02 -0.14882892510E+01 -0.11599711924E+02  0.21549275810E+02  0.00000000000E+00 0.  1.
<mgrwt>
<rscale>  0 0.20546061E+04</rscale>
<asrwt>0</asrwt>
<pdfrwt beam="1">  1        2 0.21026953E+00 0.20546061E+04</pdfrwt>
<pdfrwt beam="2">  1       -1 0.11879390E+00 0.20546061E+04</pdfrwt>
<totfact> 0.10116193E+01</totfact>
</mgrwt>
</event>
<event>
12    7  0.1661464E-007  0.1525363E+04  0.7818608E-02  0.8867760E-01
         -1   -1    0    0    0  501 -0.00000000000E+00  0.00000000000E+00  0.10812664303E+04  0.10812664303E+04  0.00000000000E+00 0.  1.
          2   -1    0    0  501    0  0.00000000000E+00 -0.00000000000E+00 -0.53796495812E+03  0.53796495812E+03  0.00000000000E+00 0. -1.
         24    2    1    2    0    0 -0.31220544582E+03  0.77627337253E+02 -0.20944334175E+03  0.39216837904E+03  0.80195263097E+02 0.  0.
        254    2    1    2    0    0  0.31220544582E+03 -0.77627337253E+02  0.75274481396E+03  0.12270630094E+04  0.91409005586E+03 0.  0.
         23    2    4    4    0    0  0.22411715118E+02 -0.24818848521E+03 -0.11701287671E+03  0.29007050541E+03  0.91373276321E+02 0.  0.
         23    2    4    4    0    0  0.28979373070E+03  0.17056114796E+03  0.86975769067E+03  0.93699250400E+03  0.91678789936E+02 0.  0.
          4    1    3    3  502    0 -0.27084661829E+03  0.82859608768E+02 -0.20621626888E+03  0.35035518399E+03  0.00000000000E+00 0. -1.
         -1    1    3    3    0  502 -0.41358827537E+02 -0.52322715157E+01 -0.32270728741E+01  0.41813195044E+02  0.00000000000E+00 0.  1.
         13    1    5    5    0    0  0.52025303944E+01 -0.19626859787E+03 -0.48200957847E+02  0.20216765609E+03  0.00000000000E+00 0.  1.
        -13    1    5    5    0    0  0.17209184723E+02 -0.51919887340E+02 -0.68811918860E+02  0.87902849314E+02  0.00000000000E+00 0. -1.
          1    1    6    6  503    0  0.25138496375E+02 -0.10350993888E+02  0.86393772969E+02  0.90570254954E+02  0.00000000000E+00 0. -1.
         -1    1    6    6    0  503  0.26465523433E+03  0.18091214185E+03  0.78336391770E+03  0.84642224905E+03  0.00000000000E+00 0.  1.
<mgrwt>
<rscale>  0 0.15253635E+04</rscale>
<asrwt>0</asrwt>
<pdfrwt beam="1">  1        2 0.82763840E-01 0.15253635E+04</pdfrwt>
<pdfrwt beam="2">  1       -1 0.16634868E+00 0.15253635E+04</pdfrwt>
<totfact> 0.16310543E+01</totfact>
</mgrwt>
</event>
<event>
12    7  0.1661464E-007  0.1534310E+04  0.7818608E-02  0.8861952E-01
         -1   -1    0    0    0  501 -0.00000000000E+00  0.00000000000E+00  0.17525959785E+03  0.17525959785E+03  0.00000000000E+00 0.  1.
          2   -1    0    0  501    0  0.00000000000E+00 -0.00000000000E+00 -0.33580282767E+04  0.33580282767E+04  0.00000000000E+00 0. -1.
         24    2    1    2    0    0 -0.21407070393E+03 -0.10431680431E+03 -0.20612991358E+04  0.20765180162E+04  0.79149746919E+02 0.  0.
        254    2    1    2    0    0  0.21407070393E+03  0.10431680431E+03 -0.11214695431E+04  0.14567698584E+04  0.89876371880E+03 0.  0.
         23    2    4    4    0    0 -0.19106651749E+03  0.15911686839E+03 -0.97828882011E+03  0.10135878427E+04  0.92123327399E+02 0.  0.
         23    2    4    4    0    0  0.40513722143E+03 -0.54800064081E+02 -0.14318072296E+03  0.44318201563E+03  0.93650223406E+02 0.  0.
          2    1    3    3  502    0 -0.18819897303E+03 -0.83013238127E+02 -0.14764521108E+04  0.14907115370E+04  0.00000000000E+00 0. -1.
         -3    1    3    3    0  502 -0.25871730906E+02 -0.21303566183E+02 -0.58484702503E+03  0.58580647921E+03  0.00000000000E+00 0.  1.
         13    1    5    5    0    0 -0.57820059633E+02  0.96155811822E+02 -0.32304255816E+03  0.34197308933E+03  0.00000000000E+00 0.  1.
        -13    1    5    5    0    0 -0.13324645786E+03  0.62961056569E+02 -0.65524626195E+03  0.67161475340E+03  0.00000000000E+00 0. -1.
          2    1    6    6  503    0  0.17446365167E+03  0.34286714134E+01 -0.21069695645E+02  0.17576476784E+03  0.00000000000E+00 0. -1.
         -2    1    6    6    0  503  0.23067356976E+03 -0.58228735494E+02 -0.12211102732E+03  0.26741724779E+03  0.00000000000E+00 0.  1.
<mgrwt>
<rscale>  0 0.15343099E+04</rscale>
<asrwt>0</asrwt>
<pdfrwt beam="1">  1        2 0.51661969E+00 0.15343099E+04</pdfrwt>
<pdfrwt beam="2">  1       -1 0.26963018E-01 0.15343099E+04</pdfrwt>
<totfact> 0.13891571E+01</totfact>
</mgrwt>
</event>
<event>
12    7  0.1661464E-007  0.2884782E+04  0.7818608E-02  0.8277420E-01
         -1   -1    0    0    0  501 -0.00000000000E+00  0.00000000000E+00  0.11504158115E+04  0.11504158115E+04  0.00000000000E+00 0.  1.
          2   -1    0    0  501    0  0.00000000000E+00 -0.00000000000E+00 -0.18084689637E+04  0.18084689637E+04  0.00000000000E+00 0. -1.
         24    2    1    2    0    0 -0.65035723735E+03 -0.89764433140E+03 -0.99830539925E+03  0.14938265488E+04  0.78576114532E+02 0.  0.
        254    2    1    2    0    0  0.65035723735E+03  0.89764433140E+03  0.34025224704E+03  0.14650582264E+04  0.89548541766E+03 0.  0.
         23    2    4    4    0    0  0.57550024207E+03  0.10138267550E+04  0.46411574848E+03  0.12580869837E+04  0.91291909483E+02 0.  0.
         23    2    4    4    0    0  0.74856995282E+02 -0.11618242363E+03 -0.12386350143E+03  0.20697124269E+03  0.91613334242E+02 0.  0.
          4    1    3    3  502    0 -0.60911768308E+03 -0.84453388115E+03 -0.96082955245E+03  0.14168469420E+04  0.00000000000E+00 0. -1.
         -3    1    3    3    0  502 -0.41239554271E+02 -0.53110450252E+02 -0.37475846800E+02  0.76979606752E+02  0.00000000000E+00 0.  1.
         13    1    5    5    0    0  0.27078972698E+03  0.38806166488E+03  0.17832899040E+03  0.50568780963E+03  0.00000000000E+00 0.  1.
        -13    1    5    5    0    0  0.30471051509E+03  0.62576509015E+03  0.28578675807E+03  0.75239917407E+03  0.00000000000E+00 0. -1.
          4    1    6    6  503    0  0.92567368044E+02 -0.89381605405E+02 -0.11743816632E+03  0.17421111308E+03  0.00000000000E+00 0. -1.
         -4    1    6    6    0  503 -0.17710372761E+02 -0.26800818228E+02 -0.64253351109E+01  0.32760129614E+02  0.00000000000E+00 0.  1.
<mgrwt>
<rscale>  0 0.28847816E+04</rscale>
<asrwt>0</asrwt>
<pdfrwt beam="1">  1        2 0.27822600E+00 0.28847816E+04</pdfrwt>
<pdfrwt beam="2">  1       -1 0.17698705E+00 0.28847816E+04</pdfrwt>
<totfact> 0.18366804E+00</totfact>
</mgrwt>
</event>
<event>
12    7  0.1661464E-007  0.2119313E+04  0.7818608E-02  0.8552783E-01
          2   -1    0    0  501    0  0.00000000000E+00  0.00000000000E+00  0.40215965763E+04  0.40215965763E+04  0.00000000000E+00 0. -1.
         -1   -1    0    0    0  501 -0.00000000000E+00 -0.00000000000E+00 -0.27921049988E+03  0.27921049988E+03  0.00000000000E+00 0.  1.
         24    2    1    2    0    0 -0.44758343647E+02  0.48008525897E+03  0.84834121608E+02  0.49665833314E+03  0.83591306247E+02 0.  0.
        254    2    1    2    0    0  0.44758343647E+02 -0.48008525897E+03  0.36575519548E+04  0.38041487431E+04  0.92810354584E+03 0.  0.
         23    2    4    4    0    0  0.14755685224E+02 -0.73791169844E+03  0.22482535666E+04  0.23680779496E+04  0.91747864830E+02 0.  0.
         23    2    4    4    0    0  0.30002658423E+02  0.25782643947E+03  0.14092983882E+04  0.14360707935E+04  0.93822941483E+02 0.  0.
          4    1    3    3  502    0  0.94691426595E+01  0.75157245154E+02 -0.12257716264E+02  0.76736743284E+02  0.00000000000E+00 0. -1.
         -3    1    3    3    0  502 -0.54227486306E+02  0.40492801381E+03  0.97091837872E+02  0.41992158985E+03  0.00000000000E+00 0.  1.
         13    1    5    5    0    0  0.23198297303E+02 -0.71694922429E+02  0.17934160303E+03  0.19452951827E+03  0.00000000000E+00 0.  1.
        -13    1    5    5    0    0 -0.84426120792E+01 -0.66621677601E+03  0.20689119636E+04  0.21735484313E+04  0.00000000000E+00 0. -1.
          1    1    6    6  503    0  0.21396205708E+02  0.14047877532E+03  0.52164355571E+03  0.54065153578E+03  0.00000000000E+00 0. -1.
         -1    1    6    6    0  503  0.86064527142E+01  0.11734766415E+03  0.88765483252E+03  0.89541925767E+03  0.00000000000E+00 0.  1.
<mgrwt>
<rscale>  0 0.21193131E+04</rscale>
<asrwt>0</asrwt>
<pdfrwt beam="1">  1        2 0.61870712E+00 0.21193131E+04</pdfrwt>
<pdfrwt beam="2">  1       -1 0.42955464E-01 0.21193131E+04</pdfrwt>
<totfact> 0.18533439E+00</totfact>
</mgrwt>
</event>
<event>
12    7  0.1661464E-007  0.1869133E+04  0.7818608E-02  0.8670375E-01
         -1   -1    0    0    0  501 -0.00000000000E+00  0.00000000000E+00  0.64463697598E+03  0.64463697598E+03  0.00000000000E+00 0.  1.
          2   -1    0    0  501    0  0.00000000000E+00 -0.00000000000E+00 -0.13548929321E+04  0.13548929321E+04  0.00000000000E+00 0. -1.
         24    2    1    2    0    0  0.55965535959E+03  0.76599891981E+02  0.19755121038E+03  0.60394805468E+03  0.81517526078E+02 0.  0.
        254    2    1    2    0    0 -0.55965535959E+03 -0.76599891981E+02 -0.90780716646E+03  0.13955818534E+04  0.89691314685E+03 0.  0.
         23    2    4    4    0    0 -0.10391026909E+03 -0.33752431676E+03 -0.75909406531E+03  0.84251442669E+03  0.94269564295E+02 0.  0.
         23    2    4    4    0    0 -0.45574509050E+03  0.26092442478E+03 -0.14871310115E+03  0.55306742668E+03  0.89346790848E+02 0.  0.
          2    1    3    3  502    0  0.99372961694E+02  0.32313706204E+02  0.10070439525E+02  0.10497892587E+03  0.00000000000E+00 0. -1.
         -1    1    3    3    0  502  0.46028239789E+03  0.44286185776E+02  0.18748077086E+03  0.49896912881E+03  0.00000000000E+00 0.  1.
         13    1    5    5    0    0 -0.54194395679E+02 -0.22917562714E+03 -0.59315561412E+03  0.63819439292E+03  0.00000000000E+00 0. -1.
        -13    1    5    5    0    0 -0.49715873406E+02 -0.10834868963E+03 -0.16593845119E+03  0.20432003376E+03  0.00000000000E+00 0.  1.
          1    1    6    6  503    0 -0.36721490550E+03  0.21096658085E+03 -0.81692466060E+02  0.43130887316E+03  0.00000000000E+00 0. -1.
         -1    1    6    6    0  503 -0.88530185004E+02  0.49957843930E+02 -0.67020635089E+02  0.12175855352E+03  0.00000000000E+00 0.  1.
<mgrwt>
<rscale>  0 0.18691325E+04</rscale>
<asrwt>0</asrwt>
<pdfrwt beam="1">  1        2 0.20844506E+00 0.18691325E+04</pdfrwt>
<pdfrwt beam="2">  1       -1 0.99174920E-01 0.18691325E+04</pdfrwt>
<totfact> 0.15968740E+01</totfact>
</mgrwt>
</event>
<event>
12    7  0.1661464E-007  0.1434736E+04  0.7818608E-02  0.8929052E-01
         -1   -1    0    0    0  501 -0.00000000000E+00  0.00000000000E+00  0.73085354730E+03  0.73085354730E+03  0.00000000000E+00 0.  1.
          2   -1    0    0  501    0  0.00000000000E+00 -0.00000000000E+00 -0.70413149547E+03  0.70413149547E+03  0.00000000000E+00 0. -1.
         24    2    1    2    0    0  0.12406028384E+03 -0.31067432784E+03 -0.26366425751E+03  0.43365836352E+03  0.81432447810E+02 0.  0.
        254    2    1    2    0    0 -0.12406028384E+03  0.31067432784E+03  0.29038630934E+03  0.10013266793E+04  0.89800969812E+03 0.  0.
         23    2    4    4    0    0 -0.14459451683E+03  0.30081007969E+03 -0.26612874955E+03  0.43760486921E+03  0.96328769764E+02 0.  0.
         23    2    4    4    0    0  0.20534232987E+02  0.98642481558E+01  0.55651505889E+03  0.56372181004E+03  0.86915534994E+02 0.  0.
          4    1    3    3  502    0  0.12618576256E+03 -0.30150268385E+03 -0.23249768504E+03  0.40110084591E+03  0.00000000000E+00 0. -1.
         -3    1    3    3    0  502 -0.21254787245E+01 -0.91716439898E+01 -0.31166572465E+02  0.32557517603E+02  0.00000000000E+00 0.  1.
         13    1    5    5    0    0 -0.15533509681E+03  0.28725497462E+03 -0.26448174703E+03  0.42023208737E+03  0.00000000000E+00 0.  1.
        -13    1    5    5    0    0  0.10740579980E+02  0.13555105067E+02 -0.16470025229E+01  0.17372781844E+02  0.00000000000E+00 0. -1.
          1    1    6    6  503    0  0.37655525959E+01 -0.93838109361E+01  0.44168922217E+01  0.11033776821E+02  0.00000000000E+00 0. -1.
         -1    1    6    6    0  503  0.16768680391E+02  0.19248059092E+02  0.55209816667E+03  0.55268803322E+03  0.00000000000E+00 0.  1.
<mgrwt>
<rscale>  0 0.14347362E+04</rscale>
<asrwt>0</asrwt>
<pdfrwt beam="1">  1        2 0.10832792E+00 0.14347362E+04</pdfrwt>
<pdfrwt beam="2">  1       -1 0.11243901E+00 0.14347362E+04</pdfrwt>
<totfact> 0.32681663E+01</totfact>
</mgrwt>
</event>
<event>
12    7  0.1661464E-007  0.2270554E+04  0.7818608E-02  0.8489623E-01
         -1   -1    0    0    0  501 -0.00000000000E+00  0.00000000000E+00  0.73459968228E+03  0.73459968228E+03  0.00000000000E+00 0.  1.
          2   -1    0    0  501    0  0.00000000000E+00 -0.00000000000E+00 -0.17544977237E+04  0.17544977237E+04  0.00000000000E+00 0. -1.
         24    2    1    2    0    0 -0.54969808341E+02 -0.86541073489E+03 -0.70728403597E+01  0.87089416238E+03  0.80306893282E+02 0.  0.
        254    2    1    2    0    0  0.54969808341E+02  0.86541073489E+03 -0.10128252010E+04  0.16182032436E+04  0.91695661281E+03 0.  0.
         23    2    4    4    0    0  0.56667831487E+02  0.10869533675E+03  0.15859644428E+03  0.22085486644E+03  0.92726051012E+02 0.  0.
         23    2    4    4    0    0 -0.16980231458E+01  0.75671539814E+03 -0.11714216453E+04  0.13973483771E+04  0.87935993196E+02 0.  0.
          4    1    3    3  502    0 -0.99795189817E+01 -0.19286049998E+03  0.31807384042E+02  0.19572039477E+03  0.00000000000E+00 0. -1.
         -3    1    3    3    0  502 -0.44990289360E+02 -0.67255023491E+03 -0.38880224401E+02  0.67517376761E+03  0.00000000000E+00 0.  1.
         13    1    5    5    0    0 -0.35978842152E+01 -0.15087896146E+02  0.10997199947E+02  0.19013884075E+02  0.00000000000E+00 0.  1.
        -13    1    5    5    0    0  0.60265715702E+02  0.12378323290E+03  0.14759924433E+03  0.20184098237E+03  0.00000000000E+00 0. -1.
          4    1    6    6  503    0 -0.23402832343E+02  0.64711954411E+02 -0.90120470119E+02  0.11338883869E+03  0.00000000000E+00 0. -1.
         -4    1    6    6    0  503  0.21704809197E+02  0.69200344372E+03 -0.10813011752E+04  0.12839595384E+04  0.00000000000E+00 0.  1.
<mgrwt>
<rscale>  0 0.22705537E+04</rscale>
<asrwt>0</asrwt>
<pdfrwt beam="1">  1        2 0.26992272E+00 0.22705537E+04</pdfrwt>
<pdfrwt beam="2">  1       -1 0.11301534E+00 0.22705537E+04</pdfrwt>
<totfact> 0.67722833E+00</totfact>
</mgrwt>
</event>
<event>
12    7  0.1661464E-007  0.1466559E+04  0.7818608E-02  0.8907000E-01
          2   -1    0    0  501    0  0.00000000000E+00  0.00000000000E+00  0.10990002951E+04  0.10990002951E+04  0.00000000000E+00 0. -1.
         -1   -1    0    0    0  501 -0.00000000000E+00 -0.00000000000E+00 -0.48926171733E+03  0.48926171733E+03  0.00000000000E+00 0.  1.
         24    2    1    2    0    0 -0.26624455659E+03  0.13337082327E+03 -0.17666909818E+03  0.35625563433E+03  0.83858012879E+02 0.  0.
        254    2    1    2    0    0  0.26624455659E+03 -0.13337082327E+03  0.78640767597E+03  0.12320063781E+04  0.90040476592E+03 0.  0.
         23    2    4    4    0    0 -0.26541896418E+03 -0.18894844218E+03  0.90744594629E+02  0.35044698952E+03  0.91813782516E+02 0.  0.
         23    2    4    4    0    0  0.53166352077E+03  0.55577618902E+02  0.69566308134E+03  0.88155938860E+03  0.86283612933E+02 0.  0.
          4    1    3    3  502    0 -0.10514489450E+03  0.17598719927E+02 -0.34000746638E+02  0.11189823303E+03  0.00000000000E+00 0. -1.
         -3    1    3    3    0  502 -0.16109966209E+03  0.11577210335E+03 -0.14266835154E+03  0.24435740130E+03  0.00000000000E+00 0.  1.
         13    1    5    5    0    0 -0.24137633942E+03 -0.19730277121E+03  0.91746983444E+02  0.32497450628E+03  0.00000000000E+00 0.  1.
        -13    1    5    5    0    0 -0.24042624760E+02  0.83543290365E+01 -0.10023888148E+01  0.25472483238E+02  0.00000000000E+00 0. -1.
          4    1    6    6  503    0  0.11662065977E+02  0.15327217715E+02  0.33707813921E+02  0.38821953906E+02  0.00000000000E+00 0. -1.
         -4    1    6    6    0  503  0.52000145479E+03  0.40250401187E+02  0.66195526742E+03  0.84273743470E+03  0.00000000000E+00 0.  1.
<mgrwt>
<rscale>  0 0.14665589E+04</rscale>
<asrwt>0</asrwt>
<pdfrwt beam="1">  1        2 0.16907697E+00 0.14665589E+04</pdfrwt>
<pdfrwt beam="2">  1       -1 0.75271034E-01 0.14665589E+04</pdfrwt>
<totfact> 0.42774842E+01</totfact>
</mgrwt>
</event>
<event>
12    7  0.1661464E-007  0.1700091E+04  0.7818608E-02  0.8761313E-01
          2   -1    0    0  501    0  0.00000000000E+00  0.00000000000E+00  0.26999717341E+04  0.26999717341E+04  0.00000000000E+00 0. -1.
         -1   -1    0    0    0  501 -0.00000000000E+00 -0.00000000000E+00 -0.26762389297E+03  0.26762389297E+03  0.00000000000E+00 0.  1.
         24    2    1    2    0    0  0.85739181544E+02  0.53046464306E+03  0.40850068368E+03  0.67979438769E+03  0.80645248977E+02 0.  0.
        254    2    1    2    0    0 -0.85739181544E+02 -0.53046464306E+03  0.20238471574E+04  0.22878012393E+04  0.92159277848E+03 0.  0.
         23    2    4    4    0    0  0.36440581025E+03 -0.41445027363E+03  0.80645554879E+03  0.98147546726E+03  0.91448984724E+02 0.  0.
         23    2    4    4    0    0 -0.45014499180E+03 -0.11601436943E+03  0.12173916086E+04  0.13063257721E+04  0.91404849314E+02 0.  0.
          4    1    3    3  502    0  0.19187877766E+02  0.28843508608E+03  0.25567830896E+03  0.38592016170E+03  0.00000000000E+00 0. -1.
         -3    1    3    3    0  502  0.66551303778E+02  0.24202955698E+03  0.15282237472E+03  0.29387422599E+03  0.00000000000E+00 0.  1.
         13    1    5    5    0    0  0.87853040121E+02 -0.14795482357E+03  0.20232106934E+03  0.26559857224E+03  0.00000000000E+00 0.  1.
        -13    1    5    5    0    0  0.27655277013E+03 -0.26649545006E+03  0.60413447944E+03  0.71587689502E+03  0.00000000000E+00 0. -1.
          2    1    6    6  503    0 -0.44299191844E+03 -0.10866487686E+03  0.11338372507E+04  0.12221443476E+04  0.00000000000E+00 0. -1.
         -2    1    6    6    0  503 -0.71530733539E+01 -0.73494925697E+01  0.83554357971E+02  0.84181424527E+02  0.00000000000E+00 0.  1.
<mgrwt>
<rscale>  0 0.17000905E+04</rscale>
<asrwt>0</asrwt>
<pdfrwt beam="1">  1        2 0.41538025E+00 0.17000905E+04</pdfrwt>
<pdfrwt beam="2">  1       -1 0.41172908E-01 0.17000905E+04</pdfrwt>
<totfact> 0.16663893E+01</totfact>
</mgrwt>
</event>
<event>
12    7  0.1661464E-007  0.2272818E+04  0.7818608E-02  0.8488716E-01
         -1   -1    0    0    0  501 -0.00000000000E+00  0.00000000000E+00  0.12411367699E+04  0.12411367699E+04  0.00000000000E+00 0.  1.
          2   -1    0    0  501    0  0.00000000000E+00 -0.00000000000E+00 -0.10405179215E+04  0.10405179215E+04  0.00000000000E+00 0. -1.
         24    2    1    2    0    0 -0.20151928921E+02  0.57635915834E+03  0.85229215793E+03  0.10321578190E+04  0.79698564652E+02 0.  0.
        254    2    1    2    0    0  0.20151928921E+02 -0.57635915834E+03 -0.65167330956E+03  0.12494968725E+04  0.89664282312E+03 0.  0.
         23    2    4    4    0    0 -0.23339018487E+03 -0.35888882135E+03 -0.76880212143E+03  0.88408525795E+03  0.85310473758E+02 0.  0.
         23    2    4    4    0    0  0.25354211379E+03 -0.21747033699E+03  0.11712881186E+03  0.36541161452E+03  0.90716803949E+02 0.  0.
          2    1    3    3  502    0 -0.62305749412E+01  0.14452847185E+01  0.49250779252E+01  0.80725029938E+01  0.00000000000E+00 0. -1.
         -1    1    3    3    0  502 -0.13921353979E+02  0.57491387362E+03  0.84736708000E+03  0.10240853160E+04  0.00000000000E+00 0.  1.
         13    1    5    5    0    0 -0.22849147608E+03 -0.31393273553E+03 -0.65232886892E+03  0.75914100819E+03  0.00000000000E+00 0. -1.
        -13    1    5    5    0    0 -0.48987087805E+01 -0.44956085812E+02 -0.11647325250E+03  0.12494424976E+03  0.00000000000E+00 0.  1.
          3    1    6    6  503    0  0.21111831747E+03 -0.19441126851E+03  0.13055290437E+03  0.31529469728E+03  0.00000000000E+00 0. -1.
         -3    1    6    6    0  503  0.42423796313E+02 -0.23059068486E+02 -0.13424092509E+02  0.50116917231E+02  0.00000000000E+00 0.  1.
<mgrwt>
<rscale>  0 0.22728177E+04</rscale>
<asrwt>0</asrwt>
<pdfrwt beam="1">  1        2 0.16007968E+00 0.22728177E+04</pdfrwt>
<pdfrwt beam="2">  1       -1 0.19094412E+00 0.22728177E+04</pdfrwt>
<totfact> 0.42791168E+00</totfact>
</mgrwt>
</event>
<event>
12    7  0.1661464E-007  0.1282462E+04  0.7818608E-02  0.9043590E-01
          2   -1    0    0  501    0  0.00000000000E+00  0.00000000000E+00  0.20061933467E+04  0.20061933467E+04  0.00000000000E+00 0. -1.
         -1   -1    0    0    0  501 -0.00000000000E+00 -0.00000000000E+00 -0.20495378434E+03  0.20495378434E+03  0.00000000000E+00 0.  1.
         24    2    1    2    0    0  0.65688192479E+02 -0.71311500843E+02 -0.66983874320E+02  0.14139768519E+03  0.78142160033E+02 0.  0.
        254    2    1    2    0    0 -0.65688192479E+02  0.71311500843E+02  0.18682234367E+04  0.20697494458E+04  0.88555275981E+03 0.  0.
         23    2    4    4    0    0 -0.29456051122E+03 -0.18257744075E+03  0.15592913994E+04  0.15999359624E+04  0.91131766506E+02 0.  0.
         23    2    4    4    0    0  0.22887231874E+03  0.25388894160E+03  0.30893203723E+03  0.46981348340E+03  0.91888914496E+02 0.  0.
          2    1    3    3  502    0 -0.99182663469E+00 -0.10874368089E+02  0.15741968976E+02  0.19158423439E+02  0.00000000000E+00 0. -1.
         -1    1    3    3    0  502  0.66680019113E+02 -0.60437132754E+02 -0.82725843296E+02  0.12223926175E+03  0.00000000000E+00 0.  1.
         13    1    5    5    0    0 -0.25692567721E+03 -0.19053928296E+03  0.13926885441E+04  0.14289497551E+04  0.00000000000E+00 0. -1.
        -13    1    5    5    0    0 -0.37634834013E+02  0.79618422071E+01  0.16660285538E+03  0.17098620729E+03  0.00000000000E+00 0.  1.
          2    1    6    6  503    0  0.20494603160E+03  0.25629650340E+03  0.27459796019E+03  0.42789579720E+03  0.00000000000E+00 0. -1.
         -2    1    6    6    0  503  0.23926287141E+02 -0.24075618009E+01  0.34334077034E+02  0.41917686196E+02  0.00000000000E+00 0.  1.
<mgrwt>
<rscale>  0 0.12824616E+04</rscale>
<asrwt>0</asrwt>
<pdfrwt beam="1">  1        2 0.30864512E+00 0.12824616E+04</pdfrwt>
<pdfrwt beam="2">  1       -1 0.31531353E-01 0.12824616E+04</pdfrwt>
<totfact> 0.69320742E+01</totfact>
</mgrwt>
</event>
<event>
12    7  0.1661464E-007  0.2042061E+04  0.7818608E-02  0.8587204E-01
         -1   -1    0    0    0  501 -0.00000000000E+00  0.00000000000E+00  0.15628075260E+04  0.15628075260E+04  0.00000000000E+00 0.  1.
          2   -1    0    0  501    0  0.00000000000E+00 -0.00000000000E+00 -0.66707082380E+03  0.66707082380E+03  0.00000000000E+00 0. -1.
         24    2    1    2    0    0 -0.55390072843E+03 -0.24985213202E+03 -0.24374457628E+03  0.65893064971E+03  0.74471993625E+02 0.  0.
        254    2    1    2    0    0  0.55390072843E+03  0.24985213202E+03  0.11394812784E+04  0.15709477001E+04  0.89455407191E+03 0.  0.
         23    2    4    4    0    0 -0.18644647392E+02 -0.18411095472E+03  0.68545469597E+03  0.71600229231E+03  0.92556338747E+02 0.  0.
         23    2    4    4    0    0  0.57254537582E+03  0.43396308674E+03  0.45402658247E+03  0.85494540775E+03  0.93055599561E+02 0.  0.
          2    1    3    3  502    0 -0.49201830531E+03 -0.21917258809E+03 -0.18909390038E+03  0.57085474448E+03  0.00000000000E+00 0. -1.
         -1    1    3    3    0  502 -0.61882423121E+02 -0.30679543924E+02 -0.54650675898E+02  0.88075905234E+02  0.00000000000E+00 0.  1.
         13    1    5    5    0    0 -0.28461979665E+02 -0.10116263918E+03  0.52165357668E+03  0.53213383459E+03  0.00000000000E+00 0. -1.
        -13    1    5    5    0    0  0.98173322731E+01 -0.82948315539E+02  0.16380111929E+03  0.18386845772E+03  0.00000000000E+00 0.  1.
          1    1    6    6  503    0  0.48234867913E+03  0.39897877652E+03  0.37244350576E+03  0.72839445176E+03  0.00000000000E+00 0. -1.
         -1    1    6    6    0  503  0.90196696695E+02  0.34984310220E+02  0.81583076708E+02  0.12655095599E+03  0.00000000000E+00 0.  1.
<mgrwt>
<rscale>  0 0.20420610E+04</rscale>
<asrwt>0</asrwt>
<pdfrwt beam="1">  1        2 0.10262628E+00 0.20420610E+04</pdfrwt>
<pdfrwt beam="2">  1       -1 0.24043193E+00 0.20420610E+04</pdfrwt>
<totfact> 0.37063100E+00</totfact>
</mgrwt>
</event>
<event>
12    7  0.1661464E-007  0.1953819E+04  0.7818608E-02  0.8628521E-01
         -1   -1    0    0    0  501 -0.00000000000E+00  0.00000000000E+00  0.45918017524E+03  0.45918017524E+03  0.00000000000E+00 0.  1.
          2   -1    0    0  501    0  0.00000000000E+00 -0.00000000000E+00 -0.20783827878E+04  0.20783827878E+04  0.00000000000E+00 0. -1.
         24    2    1    2    0    0 -0.33758431264E+03 -0.91179258116E+02  0.24788960208E+03  0.43612680402E+03  0.80501609398E+02 0.  0.
        254    2    1    2    0    0  0.33758431264E+03  0.91179258116E+02 -0.18670922147E+04  0.21014361591E+04  0.89873453657E+03 0.  0.
         23    2    4    4    0    0  0.13486491948E+03  0.24170067777E+03 -0.91671924184E+02  0.30574827420E+03  0.92035326683E+02 0.  0.
         23    2    4    4    0    0  0.20271939317E+03 -0.15052141965E+03 -0.17754202905E+04  0.17956878849E+04  0.92875840526E+02 0.  0.
          2    1    3    3  502    0 -0.27416120896E+02  0.14447160698E+02  0.25381056255E+02  0.40056986330E+02  0.00000000000E+00 0. -1.
         -1    1    3    3    0  502 -0.31016819174E+03 -0.10562641881E+03  0.22250854582E+03  0.39606981769E+03  0.00000000000E+00 0.  1.
         13    1    5    5    0    0  0.14708252264E+03  0.22372361328E+03 -0.74122884512E+02  0.27781239283E+03  0.00000000000E+00 0.  1.
        -13    1    5    5    0    0 -0.12217603161E+02  0.17977064491E+02 -0.17549039672E+02  0.27935881373E+02  0.00000000000E+00 0. -1.
          1    1    6    6  503    0  0.94543434200E+02 -0.51479563230E+02 -0.10557655616E+04  0.10612396183E+04  0.00000000000E+00 0.  1.
         -1    1    6    6    0  503  0.10817595897E+03 -0.99041856421E+02 -0.71965472888E+03  0.73444826654E+03  0.00000000000E+00 0. -1.
<mgrwt>
<rscale>  0 0.19538190E+04</rscale>
<asrwt>0</asrwt>
<pdfrwt beam="1">  1        2 0.31975119E+00 0.19538190E+04</pdfrwt>
<pdfrwt beam="2">  1       -1 0.70643106E-01 0.19538190E+04</pdfrwt>
<totfact> 0.12987936E+01</totfact>
</mgrwt>
</event>
<event>
12    7  0.1661464E-007  0.1687623E+04  0.7818608E-02  0.8768455E-01
          2   -1    0    0  501    0  0.00000000000E+00  0.00000000000E+00  0.10782608893E+04  0.10782608893E+04  0.00000000000E+00 0. -1.
         -1   -1    0    0    0  501 -0.00000000000E+00 -0.00000000000E+00 -0.66033922274E+03  0.66033922274E+03  0.00000000000E+00 0.  1.
         24    2    1    2    0    0  0.48965251652E+03  0.30952724938E+03  0.30845450240E+03  0.66114804977E+03  0.80036608028E+02 0.  0.
        254    2    1    2    0    0 -0.48965251652E+03 -0.30952724938E+03  0.10946716421E+03  0.10774520623E+04  0.90186095464E+03 0.  0.
         23    2    4    4    0    0  0.23348156927E+03  0.56840308484E+02  0.16041101890E+02  0.25689503131E+03  0.89405124619E+02 0.  0.
         23    2    4    4    0    0 -0.72313408579E+03 -0.36636755786E+03  0.93426062320E+02  0.82055703100E+03  0.86239889410E+02 0.  0.
          4    1    3    3  502    0  0.23158889979E+03  0.12887388242E+03  0.18300532352E+03  0.32207583658E+03  0.00000000000E+00 0. -1.
         -3    1    3    3    0  502  0.25806361673E+03  0.18065336696E+03  0.12544917888E+03  0.33907221319E+03  0.00000000000E+00 0.  1.
         13    1    5    5    0    0  0.81271253033E+01 -0.16777172116E+02  0.60922025319E+01  0.19612205424E+02  0.00000000000E+00 0.  1.
        -13    1    5    5    0    0  0.22535444396E+03  0.73617480600E+02  0.99488993581E+01  0.23728282589E+03  0.00000000000E+00 0. -1.
          3    1    6    6  503    0 -0.39806022133E+03 -0.24857840173E+03  0.61930775038E+02  0.47336939329E+03  0.00000000000E+00 0. -1.
         -3    1    6    6    0  503 -0.32507386446E+03 -0.11778915613E+03  0.31495287283E+02  0.34718763771E+03  0.00000000000E+00 0.  1.
<mgrwt>
<rscale>  0 0.16876231E+04</rscale>
<asrwt>0</asrwt>
<pdfrwt beam="1">  1        2 0.16588629E+00 0.16876231E+04</pdfrwt>
<pdfrwt beam="2">  1       -1 0.10159065E+00 0.16876231E+04</pdfrwt>
<totfact> 0.22445260E+01</totfact>
</mgrwt>
</event>
<event>
12    7  0.1661464E-007  0.1798674E+04  0.7818608E-02  0.8707005E-01
          2   -1    0    0  501    0  0.00000000000E+00  0.00000000000E+00  0.67068322625E+03  0.67068322625E+03  0.00000000000E+00 0. -1.
         -1   -1    0    0    0  501 -0.00000000000E+00 -0.00000000000E+00 -0.12059443561E+04  0.12059443561E+04  0.00000000000E+00 0.  1.
         24    2    1    2    0    0  0.40928336474E+03  0.18661651100E+03  0.32001233247E+03  0.55801802156E+03  0.81471618546E+02 0.  0.
        254    2    1    2    0    0 -0.40928336474E+03 -0.18661651100E+03 -0.85527346233E+03  0.13186095608E+04  0.89716212783E+03 0.  0.
         23    2    4    4    0    0 -0.35862385695E+03 -0.10982336050E+03 -0.10304029453E+04  0.11004200354E+04  0.92313505323E+02 0.  0.
         23    2    4    4    0    0 -0.50659507786E+02 -0.76793150505E+02  0.17512948296E+03  0.21818952543E+03  0.92047593742E+02 0.  0.
          2    1    3    3  502    0  0.30708172722E+03  0.17293107955E+03  0.26650733314E+03  0.44184896071E+03  0.00000000000E+00 0. -1.
         -1    1    3    3    0  502  0.10220163752E+03  0.13685431449E+02  0.53504999330E+02  0.11616906085E+03  0.00000000000E+00 0.  1.
         13    1    5    5    0    0 -0.10347704329E+03 -0.71525123791E+02 -0.39823125148E+03  0.41762599473E+03  0.00000000000E+00 0. -1.
        -13    1    5    5    0    0 -0.25514681366E+03 -0.38298236706E+02 -0.63217169381E+03  0.68279404062E+03  0.00000000000E+00 0.  1.
          3    1    6    6  503    0 -0.51743971706E+02 -0.17520255904E+02  0.32103724534E+02  0.63364399341E+02  0.00000000000E+00 0. -1.
         -3    1    6    6    0  503  0.10844639209E+01 -0.59272894601E+02  0.14302575843E+03  0.15482512609E+03  0.00000000000E+00 0.  1.
<mgrwt>
<rscale>  0 0.17986736E+04</rscale>
<asrwt>0</asrwt>
<pdfrwt beam="1">  1        2 0.10318204E+00 0.17986736E+04</pdfrwt>
<pdfrwt beam="2">  1       -1 0.18552990E+00 0.17986736E+04</pdfrwt>
<totfact> 0.88583313E+00</totfact>
</mgrwt>
</event>
<event>
12    7  0.1661464E-007  0.1167699E+04  0.7818608E-02  0.9141609E-01
          2   -1    0    0  501    0  0.00000000000E+00  0.00000000000E+00  0.63654456475E+03  0.63654456475E+03  0.00000000000E+00 0. -1.
         -1   -1    0    0    0  501 -0.00000000000E+00 -0.00000000000E+00 -0.53551654705E+03  0.53551654705E+03  0.00000000000E+00 0.  1.
         24    2    1    2    0    0  0.23955618436E+02  0.27516689889E+02 -0.20226145371E+03  0.21791526462E+03  0.72431533318E+02 0.  0.
        254    2    1    2    0    0 -0.23955618436E+02 -0.27516689889E+02  0.30328947141E+03  0.95414584718E+03  0.90392408660E+03 0.  0.
         23    2    4    4    0    0  0.18926451932E+03  0.21680390334E+03 -0.18988590471E+03  0.35694681321E+03  0.92354641889E+02 0.  0.
         23    2    4    4    0    0 -0.21322013776E+03 -0.24432059323E+03  0.49317537612E+03  0.59719903396E+03  0.90935994741E+02 0.  0.
          4    1    3    3  502    0 -0.41410069686E+01  0.16320233946E+02 -0.39288067563E+01  0.17289693383E+02  0.00000000000E+00 0. -1.
         -3    1    3    3    0  502  0.28096625404E+02  0.11196455943E+02 -0.19833264696E+03  0.20062557123E+03  0.00000000000E+00 0.  1.
         13    1    5    5    0    0  0.10148938669E+03  0.17972008253E+03 -0.11963331887E+03  0.23856138551E+03  0.00000000000E+00 0.  1.
        -13    1    5    5    0    0  0.87775132635E+02  0.37083820817E+02 -0.70252585841E+02  0.11838542770E+03  0.00000000000E+00 0. -1.
          3    1    6    6  503    0 -0.83882361842E+02 -0.35413092978E+02  0.12980638962E+03  0.15855609912E+03  0.00000000000E+00 0. -1.
         -3    1    6    6    0  503 -0.12933777591E+03 -0.20890750026E+03  0.36336898649E+03  0.43864293484E+03  0.00000000000E+00 0.  1.
<mgrwt>
<rscale>  0 0.11676988E+04</rscale>
<asrwt>0</asrwt>
<pdfrwt beam="1">  1        2 0.97929934E-01 0.11676988E+04</pdfrwt>
<pdfrwt beam="2">  1       -1 0.82387160E-01 0.11676988E+04</pdfrwt>
<totfact> 0.76389714E+01</totfact>
</mgrwt>
</event>
<event>
12    7  0.1661464E-007  0.1486149E+04  0.7818608E-02  0.8893716E-01
         -1   -1    0    0    0  501 -0.00000000000E+00  0.00000000000E+00  0.26478046888E+03  0.26478046888E+03  0.00000000000E+00 0.  1.
          2   -1    0    0  501    0  0.00000000000E+00 -0.00000000000E+00 -0.20853491131E+04  0.20853491131E+04  0.00000000000E+00 0. -1.
         24    2    1    2    0    0  0.43717193656E+02 -0.36465568341E+03 -0.12696836860E+03  0.39687238898E+03  0.80633529298E+02 0.  0.
        254    2    1    2    0    0 -0.43717193656E+02  0.36465568341E+03 -0.16936002756E+04  0.19532571930E+04  0.90113639807E+03 0.  0.
         23    2    4    4    0    0  0.28396890934E+03  0.51232216806E+03 -0.89826213632E+03  0.10763289281E+04  0.92177820801E+02 0.  0.
         23    2    4    4    0    0 -0.32768610300E+03 -0.14766648465E+03 -0.79533813929E+03  0.87692826484E+03  0.85187165017E+02 0.  0.
          4    1    3    3  502    0 -0.11096051573E+01 -0.11684744750E+03 -0.77535192925E+02  0.14023645515E+03  0.00000000000E+00 0. -1.
         -3    1    3    3    0  502  0.44826798814E+02 -0.24780823591E+03 -0.49433175670E+02  0.25663593383E+03  0.00000000000E+00 0.  1.
         13    1    5    5    0    0  0.21462695308E+03  0.30535360548E+03 -0.52985946824E+03  0.64811774351E+03  0.00000000000E+00 0.  1.
        -13    1    5    5    0    0  0.69341956259E+02  0.20696856258E+03 -0.36840266808E+03  0.42821118463E+03  0.00000000000E+00 0. -1.
          2    1    6    6  503    0 -0.26665903960E+03 -0.13267946237E+03 -0.57175293922E+03  0.64468000329E+03  0.00000000000E+00 0.  1.
         -2    1    6    6    0  503 -0.61027063395E+02 -0.14987022283E+02 -0.22358520007E+03  0.23224826155E+03  0.00000000000E+00 0. -1.
<mgrwt>
<rscale>  0 0.14861490E+04</rscale>
<asrwt>0</asrwt>
<pdfrwt beam="1">  1        2 0.32082295E+00 0.14861490E+04</pdfrwt>
<pdfrwt beam="2">  1       -1 0.40735455E-01 0.14861490E+04</pdfrwt>
<totfact> 0.38883313E+01</totfact>
</mgrwt>
</event>
<event>
12    7  0.1661464E-007  0.3341019E+04  0.7818608E-02  0.8152536E-01
         -1   -1    0    0    0  501 -0.00000000000E+00  0.00000000000E+00  0.11814093860E+04  0.11814093860E+04  0.00000000000E+00 0.  1.
          2   -1    0    0  501    0  0.00000000000E+00 -0.00000000000E+00 -0.23620953036E+04  0.23620953036E+04  0.00000000000E+00 0. -1.
         24    2    1    2    0    0  0.75698485224E+03 -0.13002870099E+04 -0.16624682674E+03  0.15152512017E+04  0.67644824327E+02 0.  0.
        254    2    1    2    0    0 -0.75698485224E+03  0.13002870099E+04 -0.10144390908E+04  0.20282534878E+04  0.90606465962E+03 0.  0.
         23    2    4    4    0    0 -0.16372743484E+03  0.93182371424E+03 -0.23770164949E+03  0.97986324358E+03  0.92346059054E+02 0.  0.
         23    2    4    4    0    0 -0.59325741740E+03  0.36846329562E+03 -0.77673744136E+03  0.10483902443E+04  0.89897096428E+02 0.  0.
          4    1    3    3  502    0  0.18781056527E+03 -0.36253285402E+03 -0.22616328472E+02  0.40891854566E+03  0.00000000000E+00 0. -1.
         -3    1    3    3    0  502  0.56917428696E+03 -0.93775415584E+03 -0.14363049827E+03  0.11063326560E+04  0.00000000000E+00 0.  1.
         13    1    5    5    0    0 -0.14641582501E+03  0.60295803799E+03 -0.17427017731E+03  0.64448901006E+03  0.00000000000E+00 0.  1.
        -13    1    5    5    0    0 -0.17311609835E+02  0.32886567625E+03 -0.63431472178E+02  0.33537423353E+03  0.00000000000E+00 0. -1.
          4    1    6    6  503    0 -0.40202367806E+03  0.29665861650E+03 -0.56344005115E+03  0.75305648108E+03  0.00000000000E+00 0. -1.
         -4    1    6    6    0  503 -0.19123373934E+03  0.71804679123E+02 -0.21329739021E+03  0.29533376318E+03  0.00000000000E+00 0.  1.
<mgrwt>
<rscale>  0 0.33410187E+04</rscale>
<asrwt>0</asrwt>
<pdfrwt beam="1">  1        2 0.36339927E+00 0.33410187E+04</pdfrwt>
<pdfrwt beam="2">  1       -1 0.18175529E+00 0.33410187E+04</pdfrwt>
<totfact> 0.79933602E-01</totfact>
</mgrwt>
</event>
<event>
12    7  0.1661464E-007  0.3014165E+04  0.7818608E-02  0.8239698E-01
         -1   -1    0    0    0  501 -0.00000000000E+00  0.00000000000E+00  0.24429778109E+04  0.24429778109E+04  0.00000000000E+00 0.  1.
          2   -1    0    0  501    0  0.00000000000E+00 -0.00000000000E+00 -0.92972503824E+03  0.92972503824E+03  0.00000000000E+00 0. -1.
         24    2    1    2    0    0  0.31612790150E+03 -0.83263715181E+03  0.18551064249E+04  0.20593540117E+04  0.79357551269E+02 0.  0.
        254    2    1    2    0    0 -0.31612790150E+03  0.83263715181E+03 -0.34185365224E+03  0.13133488375E+04  0.90266260180E+03 0.  0.
         23    2    4    4    0    0 -0.57094093858E+03  0.26078982428E+03 -0.16199972961E+03  0.65496333375E+03  0.93531643679E+02 0.  0.
         23    2    4    4    0    0  0.25481303709E+03  0.57184732754E+03 -0.17985392263E+03  0.65838550373E+03  0.95838343892E+02 0.  0.
          4    1    3    3  502    0  0.62551104481E+02 -0.12809170434E+03  0.24058723702E+03  0.27964682014E+03  0.00000000000E+00 0. -1.
         -1    1    3    3    0  502  0.25357679702E+03 -0.70454544747E+03  0.16145191879E+04  0.17797071916E+04  0.00000000000E+00 0.  1.
         13    1    5    5    0    0 -0.31638210081E+03  0.19513202561E+03 -0.96132785285E+02  0.38394746195E+03  0.00000000000E+00 0.  1.
        -13    1    5    5    0    0 -0.25455883777E+03  0.65657798669E+02 -0.65866944327E+02  0.27101587180E+03  0.00000000000E+00 0. -1.
          3    1    6    6  503    0  0.31747998724E+02  0.13565965084E+03 -0.71623541331E+02  0.15665697546E+03  0.00000000000E+00 0. -1.
         -3    1    6    6    0  503  0.22306503836E+03  0.43618767670E+03 -0.10823038130E+03  0.50172852827E+03  0.00000000000E+00 0.  1.
<mgrwt>
<rscale>  0 0.30141650E+04</rscale>
<asrwt>0</asrwt>
<pdfrwt beam="1">  1        2 0.14303462E+00 0.30141650E+04</pdfrwt>
<pdfrwt beam="2">  1       -1 0.37584274E+00 0.30141650E+04</pdfrwt>
<totfact> 0.28470091E-01</totfact>
</mgrwt>
</event>
<event>
12    7  0.1661464E-007  0.3864416E+04  0.7818608E-02  0.8032471E-01
         -1   -1    0    0    0  501 -0.00000000000E+00  0.00000000000E+00  0.29658797765E+04  0.29658797765E+04  0.00000000000E+00 0.  1.
          2   -1    0    0  501    0  0.00000000000E+00 -0.00000000000E+00 -0.12587926664E+04  0.12587926664E+04  0.00000000000E+00 0. -1.
         24    2    1    2    0    0  0.10816059625E+04 -0.11654440408E+04 -0.17395368529E+03  0.16012958873E+04  0.75877292972E+02 0.  0.
        254    2    1    2    0    0 -0.10816059625E+04  0.11654440408E+04  0.18810407953E+04  0.26233765556E+04  0.90313831073E+03 0.  0.
         23    2    4    4    0    0 -0.49762765863E+03  0.92204913493E+03  0.16229715154E+04  0.19339345371E+04  0.90875521232E+02 0.  0.
         23    2    4    4    0    0 -0.58397830391E+03  0.24339490590E+03  0.25806927996E+03  0.68944201848E+03  0.91971756159E+02 0.  0.
          2    1    3    3  502    0  0.65915325696E+03 -0.65592514485E+03 -0.95842124233E+02  0.93482967678E+03  0.00000000000E+00 0. -1.
         -1    1    3    3    0  502  0.42245270557E+03 -0.50951889598E+03 -0.78111561056E+02  0.66646621053E+03  0.00000000000E+00 0.  1.
         13    1    5    5    0    0 -0.21073810862E+02  0.11668429077E+02  0.39758264118E+02  0.46486313115E+02  0.00000000000E+00 0. -1.
        -13    1    5    5    0    0 -0.47655384777E+03  0.91038070586E+03  0.15832132512E+04  0.18874482240E+04  0.00000000000E+00 0.  1.
          3    1    6    6  503    0 -0.71056618984E+02  0.39582651859E+01  0.47145682995E+02  0.85366424254E+02  0.00000000000E+00 0. -1.
         -3    1    6    6    0  503 -0.51292168492E+03  0.23943664071E+03  0.21092359697E+03  0.60407559422E+03  0.00000000000E+00 0.  1.
<mgrwt>
<rscale>  0 0.38644160E+04</rscale>
<asrwt>0</asrwt>
<pdfrwt beam="1">  1        2 0.19366041E+00 0.38644160E+04</pdfrwt>
<pdfrwt beam="2">  1       -1 0.45628920E+00 0.38644160E+04</pdfrwt>
<totfact> 0.46503200E-02</totfact>
</mgrwt>
</event>
<event>
12    7  0.1661464E-007  0.1066755E+04  0.7818608E-02  0.9238215E-01
          2   -1    0    0  501    0  0.00000000000E+00  0.00000000000E+00  0.11060494008E+04  0.11060494008E+04  0.00000000000E+00 0. -1.
         -1   -1    0    0    0  501 -0.00000000000E+00 -0.00000000000E+00 -0.25721391177E+03  0.25721391177E+03  0.00000000000E+00 0.  1.
         24    2    1    2    0    0  0.13612661226E+02 -0.86438051050E+02 -0.48420625874E+01  0.11847095742E+03  0.79718761693E+02 0.  0.
        254    2    1    2    0    0 -0.13612661226E+02  0.86438051050E+02  0.85367755160E+03  0.12447923551E+04  0.90171270596E+03 0.  0.
         23    2    4    4    0    0 -0.10622357625E+03  0.47438925739E+03  0.42748623776E+03  0.65380221378E+03  0.91565471620E+02 0.  0.
         23    2    4    4    0    0  0.92610915023E+02 -0.38795120634E+03  0.42619131384E+03  0.59099014136E+03  0.92452101714E+02 0.  0.
          2    1    3    3  502    0 -0.65165348612E+01  0.11869696441E+02 -0.11691845988E+02  0.17890058212E+02  0.00000000000E+00 0. -1.
         -1    1    3    3    0  502  0.20129196088E+02 -0.98307747491E+02  0.68497834010E+01  0.10058089920E+03  0.00000000000E+00 0.  1.
         13    1    5    5    0    0 -0.43462116889E+02  0.17613696571E+03  0.10298707455E+03  0.20861333567E+03  0.00000000000E+00 0. -1.
        -13    1    5    5    0    0 -0.62761459361E+02  0.29825229168E+03  0.32449916321E+03  0.44518887811E+03  0.00000000000E+00 0.  1.
          3    1    6    6  503    0  0.11403148398E+01  0.49352781268E+01  0.10961443761E+02  0.12075203412E+02  0.00000000000E+00 0. -1.
         -3    1    6    6    0  503  0.91470600184E+02 -0.39288648447E+03  0.41522987008E+03  0.57891493795E+03  0.00000000000E+00 0.  1.
<mgrwt>
<rscale>  0 0.10667545E+04</rscale>
<asrwt>0</asrwt>
<pdfrwt beam="1">  1        2 0.17016144E+00 0.10667545E+04</pdfrwt>
<pdfrwt beam="2">  1       -1 0.39571372E-01 0.10667545E+04</pdfrwt>
<totfact> 0.15204040E+02</totfact>
</mgrwt>
</event>
<event>
12    7  0.1661464E-007  0.1694415E+04  0.7818608E-02  0.8764556E-01
         -1   -1    0    0    0  501 -0.00000000000E+00  0.00000000000E+00  0.20313764882E+03  0.20313764882E+03  0.00000000000E+00 0.  1.
          2   -1    0    0  501    0  0.00000000000E+00 -0.00000000000E+00 -0.35333713638E+04  0.35333713638E+04  0.00000000000E+00 0. -1.
         24    2    1    2    0    0 -0.34120524504E+03 -0.13555880671E+03 -0.22434929683E+04  0.22747988332E+04  0.81558711696E+02 0.  0.
        254    2    1    2    0    0  0.34120524504E+03  0.13555880671E+03 -0.10867407468E+04  0.14617101795E+04  0.90597681473E+03 0.  0.
         23    2    4    4    0    0  0.41717441183E+03 -0.76085024638E+02 -0.10075633760E+03  0.44626938782E+03  0.95818088507E+02 0.  0.
         23    2    4    4    0    0 -0.75969166781E+02  0.21164383135E+03 -0.98598440915E+03  0.10154407917E+04  0.91598693367E+02 0.  0.
          4    1    3    3  502    0 -0.81879892016E+02 -0.14897150836E+02 -0.70988955227E+03  0.71475129817E+03  0.00000000000E+00 0. -1.
         -3    1    3    3    0  502 -0.25932535303E+03 -0.12066165588E+03 -0.15336034160E+04  0.15600475350E+04  0.00000000000E+00 0.  1.
         13    1    5    5    0    0  0.68364407519E+02 -0.35518610922E+02  0.10846835894E+02  0.77800499910E+02  0.00000000000E+00 0. -1.
        -13    1    5    5    0    0  0.34881000431E+03 -0.40566413716E+02 -0.11160317350E+03  0.36846888791E+03  0.00000000000E+00 0.  1.
          2    1    6    6  503    0 -0.53370552826E+02  0.15886439783E+03 -0.53024141816E+03  0.55609556224E+03  0.00000000000E+00 0. -1.
         -2    1    6    6    0  503 -0.22598613955E+02  0.52779433517E+02 -0.45574299099E+03  0.45934522942E+03  0.00000000000E+00 0.  1.
<mgrwt>
<rscale>  0 0.16944152E+04</rscale>
<asrwt>0</asrwt>
<pdfrwt beam="1">  1        2 0.54359560E+00 0.16944152E+04</pdfrwt>
<pdfrwt beam="2">  1       -1 0.31251946E-01 0.16944152E+04</pdfrwt>
<totfact> 0.80090949E+00</totfact>
</mgrwt>
</event>
<event>
12    7  0.1661464E-007  0.1696591E+04  0.7818608E-02  0.8763311E-01
         -1   -1    0    0    0  501 -0.00000000000E+00  0.00000000000E+00  0.50364775222E+03  0.50364775222E+03  0.00000000000E+00 0.  1.
          2   -1    0    0  501    0  0.00000000000E+00 -0.00000000000E+00 -0.14287859822E+04  0.14287859822E+04  0.00000000000E+00 0. -1.
         24    2    1    2    0    0  0.93367198072E+02 -0.44679845702E+03 -0.79428114447E+03  0.91950054086E+03  0.79072203130E+02 0.  0.
        254    2    1    2    0    0 -0.93367198072E+02  0.44679845702E+03 -0.13085708554E+03  0.10129331936E+04  0.89474229976E+03 0.  0.
         23    2    4    4    0    0 -0.45228190490E+03  0.28083978615E+03  0.94565121988E+02  0.54901442397E+03  0.95101884533E+02 0.  0.
         23    2    4    4    0    0  0.35891470683E+03  0.16595867087E+03 -0.22542220753E+03  0.46391876963E+03  0.89685037524E+02 0.  0.
          4    1    3    3  502    0  0.96252254871E+02 -0.44584092092E+03 -0.76940886722E+03  0.89444319456E+03  0.00000000000E+00 0. -1.
         -3    1    3    3    0  502 -0.28850567994E+01 -0.95753610289E+00 -0.24872277247E+02  0.25057346299E+02  0.00000000000E+00 0.  1.
         13    1    5    5    0    0 -0.42225715156E+03  0.23248488889E+03  0.98395509009E+02  0.49196748043E+03  0.00000000000E+00 0. -1.
        -13    1    5    5    0    0 -0.30024753341E+02  0.48354897264E+02 -0.38303870211E+01  0.57046943541E+02  0.00000000000E+00 0.  1.
          2    1    6    6  503    0  0.21111911769E+03  0.65328868648E+02 -0.16273008145E+03  0.27444529937E+03  0.00000000000E+00 0. -1.
         -2    1    6    6    0  503  0.14779558913E+03  0.10062980222E+03 -0.62692126075E+02  0.18947347027E+03  0.00000000000E+00 0.  1.
<mgrwt>
<rscale>  0 0.16965905E+04</rscale>
<asrwt>0</asrwt>
<pdfrwt beam="1">  1        2 0.21981323E+00 0.16965905E+04</pdfrwt>
<pdfrwt beam="2">  1       -1 0.77484269E-01 0.16965905E+04</pdfrwt>
<totfact> 0.25230104E+01</totfact>
</mgrwt>
</event>
<event>
12    7  0.1661464E-007  0.2040286E+04  0.7818608E-02  0.8588014E-01
         -1   -1    0    0    0  501 -0.00000000000E+00  0.00000000000E+00  0.38294840488E+03  0.38294840488E+03  0.00000000000E+00 0.  1.
          2   -1    0    0  501    0  0.00000000000E+00 -0.00000000000E+00 -0.27175773265E+04  0.27175773265E+04  0.00000000000E+00 0. -1.
         24    2    1    2    0    0  0.82359258828E+01  0.18346053295E+03 -0.21802651088E+04  0.21894123625E+04  0.79024998729E+02 0.  0.
        254    2    1    2    0    0 -0.82359258828E+01 -0.18346053295E+03 -0.15436381277E+03  0.91111336892E+03  0.87896176635E+03 0.  0.
         23    2    4    4    0    0  0.10697324532E+03 -0.49995960254E+03 -0.20278542516E+03  0.55764495730E+03  0.91886290362E+02 0.  0.
         23    2    4    4    0    0 -0.11520917120E+03  0.31649906959E+03  0.48421612383E+02  0.35346841162E+03  0.95657991244E+02 0.  0.
          4    1    3    3  502    0  0.32968837534E+02  0.16214444448E+03 -0.16977946532E+04  0.17058383421E+04  0.00000000000E+00 0. -1.
         -3    1    3    3    0  502 -0.24732911651E+02  0.21316088467E+02 -0.48247045567E+03  0.48357402033E+03  0.00000000000E+00 0.  1.
         13    1    5    5    0    0  0.84762887655E+02 -0.21059917484E+03 -0.11477498150E+03  0.25438171307E+03  0.00000000000E+00 0.  1.
        -13    1    5    5    0    0  0.22210357668E+02 -0.28936042770E+03 -0.88010443661E+02  0.30326324423E+03  0.00000000000E+00 0. -1.
          4    1    6    6  503    0  0.35999112058E+01  0.12640672486E+02  0.22656420566E+02  0.26192734765E+02  0.00000000000E+00 0. -1.
         -4    1    6    6    0  503 -0.11880908241E+03  0.30385839711E+03  0.25765191817E+02  0.32727567686E+03  0.00000000000E+00 0.  1.
<mgrwt>
<rscale>  0 0.20402862E+04</rscale>
<asrwt>0</asrwt>
<pdfrwt beam="1">  1        2 0.41808881E+00 0.20402862E+04</pdfrwt>
<pdfrwt beam="2">  1       -1 0.58915140E-01 0.20402862E+04</pdfrwt>
<totfact> 0.79862657E+00</totfact>
</mgrwt>
</event>
<event>
12    7  0.1661464E-007  0.2811107E+04  0.7818608E-02  0.8299828E-01
          2   -1    0    0  501    0  0.00000000000E+00  0.00000000000E+00  0.12114838139E+04  0.12114838139E+04  0.00000000000E+00 0. -1.
         -1   -1    0    0    0  501 -0.00000000000E+00 -0.00000000000E+00 -0.16307117632E+04  0.16307117632E+04  0.00000000000E+00 0.  1.
         24    2    1    2    0    0 -0.11004083461E+04 -0.30283595503E+03 -0.72989282305E+03  0.13570972094E+04  0.79756873447E+02 0.  0.
        254    2    1    2    0    0  0.11004083461E+04  0.30283595503E+03  0.31066487376E+03  0.14850983677E+04  0.89799574281E+03 0.  0.
         23    2    4    4    0    0  0.77736764490E+03  0.12663048697E+03 -0.22910480573E+03  0.82524374181E+03  0.90567575994E+02 0.  0.
         23    2    4    4    0    0  0.32304070119E+03  0.17620546806E+03  0.53976967950E+03  0.65985462588E+03  0.93022356388E+02 0.  0.
          4    1    3    3  502    0 -0.10243023503E+03 -0.39975805998E+02 -0.46862602393E+02  0.11952456490E+03  0.00000000000E+00 0. -1.
         -3    1    3    3    0  502 -0.99797811106E+03 -0.26286014903E+03 -0.68303022065E+03  0.12375726445E+04  0.00000000000E+00 0.  1.
         13    1    5    5    0    0  0.90919867845E+02  0.43888563771E+02 -0.20226356560E+02  0.10296472162E+03  0.00000000000E+00 0. -1.
        -13    1    5    5    0    0  0.68644777705E+03  0.82741923201E+02 -0.20887844917E+03  0.72227902019E+03  0.00000000000E+00 0.  1.
          2    1    6    6  503    0  0.19858098122E+03  0.67799059774E+02  0.35252076956E+03  0.41024628161E+03  0.00000000000E+00 0. -1.
         -2    1    6    6    0  503  0.12445971997E+03  0.10840640829E+03  0.18724890994E+03  0.24960834426E+03  0.00000000000E+00 0.  1.
<mgrwt>
<rscale>  0 0.28111072E+04</rscale>
<asrwt>0</asrwt>
<pdfrwt beam="1">  1        2 0.18638213E+00 0.28111072E+04</pdfrwt>
<pdfrwt beam="2">  1       -1 0.25087873E+00 0.28111072E+04</pdfrwt>
<totfact> 0.12705749E+00</totfact>
</mgrwt>
</event>
<event>
12    7  0.1661464E-007  0.1411272E+04  0.7818608E-02  0.8945700E-01
          2   -1    0    0  501    0  0.00000000000E+00  0.00000000000E+00  0.11973920340E+04  0.11973920340E+04  0.00000000000E+00 0. -1.
         -1   -1    0    0    0  501 -0.00000000000E+00 -0.00000000000E+00 -0.41583869120E+03  0.41583869120E+03  0.00000000000E+00 0.  1.
         24    2    1    2    0    0 -0.29105696065E+03 -0.24927549729E+03  0.41395785463E+03  0.56965404405E+03  0.79323367301E+02 0.  0.
        254    2    1    2    0    0  0.29105696065E+03  0.24927549729E+03  0.36759548820E+03  0.10435766812E+04  0.89837265022E+03 0.  0.
         23    2    4    4    0    0  0.53525184969E+02 -0.32743441336E+03  0.16397726352E+03  0.38126872942E+03  0.91646388926E+02 0.  0.
         23    2    4    4    0    0  0.23753177568E+03  0.57670991066E+03  0.20361822468E+03  0.66230795176E+03  0.90419997950E+02 0.  0.
          2    1    3    3  502    0 -0.23547807833E+03 -0.18668645117E+03  0.36461359047E+03  0.47248791178E+03  0.00000000000E+00 0. -1.
         -1    1    3    3    0  502 -0.55578882322E+02 -0.62589046124E+02  0.49344264159E+02  0.97166132270E+02  0.00000000000E+00 0.  1.
         13    1    5    5    0    0  0.19184851186E+02 -0.44696831568E+02 -0.68981650569E+01  0.49126876029E+02  0.00000000000E+00 0.  1.
        -13    1    5    5    0    0  0.34340333783E+02 -0.28273758180E+03  0.17087542858E+03  0.33214185339E+03  0.00000000000E+00 0. -1.
          1    1    6    6  503    0  0.12108399073E+03  0.24201434167E+03  0.13063624063E+03  0.30049642553E+03  0.00000000000E+00 0.  1.
         -1    1    6    6    0  503  0.11644778495E+03  0.33469556899E+03  0.72981984043E+02  0.36181152623E+03  0.00000000000E+00 0. -1.
<mgrwt>
<rscale>  0 0.14112717E+04</rscale>
<asrwt>0</asrwt>
<pdfrwt beam="1">  1        2 0.18421416E+00 0.14112717E+04</pdfrwt>
<pdfrwt beam="2">  1       -1 0.63975184E-01 0.14112717E+04</pdfrwt>
<totfact> 0.52230744E+01</totfact>
</mgrwt>
</event>
<event>
12    7  0.1661464E-007  0.1374114E+04  0.7818608E-02  0.8972773E-01
         -1   -1    0    0    0  501 -0.00000000000E+00  0.00000000000E+00  0.10522825271E+04  0.10522825271E+04  0.00000000000E+00 0.  1.
          2   -1    0    0  501    0  0.00000000000E+00 -0.00000000000E+00 -0.44859338527E+03  0.44859338527E+03  0.00000000000E+00 0. -1.
         24    2    1    2    0    0 -0.21391378641E+03 -0.28690269056E+03  0.48289412418E+03  0.60617281161E+03  0.78654183015E+02 0.  0.
        254    2    1    2    0    0  0.21391378641E+03  0.28690269056E+03  0.12079501762E+03  0.89470310073E+03  0.81106716140E+03 0.  0.
         23    2    4    4    0    0 -0.24396702039E+03 -0.29689047173E+02 -0.11038195301E+03  0.28546715534E+03  0.94371471680E+02 0.  0.
         23    2    4    4    0    0  0.45788080680E+03  0.31659173773E+03  0.23117697064E+03  0.60923594539E+03  0.88546506240E+02 0.  0.
          4    1    3    3  502    0  0.57505607649E+01 -0.17340386487E+02  0.18290227934E+02  0.25851313130E+02  0.00000000000E+00 0. -1.
         -3    1    3    3    0  502 -0.21966434717E+03 -0.26956230407E+03  0.46460389624E+03  0.58032149848E+03  0.00000000000E+00 0.  1.
         13    1    5    5    0    0 -0.70032476920E+02 -0.33628850916E+02  0.30980659654E+01  0.77749890355E+02  0.00000000000E+00 0. -1.
        -13    1    5    5    0    0 -0.17393454347E+03  0.39398037431E+01 -0.11348001898E+03  0.20771726499E+03  0.00000000000E+00 0.  1.
          3    1    6    6  503    0  0.10421545256E+03  0.90837148066E+02  0.20571410954E+02  0.13976920609E+03  0.00000000000E+00 0. -1.
         -3    1    6    6    0  503  0.35366535424E+03  0.22575458967E+03  0.21060555968E+03  0.46946673930E+03  0.00000000000E+00 0.  1.
<mgrwt>
<rscale>  0 0.13741135E+04</rscale>
<asrwt>0</asrwt>
<pdfrwt beam="1">  1        2 0.69014367E-01 0.13741135E+04</pdfrwt>
<pdfrwt beam="2">  1       -1 0.16188962E+00 0.13741135E+04</pdfrwt>
<totfact> 0.22014614E+01</totfact>
</mgrwt>
</event>
<event>
12    7  0.1661464E-007  0.1316321E+04  0.7818608E-02  0.9016722E-01
          2   -1    0    0  501    0  0.00000000000E+00  0.00000000000E+00  0.25935891965E+03  0.25935891965E+03  0.00000000000E+00 0. -1.
         -1   -1    0    0    0  501 -0.00000000000E+00 -0.00000000000E+00 -0.16701760830E+04  0.16701760830E+04  0.00000000000E+00 0.  1.
         24    2    1    2    0    0 -0.25668906826E+03  0.15354622987E+03 -0.67328241672E+03  0.74105608278E+03  0.79932363288E+02 0.  0.
        254    2    1    2    0    0  0.25668906826E+03 -0.15354622987E+03 -0.73753474665E+03  0.11884789199E+04  0.88264314308E+03 0.  0.
         23    2    4    4    0    0  0.42660843904E+03  0.20550445541E+03 -0.22000281664E+03  0.52972936470E+03  0.89359493283E+02 0.  0.
         23    2    4    4    0    0 -0.16991937077E+03 -0.35905068528E+03 -0.51753193001E+03  0.65874955519E+03  0.91223301428E+02 0.  0.
          2    1    3    3  502    0 -0.13268029628E+02  0.33034555609E+02 -0.11170269849E+03  0.11723828438E+03  0.00000000000E+00 0. -1.
         -1    1    3    3    0  502 -0.24342103864E+03  0.12051167426E+03 -0.56157971822E+03  0.62381779840E+03  0.00000000000E+00 0.  1.
         13    1    5    5    0    0  0.34515354888E+03  0.13933672728E+03 -0.13963322846E+03  0.39754639271E+03  0.00000000000E+00 0.  1.
        -13    1    5    5    0    0  0.81454890161E+02  0.66167728133E+02 -0.80369588181E+02  0.13218297198E+03  0.00000000000E+00 0. -1.
          4    1    6    6  503    0 -0.56985093036E+02 -0.15197742713E+03 -0.14399682657E+03  0.21697816768E+03  0.00000000000E+00 0. -1.
         -4    1    6    6    0  503 -0.11293427774E+03 -0.20707325815E+03 -0.37353510344E+03  0.44177138752E+03  0.00000000000E+00 0.  1.
<mgrwt>
<rscale>  0 0.13163207E+04</rscale>
<asrwt>0</asrwt>
<pdfrwt beam="1">  1        2 0.39901373E-01 0.13163207E+04</pdfrwt>
<pdfrwt beam="2">  1       -1 0.25695016E+00 0.13163207E+04</pdfrwt>
<totfact> 0.91197110E+00</totfact>
</mgrwt>
</event>
<event>
12    7  0.1661464E-007  0.1370339E+04  0.7818608E-02  0.8975573E-01
          2   -1    0    0  501    0  0.00000000000E+00  0.00000000000E+00  0.81950963972E+03  0.81950963972E+03  0.00000000000E+00 0. -1.
         -1   -1    0    0    0  501 -0.00000000000E+00 -0.00000000000E+00 -0.57285166550E+03  0.57285166550E+03  0.00000000000E+00 0.  1.
         24    2    1    2    0    0  0.12345196390E+03 -0.32124542719E+03 -0.95699718018E+02  0.36593065299E+03  0.79421627348E+02 0.  0.
        254    2    1    2    0    0 -0.12345196390E+03  0.32124542719E+03  0.34235769223E+03  0.10264306522E+04  0.90438491944E+03 0.  0.
         23    2    4    4    0    0 -0.44972944387E+03 -0.41285437103E+02  0.87151378982E+02  0.46851004709E+03  0.89136083417E+02 0.  0.
         23    2    4    4    0    0  0.32627747997E+03  0.36253086429E+03  0.25520631325E+03  0.55792060513E+03  0.90881889364E+02 0.  0.
          4    1    3    3  502    0  0.58375910151E+02 -0.23503041445E+03 -0.43836817219E+02  0.24610710909E+03  0.00000000000E+00 0. -1.
         -3    1    3    3    0  502  0.65076053752E+02 -0.86215012737E+02 -0.51862900799E+02  0.11982354390E+03  0.00000000000E+00 0.  1.
         13    1    5    5    0    0 -0.25251512510E+03 -0.55295280194E+02  0.18269744221E+02  0.25914328077E+03  0.00000000000E+00 0. -1.
        -13    1    5    5    0    0 -0.19721431877E+03  0.14009843091E+02  0.68881634761E+02  0.20936676632E+03  0.00000000000E+00 0.  1.
          2    1    6    6  503    0  0.10910598547E+03  0.18755424237E+03  0.12061517137E+03  0.24825134332E+03  0.00000000000E+00 0. -1.
         -2    1    6    6    0  503  0.21717149449E+03  0.17497662192E+03  0.13459114188E+03  0.30966926181E+03  0.00000000000E+00 0.  1.
<mgrwt>
<rscale>  0 0.13703393E+04</rscale>
<asrwt>0</asrwt>
<pdfrwt beam="1">  1        2 0.12607841E+00 0.13703393E+04</pdfrwt>
<pdfrwt beam="2">  1       -1 0.88131026E-01 0.13703393E+04</pdfrwt>
<totfact> 0.47002214E+01</totfact>
</mgrwt>
</event>
<event>
12    7  0.1661464E-007  0.2802172E+04  0.7818608E-02  0.8302594E-01
          2   -1    0    0  501    0  0.00000000000E+00  0.00000000000E+00  0.25756723043E+04  0.25756723043E+04  0.00000000000E+00 0. -1.
         -1   -1    0    0    0  501 -0.00000000000E+00 -0.00000000000E+00 -0.76214738262E+03  0.76214738262E+03  0.00000000000E+00 0.  1.
         24    2    1    2    0    0  0.92381089219E+03  0.44288434224E+03 -0.32639280886E+02  0.10281681075E+04  0.80568167332E+02 0.  0.
        254    2    1    2    0    0 -0.92381089219E+03 -0.44288434224E+03  0.18461642025E+04  0.23096515793E+04  0.93626654865E+03 0.  0.
         23    2    4    4    0    0 -0.10841098003E+04 -0.49357182165E+03  0.16373402759E+04  0.20266949616E+04  0.87761529391E+02 0.  0.
         23    2    4    4    0    0  0.16029890811E+03  0.50687479406E+02  0.20882392666E+03  0.28295661777E+03  0.90509970071E+02 0.  0.
          2    1    3    3  502    0  0.25204754514E+02  0.14023026663E+02  0.12526950611E+02  0.31445976190E+02  0.00000000000E+00 0. -1.
         -1    1    3    3    0  502  0.89860613768E+03  0.42886131558E+03 -0.45166231497E+02  0.99672213136E+03  0.00000000000E+00 0.  1.
         13    1    5    5    0    0 -0.48062406984E+03 -0.26550626856E+03  0.77042789603E+03  0.94607199416E+03  0.00000000000E+00 0. -1.
        -13    1    5    5    0    0 -0.60348573047E+03 -0.22806555309E+03  0.86691237983E+03  0.10806229674E+04  0.00000000000E+00 0.  1.
          3    1    6    6  503    0  0.74207802447E+02  0.64466336097E+02  0.76806776304E+02  0.12474769465E+03  0.00000000000E+00 0. -1.
         -3    1    6    6    0  503  0.86091105668E+02 -0.13778856692E+02  0.13201715036E+03  0.15820892312E+03  0.00000000000E+00 0.  1.
<mgrwt>
<rscale>  0 0.28021719E+04</rscale>
<asrwt>0</asrwt>
<pdfrwt beam="1">  1        2 0.39625727E+00 0.28021719E+04</pdfrwt>
<pdfrwt beam="2">  1       -1 0.11725344E+00 0.28021719E+04</pdfrwt>
<totfact> 0.20367969E+00</totfact>
</mgrwt>
</event>
<event>
12    7  0.1929686E-007  0.1468986E+04  0.7818608E-02  0.8905343E-01
          2   -1    0    0  501    0  0.00000000000E+00  0.00000000000E+00  0.23680970968E+04  0.23680970968E+04  0.00000000000E+00 0. -1.
         -1   -1    0    0    0  501 -0.00000000000E+00 -0.00000000000E+00 -0.22781159484E+03  0.22781159484E+03  0.00000000000E+00 0.  1.
         24    2    1    2    0    0 -0.11802723270E+03 -0.15481568379E+02  0.14379029179E+04  0.14449725833E+04  0.78809000785E+02 0.  0.
        254    2    1    2    0    0  0.11802723270E+03  0.15481568379E+02  0.70238258408E+03  0.11509361083E+04  0.90395935995E+03 0.  0.
         23    2    4    4    0    0  0.16515228276E+03  0.38370816058E+03  0.10179227354E+03  0.43898649952E+03  0.88545190743E+02 0.  0.
         23    2    4    4    0    0 -0.47125050068E+02 -0.36822659220E+03  0.60059031054E+03  0.71194960883E+03  0.91388898933E+02 0.  0.
          2    1    3    3  502    0 -0.75820479309E+02 -0.12862762871E+02  0.12502884674E+04  0.12526513671E+04  0.00000000000E+00 0. -1.
         -3    1    3    3    0  502 -0.42206753387E+02 -0.26188055076E+01  0.18761445042E+03  0.19232121614E+03  0.00000000000E+00 0.  1.
         13    1    5    5    0    0  0.15223243198E+03  0.38101752378E+03  0.87493697206E+02  0.41952856139E+03  0.00000000000E+00 0. -1.
        -13    1    5    5    0    0  0.12919850788E+02  0.26906368049E+01  0.14298576338E+02  0.19457938126E+02  0.00000000000E+00 0.  1.
          1    1    6    6  503    0 -0.48177924198E+02 -0.37180427488E+03  0.60083676929E+03  0.70821208302E+03  0.00000000000E+00 0. -1.
         -1    1    6    6    0  503  0.10528741301E+01  0.35776826743E+01 -0.24645875693E+00  0.37375258087E+01  0.00000000000E+00 0.  1.
<mgrwt>
<rscale>  0 0.14689860E+04</rscale>
<asrwt>0</asrwt>
<pdfrwt beam="1">  1        2 0.36432261E+00 0.14689860E+04</pdfrwt>
<pdfrwt beam="2">  1       -1 0.35047939E-01 0.14689860E+04</pdfrwt>
<totfact> 0.35475523E+01</totfact>
</mgrwt>
</event>
<event>
12    7  0.1661464E-007  0.1828652E+04  0.7818608E-02  0.8691209E-01
         -1   -1    0    0    0  501 -0.00000000000E+00  0.00000000000E+00  0.72735777881E+03  0.72735777881E+03  0.00000000000E+00 0.  1.
          2   -1    0    0  501    0  0.00000000000E+00 -0.00000000000E+00 -0.11493545027E+04  0.11493545027E+04  0.00000000000E+00 0. -1.
         24    2    1    2    0    0 -0.13652741272E+03  0.50326158114E+03  0.30369208734E+03  0.60808761303E+03  0.75031378340E+02 0.  0.
        254    2    1    2    0    0  0.13652741272E+03 -0.50326158114E+03 -0.72568881118E+03  0.12686246684E+04  0.90048450581E+03 0.  0.
         23    2    4    4    0    0 -0.21720627330E+03  0.14235721311E+03 -0.84925889149E+02  0.28815151358E+03  0.91513642949E+02 0.  0.
         23    2    4    4    0    0  0.35373368602E+03 -0.64561879424E+03 -0.64076292203E+03  0.98047315485E+03  0.93804781470E+02 0.  0.
          4    1    3    3  502    0 -0.43748068247E+00  0.11942223474E+03  0.62862503204E+02  0.13495760760E+03  0.00000000000E+00 0. -1.
         -3    1    3    3    0  502 -0.13608993204E+03  0.38383934639E+03  0.24082958413E+03  0.47313000543E+03  0.00000000000E+00 0.  1.
         13    1    5    5    0    0 -0.65217218461E+02  0.16497151612E+02 -0.58316885830E+02  0.89029774615E+02  0.00000000000E+00 0.  1.
        -13    1    5    5    0    0 -0.15198905484E+03  0.12586006150E+03 -0.26609003319E+02  0.19912173896E+03  0.00000000000E+00 0. -1.
          3    1    6    6  503    0  0.18921153390E+03 -0.36651145342E+03 -0.41832575157E+03  0.58747602885E+03  0.00000000000E+00 0. -1.
         -3    1    6    6    0  503  0.16452215212E+03 -0.27910734083E+03 -0.22243717046E+03  0.39299712600E+03  0.00000000000E+00 0.  1.
<mgrwt>
<rscale>  0 0.18286519E+04</rscale>
<asrwt>0</asrwt>
<pdfrwt beam="1">  1        2 0.17682377E+00 0.18286519E+04</pdfrwt>
<pdfrwt beam="2">  1       -1 0.11190120E+00 0.18286519E+04</pdfrwt>
<totfact> 0.15995947E+01</totfact>
</mgrwt>
</event>
<event>
12    7  0.1661464E-007  0.3945040E+04  0.7818608E-02  0.8015726E-01
         -1   -1    0    0    0  501 -0.00000000000E+00  0.00000000000E+00  0.18387242541E+04  0.18387242541E+04  0.00000000000E+00 0.  1.
          2   -1    0    0  501    0  0.00000000000E+00 -0.00000000000E+00 -0.21160516732E+04  0.21160516732E+04  0.00000000000E+00 0. -1.
         24    2    1    2    0    0  0.20316443484E+03 -0.78311295082E+03 -0.18215591807E+04  0.19947575596E+04  0.80238340939E+02 0.  0.
        254    2    1    2    0    0 -0.20316443484E+03  0.78311295082E+03  0.15442317616E+04  0.19600183676E+04  0.89581169144E+03 0.  0.
         23    2    4    4    0    0 -0.35809017770E+03  0.93601059752E+01  0.26468150255E+03  0.45407098324E+03  0.88362735812E+02 0.  0.
         23    2    4    4    0    0  0.15492574286E+03  0.77375284485E+03  0.12795502591E+04  0.15059473844E+04  0.89068559788E+02 0.  0.
          4    1    3    3  502    0  0.19975507451E+03 -0.71848540561E+03 -0.16281697982E+04  0.17908266973E+04  0.00000000000E+00 0. -1.
         -3    1    3    3    0  502  0.34093603279E+01 -0.64627545215E+02 -0.19338938253E+03  0.20393086233E+03  0.00000000000E+00 0.  1.
         13    1    5    5    0    0 -0.23089409550E+03  0.46943166120E+02  0.15578821863E+03  0.28246364942E+03  0.00000000000E+00 0. -1.
        -13    1    5    5    0    0 -0.12719608221E+03 -0.37583060145E+02  0.10889328392E+03  0.17160733382E+03  0.00000000000E+00 0.  1.
          4    1    6    6  503    0  0.81370980208E+01  0.52987754490E+01  0.31455724175E+02  0.32920388346E+02  0.00000000000E+00 0.  1.
         -4    1    6    6    0  503  0.14678864484E+03  0.76845406940E+03  0.12480945349E+04  0.14730269960E+04  0.00000000000E+00 0. -1.
<mgrwt>
<rscale>  0 0.39450402E+04</rscale>
<asrwt>0</asrwt>
<pdfrwt beam="1">  1        2 0.32554641E+00 0.39450402E+04</pdfrwt>
<pdfrwt beam="2">  1       -1 0.28288066E+00 0.39450402E+04</pdfrwt>
<totfact> 0.22117756E-01</totfact>
</mgrwt>
</event>
<event>
12    7  0.1661464E-007  0.2834003E+04  0.7818608E-02  0.8292789E-01
          2   -1    0    0  501    0  0.00000000000E+00  0.00000000000E+00  0.90815393296E+03  0.90815393296E+03  0.00000000000E+00 0. -1.
         -1   -1    0    0    0  501 -0.00000000000E+00 -0.00000000000E+00 -0.22109611185E+04  0.22109611185E+04  0.00000000000E+00 0.  1.
         24    2    1    2    0    0 -0.11577057458E+04 -0.44026823047E+03 -0.27481709540E+03  0.12712716773E+04  0.80551429508E+02 0.  0.
        254    2    1    2    0    0  0.11577057458E+04  0.44026823047E+03 -0.10279900901E+04  0.18478433742E+04  0.90754768552E+03 0.  0.
         23    2    4    4    0    0  0.14598497825E+03  0.40531398830E+02 -0.67787028401E+03  0.70069497134E+03  0.92254608305E+02 0.  0.
         23    2    4    4    0    0  0.10117207676E+04  0.39973683164E+03 -0.35011980612E+03  0.11471484029E+04  0.99985666150E+02 0.  0.
          4    1    3    3  502    0 -0.10430836115E+03 -0.41065299731E+02 -0.16116844387E+01  0.11211240152E+03  0.00000000000E+00 0. -1.
         -3    1    3    3    0  502 -0.10533973847E+04 -0.39920293074E+03 -0.27320541096E+03  0.11591592757E+04  0.00000000000E+00 0.  1.
         13    1    5    5    0    0  0.90767528256E+02  0.55942771722E+02 -0.55446917636E+03  0.56462766973E+03  0.00000000000E+00 0.  1.
        -13    1    5    5    0    0  0.55217449991E+02 -0.15411372891E+02 -0.12340110765E+03  0.13606730161E+03  0.00000000000E+00 0. -1.
          1    1    6    6  503    0  0.60413860996E+03  0.19513355456E+03 -0.17415565889E+03  0.65832420408E+03  0.00000000000E+00 0.  1.
         -1    1    6    6    0  503  0.40758215761E+03  0.20460327708E+03 -0.17596414724E+03  0.48882419878E+03  0.00000000000E+00 0. -1.
<mgrwt>
<rscale>  0 0.28340028E+04</rscale>
<asrwt>0</asrwt>
<pdfrwt beam="1">  1        2 0.13971599E+00 0.28340028E+04</pdfrwt>
<pdfrwt beam="2">  1       -1 0.34014786E+00 0.28340028E+04</pdfrwt>
<totfact> 0.51695548E-01</totfact>
</mgrwt>
</event>
<event>
12    7  0.1661464E-007  0.1202279E+04  0.7818608E-02  0.9110864E-01
          2   -1    0    0  501    0  0.00000000000E+00  0.00000000000E+00  0.37433842336E+03  0.37433842336E+03  0.00000000000E+00 0. -1.
         -1   -1    0    0    0  501 -0.00000000000E+00 -0.00000000000E+00 -0.96535235471E+03  0.96535235471E+03  0.00000000000E+00 0.  1.
         24    2    1    2    0    0  0.15174519367E+03 -0.19617050182E+03 -0.64189533277E+02  0.26873357721E+03  0.81166309207E+02 0.  0.
        254    2    1    2    0    0 -0.15174519367E+03  0.19617050182E+03 -0.52682439807E+03  0.10709572009E+04  0.89883030105E+03 0.  0.
         23    2    4    4    0    0  0.18971441267E+03  0.34696945585E+03  0.15954093528E+02  0.40589476668E+03  0.90092546029E+02 0.  0.
         23    2    4    4    0    0 -0.34145960634E+03 -0.15079895403E+03 -0.54277849159E+03  0.66506243418E+03  0.91457985550E+02 0.  0.
          4    1    3    3  502    0  0.34520704779E+02 -0.56476178548E+02 -0.55135982632E+02  0.86146470518E+02  0.00000000000E+00 0. -1.
         -3    1    3    3    0  502  0.11722448889E+03 -0.13969432327E+03 -0.90535506445E+01  0.18258710669E+03  0.00000000000E+00 0.  1.
         13    1    5    5    0    0  0.29579629765E+02  0.15696506132E+02  0.17842049996E+02  0.37943030319E+02  0.00000000000E+00 0.  1.
        -13    1    5    5    0    0  0.16013478291E+03  0.33127294972E+03 -0.18879564677E+01  0.36795173636E+03  0.00000000000E+00 0. -1.
          3    1    6    6  503    0 -0.26643900795E+03 -0.10796769478E+03 -0.47515888702E+03  0.55535820512E+03  0.00000000000E+00 0. -1.
         -3    1    6    6    0  503 -0.75020598393E+02 -0.42831259250E+02 -0.67619604571E+02  0.10970422906E+03  0.00000000000E+00 0.  1.
<mgrwt>
<rscale>  0 0.12022786E+04</rscale>
<asrwt>0</asrwt>
<pdfrwt beam="1">  1        2 0.57590527E-01 0.12022786E+04</pdfrwt>
<pdfrwt beam="2">  1       -1 0.14851575E+00 0.12022786E+04</pdfrwt>
<totfact> 0.34688261E+01</totfact>
</mgrwt>
</event>
<event>
12    7  0.1661464E-007  0.1114765E+04  0.7818608E-02  0.9190919E-01
         -1   -1    0    0    0  501 -0.00000000000E+00  0.00000000000E+00  0.49337229936E+03  0.49337229936E+03  0.00000000000E+00 0.  1.
          2   -1    0    0  501    0  0.00000000000E+00 -0.00000000000E+00 -0.62969733687E+03  0.62969733687E+03  0.00000000000E+00 0. -1.
         24    2    1    2    0    0 -0.10759803750E+02  0.89790750385E+02  0.13475222907E+03  0.18146156580E+03  0.81191036393E+02 0.  0.
        254    2    1    2    0    0  0.10759803750E+02 -0.89790750385E+02 -0.27107726658E+03  0.94160807044E+03  0.89719826216E+03 0.  0.
         23    2    4    4    0    0 -0.22521287227E+03  0.30303278754E+03 -0.27145185964E+03  0.47365016267E+03  0.90048077930E+02 0.  0.
         23    2    4    4    0    0  0.23597267602E+03 -0.39282353792E+03  0.37459305931E+00  0.46795790777E+03  0.94821027990E+02 0.  0.
          2    1    3    3  502    0  0.29342859535E+02  0.29040163125E+02  0.20759506242E+02  0.46209215308E+02  0.00000000000E+00 0. -1.
         -1    1    3    3    0  502 -0.40102663285E+02  0.60750587260E+02  0.11399272283E+03  0.13525235049E+03  0.00000000000E+00 0.  1.
         13    1    5    5    0    0 -0.92793613345E+02  0.16258047881E+03 -0.18130842497E+03  0.26060662258E+03  0.00000000000E+00 0.  1.
        -13    1    5    5    0    0 -0.13241925892E+03  0.14045230873E+03 -0.90143434668E+02  0.21304354009E+03  0.00000000000E+00 0. -1.
          3    1    6    6  503    0  0.32561008427E+02 -0.12013713576E+02 -0.99428319429E+01  0.36102749074E+02  0.00000000000E+00 0. -1.
         -3    1    6    6    0  503  0.20341166759E+03 -0.38080982435E+03  0.10317425002E+02  0.43185515869E+03  0.00000000000E+00 0.  1.
<mgrwt>
<rscale>  0 0.11147649E+04</rscale>
<asrwt>0</asrwt>
<pdfrwt beam="1">  1        2 0.96876514E-01 0.11147649E+04</pdfrwt>
<pdfrwt beam="2">  1       -1 0.75903431E-01 0.11147649E+04</pdfrwt>
<totfact> 0.92448135E+01</totfact>
</mgrwt>
</event>
<event>
12    7  0.1661464E-007  0.1707308E+04  0.7818608E-02  0.8757208E-01
         -1   -1    0    0    0  501 -0.00000000000E+00  0.00000000000E+00  0.28497043060E+03  0.28497043060E+03  0.00000000000E+00 0.  1.
          2   -1    0    0  501    0  0.00000000000E+00 -0.00000000000E+00 -0.25571942947E+04  0.25571942947E+04  0.00000000000E+00 0. -1.
         24    2    1    2    0    0  0.33223697457E+03  0.20116639982E+03 -0.23254206890E+02  0.39770354354E+03  0.82328747842E+02 0.  0.
        254    2    1    2    0    0 -0.33223697457E+03 -0.20116639982E+03 -0.22489696573E+04  0.24444611818E+04  0.87560072085E+03 0.  0.
         23    2    4    4    0    0 -0.34212647934E+03 -0.39801482110E+03 -0.69797434997E+03  0.87823819385E+03  0.93101053939E+02 0.  0.
         23    2    4    4    0    0  0.98895047678E+01  0.19684842128E+03 -0.15509953073E+04  0.15662229879E+04  0.92848809786E+02 0.  0.
          4    1    3    3  502    0  0.20172213066E+02  0.57116084156E+01  0.17399337424E+02  0.27244771856E+02  0.00000000000E+00 0. -1.
         -3    1    3    3    0  502  0.31206476150E+03  0.19545479140E+03 -0.40653544314E+02  0.37045877169E+03  0.00000000000E+00 0.  1.
         13    1    5    5    0    0 -0.11531189209E+03 -0.18953312164E+03 -0.24610047289E+03  0.33133831564E+03  0.00000000000E+00 0. -1.
        -13    1    5    5    0    0 -0.22681458725E+03 -0.20848169946E+03 -0.45187387708E+03  0.54689987821E+03  0.00000000000E+00 0.  1.
          2    1    6    6  503    0 -0.32043235308E+02  0.60019027555E+02 -0.33529895124E+03  0.34213219565E+03  0.00000000000E+00 0. -1.
         -2    1    6    6    0  503  0.41932740076E+02  0.13682939372E+03 -0.12156963560E+04  0.12240907923E+04  0.00000000000E+00 0.  1.
<mgrwt>
<rscale>  0 0.17073075E+04</rscale>
<asrwt>0</asrwt>
<pdfrwt beam="1">  1        2 0.39341450E+00 0.17073075E+04</pdfrwt>
<pdfrwt beam="2">  1       -1 0.43841606E-01 0.17073075E+04</pdfrwt>
<totfact> 0.17985546E+01</totfact>
</mgrwt>
</event>
<event>
12    7  0.1661464E-007  0.2425829E+04  0.7818608E-02  0.8429896E-01
          2   -1    0    0  501    0  0.00000000000E+00  0.00000000000E+00  0.18145690773E+04  0.18145690773E+04  0.00000000000E+00 0. -1.
         -1   -1    0    0    0  501 -0.00000000000E+00 -0.00000000000E+00 -0.81074998612E+03  0.81074998612E+03  0.00000000000E+00 0.  1.
         24    2    1    2    0    0 -0.96521420453E+03  0.14500332757E+03  0.83364823098E+03  0.12861495726E+04  0.80913067292E+02 0.  0.
        254    2    1    2    0    0  0.96521420453E+03 -0.14500332757E+03  0.17017086022E+03  0.13391694908E+04  0.90097301729E+03 0.  0.
         23    2    4    4    0    0  0.11355806109E+03  0.31276754437E+03  0.12546845527E+03  0.36709561757E+03  0.91092750131E+02 0.  0.
         23    2    4    4    0    0  0.85165614344E+03 -0.45777087194E+03  0.44702404947E+02  0.97207387326E+03  0.89760527030E+02 0.  0.
          2    1    3    3  502    0 -0.29891420858E+03  0.51961781876E+02  0.30848506849E+03  0.43268090824E+03  0.00000000000E+00 0. -1.
         -1    1    3    3    0  502 -0.66629999594E+03  0.93041545698E+02  0.52516316249E+03  0.85346866437E+03  0.00000000000E+00 0.  1.
         13    1    5    5    0    0  0.50007628216E+02  0.67896879311E+02  0.66345074295E+02  0.10729593647E+03  0.00000000000E+00 0.  1.
        -13    1    5    5    0    0  0.63550432874E+02  0.24487066506E+03  0.59123380976E+02  0.25979968110E+03  0.00000000000E+00 0. -1.
          3    1    6    6  503    0  0.17980102914E+03 -0.13664618048E+03  0.24340230499E+02  0.22714100365E+03  0.00000000000E+00 0. -1.
         -3    1    6    6    0  503  0.67185511429E+03 -0.32112469146E+03  0.20362174448E+02  0.74493286960E+03  0.00000000000E+00 0.  1.
<mgrwt>
<rscale>  0 0.24258292E+04</rscale>
<asrwt>0</asrwt>
<pdfrwt beam="1">  1        2 0.27916447E+00 0.24258292E+04</pdfrwt>
<pdfrwt beam="2">  1       -1 0.12473077E+00 0.24258292E+04</pdfrwt>
<totfact> 0.48674796E+00</totfact>
</mgrwt>
</event>
<event>
12    7  0.1661464E-007  0.1640335E+04  0.7818608E-02  0.8796145E-01
         -1   -1    0    0    0  501 -0.00000000000E+00  0.00000000000E+00  0.31333165038E+03  0.31333165038E+03  0.00000000000E+00 0.  1.
          2   -1    0    0  501    0  0.00000000000E+00 -0.00000000000E+00 -0.21468459211E+04  0.21468459211E+04  0.00000000000E+00 0. -1.
         24    2    1    2    0    0  0.47272548076E+03  0.12163983899E+03 -0.21310624436E+03  0.53817099029E+03  0.77124009326E+02 0.  0.
        254    2    1    2    0    0 -0.47272548076E+03 -0.12163983899E+03 -0.16204080264E+04  0.19220065812E+04  0.91111003487E+03 0.  0.
         23    2    4    4    0    0  0.21620791278E+03 -0.23209169964E+03 -0.53856918232E+03  0.63145827661E+03  0.89835251241E+02 0.  0.
         23    2    4    4    0    0 -0.68893339354E+03  0.11045186066E+03 -0.10818388440E+04  0.12905483046E+04  0.91163631463E+02 0.  0.
          4    1    3    3  502    0  0.24006637298E+03  0.22337199255E+02 -0.10971222081E+03  0.26489164823E+03  0.00000000000E+00 0. -1.
         -1    1    3    3    0  502  0.23265910778E+03  0.99302639731E+02 -0.10339402354E+03  0.27327934206E+03  0.00000000000E+00 0.  1.
         13    1    5    5    0    0  0.19367953071E+03 -0.15134739511E+03 -0.39717152097E+03  0.46707923491E+03  0.00000000000E+00 0. -1.
        -13    1    5    5    0    0  0.22528382073E+02 -0.80744304532E+02 -0.14139766135E+03  0.16437904170E+03  0.00000000000E+00 0.  1.
          2    1    6    6  503    0 -0.26477421846E+03 -0.51153272474E-01 -0.38245130367E+03  0.46516060566E+03  0.00000000000E+00 0. -1.
         -2    1    6    6    0  503 -0.42415917508E+03  0.11050301393E+03 -0.69938754036E+03  0.82538769890E+03  0.00000000000E+00 0.  1.
<mgrwt>
<rscale>  0 0.16403351E+04</rscale>
<asrwt>0</asrwt>
<pdfrwt beam="1">  1        2 0.33028398E+00 0.16403351E+04</pdfrwt>
<pdfrwt beam="2">  1       -1 0.48204871E-01 0.16403351E+04</pdfrwt>
<totfact> 0.25925810E+01</totfact>
</mgrwt>
</event>
<event>
12    7  0.1661464E-007  0.2590906E+04  0.7818608E-02  0.8371297E-01
         -1   -1    0    0    0  501 -0.00000000000E+00  0.00000000000E+00  0.88443132356E+03  0.88443132356E+03  0.00000000000E+00 0.  1.
          2   -1    0    0  501    0  0.00000000000E+00 -0.00000000000E+00 -0.18974885988E+04  0.18974885988E+04  0.00000000000E+00 0. -1.
         24    2    1    2    0    0  0.83632369092E+03 -0.42234067147E+03 -0.11316247757E+04  0.14714175636E+04  0.81768297981E+02 0.  0.
        254    2    1    2    0    0 -0.83632369092E+03  0.42234067147E+03  0.11856750052E+03  0.13105023588E+04  0.90859739233E+03 0.  0.
         23    2    4    4    0    0 -0.29299034313E+03 -0.16958045616E+03  0.32297791985E+03  0.47646018158E+03  0.89992753270E+02 0.  0.
         23    2    4    4    0    0 -0.54333334779E+03  0.59192112763E+03 -0.20441041933E+03  0.83404217718E+03  0.90889964367E+02 0.  0.
          4    1    3    3  502    0  0.62830058305E+03 -0.31316235642E+03 -0.90098816960E+03  0.11421961153E+04  0.00000000000E+00 0. -1.
         -3    1    3    3    0  502  0.20802310787E+03 -0.10917831505E+03 -0.23063660613E+03  0.32922144822E+03  0.00000000000E+00 0.  1.
         13    1    5    5    0    0 -0.22933232603E+03 -0.10006811010E+03  0.19348938033E+03  0.31629904002E+03  0.00000000000E+00 0.  1.
        -13    1    5    5    0    0 -0.63658017097E+02 -0.69512346065E+02  0.12948853952E+03  0.16016114155E+03  0.00000000000E+00 0. -1.
          4    1    6    6  503    0 -0.58372291216E+02  0.30177717782E+02 -0.26781817394E+02  0.70959740524E+02  0.00000000000E+00 0. -1.
         -4    1    6    6    0  503 -0.48496105658E+03  0.56174340985E+03 -0.17762860194E+03  0.76308243666E+03  0.00000000000E+00 0.  1.
<mgrwt>
<rscale>  0 0.25909059E+04</rscale>
<asrwt>0</asrwt>
<pdfrwt beam="1">  1        2 0.29192132E+00 0.25909059E+04</pdfrwt>
<pdfrwt beam="2">  1       -1 0.13606636E+00 0.25909059E+04</pdfrwt>
<totfact> 0.34641848E+00</totfact>
</mgrwt>
</event>
<event>
12    7  0.1661464E-007  0.1211458E+04  0.7818608E-02  0.9102886E-01
          2   -1    0    0  501    0  0.00000000000E+00  0.00000000000E+00  0.51836069342E+03  0.51836069342E+03  0.00000000000E+00 0. -1.
         -1   -1    0    0    0  501 -0.00000000000E+00 -0.00000000000E+00 -0.70782349962E+03  0.70782349962E+03  0.00000000000E+00 0.  1.
         24    2    1    2    0    0 -0.11175000107E+03 -0.35224755566E+02 -0.25008987673E+03  0.28758210965E+03  0.80185268003E+02 0.  0.
        254    2    1    2    0    0  0.11175000107E+03  0.35224755566E+02  0.60627070534E+02  0.93860208339E+03  0.92928433922E+03 0.  0.
         23    2    4    4    0    0  0.24037746222E+03 -0.22047442635E+03 -0.31136474347E+03  0.46010469960E+03  0.91422284439E+02 0.  0.
         23    2    4    4    0    0 -0.12862746116E+03  0.25569918192E+03  0.37199181401E+03  0.47849738379E+03  0.93030861594E+02 0.  0.
          4    1    3    3  502    0 -0.65501003067E+01 -0.32779661716E+02 -0.36601709322E+02  0.49569094823E+02  0.00000000000E+00 0. -1.
         -3    1    3    3    0  502 -0.10519990076E+03 -0.24450938500E+01 -0.21348816741E+03  0.23801301483E+03  0.00000000000E+00 0.  1.
         13    1    5    5    0    0  0.92732110624E+02 -0.14592442273E+03 -0.17097083901E+03  0.24315470236E+03  0.00000000000E+00 0. -1.
        -13    1    5    5    0    0  0.14764535160E+03 -0.74550003623E+02 -0.14039390447E+03  0.21694999723E+03  0.00000000000E+00 0.  1.
          3    1    6    6  503    0 -0.37924236620E+02  0.13709242737E+03  0.24111248417E+03  0.27994251444E+03  0.00000000000E+00 0. -1.
         -3    1    6    6    0  503 -0.90703224538E+02  0.11860675455E+03  0.13087932983E+03  0.19855486935E+03  0.00000000000E+00 0.  1.
<mgrwt>
<rscale>  0 0.12114584E+04</rscale>
<asrwt>0</asrwt>
<pdfrwt beam="1">  1        2 0.79747799E-01 0.12114584E+04</pdfrwt>
<pdfrwt beam="2">  1       -1 0.10889592E+00 0.12114584E+04</pdfrwt>
<totfact> 0.52051478E+01</totfact>
</mgrwt>
</event>
<event>
12    7  0.1661464E-007  0.3789820E+04  0.7818608E-02  0.8048343E-01
          2   -1    0    0  501    0  0.00000000000E+00  0.00000000000E+00  0.31814986709E+04  0.31814986709E+04  0.00000000000E+00 0. -1.
         -1   -1    0    0    0  501 -0.00000000000E+00 -0.00000000000E+00 -0.11286139428E+04  0.11286139428E+04  0.00000000000E+00 0.  1.
         24    2    1    2    0    0  0.12974700843E+04 -0.97486816171E+03  0.18290762415E+04  0.24465461418E+04  0.79193270781E+02 0.  0.
        254    2    1    2    0    0 -0.12974700843E+04  0.97486816171E+03  0.22380848666E+03  0.18635664719E+04  0.88825289425E+03 0.  0.
         23    2    4    4    0    0  0.39979043295E+02  0.31714918810E+03  0.15992893913E+03  0.36907253109E+03  0.91952902147E+02 0.  0.
         23    2    4    4    0    0 -0.13374491276E+04  0.65771897361E+03  0.63879547527E+02  0.14944939408E+04  0.89817177679E+02 0.  0.
          2    1    3    3  502    0  0.12288260406E+04 -0.93693042872E+03  0.17199476602E+04  0.23121574384E+04  0.00000000000E+00 0. -1.
         -1    1    3    3    0  502  0.68644043717E+02 -0.37937732994E+02  0.10912858137E+03  0.13438870337E+03  0.00000000000E+00 0.  1.
         13    1    5    5    0    0  0.26571930802E+02  0.30149743587E+03  0.16889120654E+03  0.34659920800E+03  0.00000000000E+00 0. -1.
        -13    1    5    5    0    0  0.13407112493E+02  0.15651752232E+02 -0.89622674047E+01  0.22473323082E+02  0.00000000000E+00 0.  1.
          3    1    6    6  503    0 -0.12812639875E+04  0.61706372621E+03  0.75772812063E+02  0.14241301089E+04  0.00000000000E+00 0. -1.
         -3    1    6    6    0  503 -0.56185140064E+02  0.40655247401E+02 -0.11893264536E+02  0.70363831949E+02  0.00000000000E+00 0.  1.
<mgrwt>
<rscale>  0 0.37898199E+04</rscale>
<asrwt>0</asrwt>
<pdfrwt beam="1">  1        2 0.48946133E+00 0.37898199E+04</pdfrwt>
<pdfrwt beam="2">  1       -1 0.17363292E+00 0.37898199E+04</pdfrwt>
<totfact> 0.28085282E-01</totfact>
</mgrwt>
</event>
<event>
12    7  0.1661464E-007  0.1619834E+04  0.7818608E-02  0.8808455E-01
          2   -1    0    0  501    0  0.00000000000E+00  0.00000000000E+00  0.20646513851E+04  0.20646513851E+04  0.00000000000E+00 0. -1.
         -1   -1    0    0    0  501 -0.00000000000E+00 -0.00000000000E+00 -0.31771261053E+03  0.31771261053E+03  0.00000000000E+00 0.  1.
         24    2    1    2    0    0  0.61268832867E+02  0.28396722110E+03  0.13495523347E+04  0.13827535116E+04  0.79526833547E+02 0.  0.
        254    2    1    2    0    0 -0.61268832867E+02 -0.28396722110E+03  0.39738643980E+03  0.99961048395E+03  0.87000797959E+03 0.  0.
         23    2    4    4    0    0  0.26278017922E+03 -0.19908627932E+03  0.52818077782E+03  0.62784943083E+03  0.80815868116E+02 0.  0.
         23    2    4    4    0    0 -0.32404901209E+03 -0.84880941785E+02 -0.13079433802E+03  0.37176105311E+03  0.94268686435E+02 0.  0.
          4    1    3    3  502    0  0.52356150036E+02  0.74282864882E+02  0.37436241464E+03  0.38523541887E+03  0.00000000000E+00 0. -1.
         -3    1    3    3    0  502  0.89126828312E+01  0.20968435622E+03  0.97518992010E+03  0.99751809278E+03  0.00000000000E+00 0.  1.
         13    1    5    5    0    0  0.20842139297E+02  0.58728861051E+01  0.44660193691E+02  0.49632836532E+02  0.00000000000E+00 0. -1.
        -13    1    5    5    0    0  0.24193803992E+03 -0.20495916542E+03  0.48352058413E+03  0.57821659430E+03  0.00000000000E+00 0.  1.
          1    1    6    6  503    0 -0.19283029808E+03 -0.94288450722E+02 -0.62651184404E+02  0.22360457666E+03  0.00000000000E+00 0. -1.
         -1    1    6    6    0  503 -0.13121871401E+03  0.94075089372E+01 -0.68143153617E+02  0.14815647645E+03  0.00000000000E+00 0.  1.
<mgrwt>
<rscale>  0 0.16198343E+04</rscale>
<asrwt>0</asrwt>
<pdfrwt beam="1">  1        2 0.31763867E+00 0.16198343E+04</pdfrwt>
<pdfrwt beam="2">  1       -1 0.48878864E-01 0.16198343E+04</pdfrwt>
<totfact> 0.28113620E+01</totfact>
</mgrwt>
</event>
<event>
12    7  0.1661464E-007  0.2289799E+04  0.7818608E-02  0.8481954E-01
         -1   -1    0    0    0  501 -0.00000000000E+00  0.00000000000E+00  0.19359569521E+04  0.19359569521E+04  0.00000000000E+00 0.  1.
          2   -1    0    0  501    0  0.00000000000E+00 -0.00000000000E+00 -0.67707830043E+03  0.67707830043E+03  0.00000000000E+00 0. -1.
         24    2    1    2    0    0 -0.64888295566E+03  0.18881424669E+03  0.13206460809E+04  0.14858453339E+04  0.83248876526E+02 0.  0.
        254    2    1    2    0    0  0.64888295566E+03 -0.18881424669E+03 -0.61767429218E+02  0.11271899186E+04  0.90002332604E+03 0.  0.
         23    2    4    4    0    0  0.69542070298E+03  0.71672183623E+02 -0.29385614657E+03  0.76330150130E+03  0.86780706241E+02 0.  0.
         23    2    4    4    0    0 -0.46537747319E+02 -0.26048643031E+03  0.23208871736E+03  0.36388841731E+03  0.92361600409E+02 0.  0.
          2    1    3    3  502    0 -0.26942574920E+03  0.11314759833E+03  0.51591275946E+03  0.59292376298E+03  0.00000000000E+00 0. -1.
         -1    1    3    3    0  502 -0.37945720646E+03  0.75666648360E+02  0.80473332140E+03  0.89292157090E+03  0.00000000000E+00 0.  1.
         13    1    5    5    0    0  0.25101192171E+02 -0.10375369240E+02 -0.23346043651E+02  0.35815581657E+02  0.00000000000E+00 0.  1.
        -13    1    5    5    0    0  0.67031951080E+03  0.82047552862E+02 -0.27051010292E+03  0.72748591964E+03  0.00000000000E+00 0. -1.
          1    1    6    6  503    0 -0.29618920519E+02 -0.25603927778E+03  0.23140154219E+03  0.34638138799E+03  0.00000000000E+00 0. -1.
         -1    1    6    6    0  503 -0.16918826800E+02 -0.44471525311E+01  0.68717516144E+00  0.17507029320E+02  0.00000000000E+00 0.  1.
<mgrwt>
<rscale>  0 0.22897986E+04</rscale>
<asrwt>0</asrwt>
<pdfrwt beam="1">  1        2 0.10416589E+00 0.22897986E+04</pdfrwt>
<pdfrwt beam="2">  1       -1 0.29783953E+00 0.22897986E+04</pdfrwt>
<totfact> 0.15095174E+00</totfact>
</mgrwt>
</event>
<event>
12    7  0.1661464E-007  0.2316363E+04  0.7818608E-02  0.8471497E-01
          2   -1    0    0  501    0  0.00000000000E+00  0.00000000000E+00  0.20400654574E+04  0.20400654574E+04  0.00000000000E+00 0. -1.
         -1   -1    0    0    0  501 -0.00000000000E+00 -0.00000000000E+00 -0.65752042820E+03  0.65752042820E+03  0.00000000000E+00 0.  1.
         24    2    1    2    0    0 -0.51219365884E+03  0.38287939834E+03  0.14585650374E+04  0.15946453462E+04  0.80887786866E+02 0.  0.
        254    2    1    2    0    0  0.51219365884E+03 -0.38287939834E+03 -0.76020008137E+02  0.11029405394E+04  0.89541041657E+03 0.  0.
         23    2    4    4    0    0  0.83186347230E+02 -0.48619743848E+03 -0.31471038011E+03  0.59228904599E+03  0.91955277729E+02 0.  0.
         23    2    4    4    0    0  0.42900731161E+03  0.10331804014E+03  0.23869037197E+03  0.51065149346E+03  0.95236354738E+02 0.  0.
          2    1    3    3  502    0 -0.32803114431E+03  0.19670737792E+03  0.84527405597E+03  0.92778578015E+03  0.00000000000E+00 0. -1.
         -1    1    3    3    0  502 -0.18416251453E+03  0.18617202042E+03  0.61329098139E+03  0.66685956603E+03  0.00000000000E+00 0.  1.
         13    1    5    5    0    0  0.28384681743E+02 -0.22183516404E+03 -0.19593965035E+03  0.29733630243E+03  0.00000000000E+00 0. -1.
        -13    1    5    5    0    0  0.54801665487E+02 -0.26436227444E+03 -0.11877072975E+03  0.29495274356E+03  0.00000000000E+00 0.  1.
          4    1    6    6  503    0  0.55086153261E+01  0.16661014438E+02  0.18608969641E+02  0.25577880992E+02  0.00000000000E+00 0.  1.
         -4    1    6    6    0  503  0.42349869628E+03  0.86657025706E+02  0.22008140233E+03  0.48507361247E+03  0.00000000000E+00 0. -1.
<mgrwt>
<rscale>  0 0.23163633E+04</rscale>
<asrwt>0</asrwt>
<pdfrwt beam="1">  1        2 0.31385622E+00 0.23163633E+04</pdfrwt>
<pdfrwt beam="2">  1       -1 0.10115699E+00 0.23163633E+04</pdfrwt>
<totfact> 0.60696405E+00</totfact>
</mgrwt>
</event>
<event>
12    7  0.1661464E-007  0.1819264E+04  0.7818608E-02  0.8696121E-01
          2   -1    0    0  501    0  0.00000000000E+00  0.00000000000E+00  0.11784978495E+04  0.11784978495E+04  0.00000000000E+00 0. -1.
         -1   -1    0    0    0  501 -0.00000000000E+00 -0.00000000000E+00 -0.70210625816E+03  0.70210625816E+03  0.00000000000E+00 0.  1.
         24    2    1    2    0    0 -0.75051591495E+02 -0.26942320897E+03  0.82710158078E+03  0.87682032641E+03  0.80593132180E+02 0.  0.
        254    2    1    2    0    0  0.75051591495E+02  0.26942320897E+03 -0.35070998945E+03  0.10037837812E+04  0.89797704640E+03 0.  0.
         23    2    4    4    0    0 -0.26431720986E+03  0.16028697407E+03 -0.50957921534E+03  0.60278101241E+03  0.90102556728E+02 0.  0.
         23    2    4    4    0    0  0.33936880135E+03  0.10913623490E+03  0.15886922589E+03  0.40100276883E+03  0.92097169188E+02 0.  0.
          4    1    3    3  502    0 -0.52438640896E+02 -0.15873765841E+03  0.60452879662E+03  0.62721808105E+03  0.00000000000E+00 0. -1.
         -3    1    3    3    0  502 -0.22612950599E+02 -0.11068555056E+03  0.22257278416E+03  0.24960224536E+03  0.00000000000E+00 0.  1.
         13    1    5    5    0    0 -0.11366177892E+03  0.11395672440E+03 -0.21361956413E+03  0.26746673289E+03  0.00000000000E+00 0. -1.
        -13    1    5    5    0    0 -0.15065543094E+03  0.46330249674E+02 -0.29595965121E+03  0.33531427952E+03  0.00000000000E+00 0.  1.
          2    1    6    6  503    0 -0.56491595310E+01  0.29710535110E+00  0.60199173683E+01  0.82607917367E+01  0.00000000000E+00 0. -1.
         -2    1    6    6    0  503  0.34501796089E+03  0.10883912955E+03  0.15284930852E+03  0.39274197709E+03  0.00000000000E+00 0.  1.
<mgrwt>
<rscale>  0 0.18192644E+04</rscale>
<asrwt>0</asrwt>
<pdfrwt beam="1">  1        2 0.18130736E+00 0.18192644E+04</pdfrwt>
<pdfrwt beam="2">  1       -1 0.10801635E+00 0.18192644E+04</pdfrwt>
<totfact> 0.16711085E+01</totfact>
</mgrwt>
</event>
<event>
12    7  0.1661464E-007  0.2119846E+04  0.7818608E-02  0.8552551E-01
         -1   -1    0    0    0  501 -0.00000000000E+00  0.00000000000E+00  0.46626061264E+03  0.46626061264E+03  0.00000000000E+00 0.  1.
          2   -1    0    0  501    0  0.00000000000E+00 -0.00000000000E+00 -0.24094602889E+04  0.24094602889E+04  0.00000000000E+00 0. -1.
         24    2    1    2    0    0  0.55515461783E+03 -0.16275054181E+03  0.76098810629E+02  0.58900575688E+03  0.80326608915E+02 0.  0.
        254    2    1    2    0    0 -0.55515461783E+03  0.16275054181E+03 -0.20192984869E+04  0.22867151446E+04  0.90377839383E+03 0.  0.
         23    2    4    4    0    0  0.73066755787E+01 -0.71782394774E+02  0.50735361174E+02  0.12702389652E+03  0.91405107655E+02 0.  0.
         23    2    4    4    0    0 -0.56246129340E+03  0.23453293659E+03 -0.20700338480E+04  0.21596912481E+04  0.88643952431E+02 0.  0.
          2    1    3    3  502    0  0.61578217252E+02 -0.41490998962E+02  0.24263425289E+02  0.78115898776E+02  0.00000000000E+00 0. -1.
         -1    1    3    3    0  502  0.49357640057E+03 -0.12125954285E+03  0.51835385340E+02  0.51088985810E+03  0.00000000000E+00 0.  1.
         13    1    5    5    0    0 -0.27698695191E+02 -0.74055476285E+02  0.46406387578E+02  0.91678700314E+02  0.00000000000E+00 0. -1.
        -13    1    5    5    0    0  0.35005370769E+02  0.22730815117E+01  0.43289735957E+01  0.35345196203E+02  0.00000000000E+00 0.  1.
          1    1    6    6  503    0 -0.30358558247E+03  0.11465047621E+03 -0.95006901731E+03  0.10039621882E+04  0.00000000000E+00 0. -1.
         -1    1    6    6    0  503 -0.25887571093E+03  0.11988246038E+03 -0.11199648307E+04  0.11557290600E+04  0.00000000000E+00 0.  1.
<mgrwt>
<rscale>  0 0.21198457E+04</rscale>
<asrwt>0</asrwt>
<pdfrwt beam="1">  1        2 0.37068620E+00 0.21198457E+04</pdfrwt>
<pdfrwt beam="2">  1       -1 0.71732403E-01 0.21198457E+04</pdfrwt>
<totfact> 0.80661932E+00</totfact>
</mgrwt>
</event>
<event>
12    7  0.1661464E-007  0.1141993E+04  0.7818608E-02  0.9165202E-01
         -1   -1    0    0    0  501 -0.00000000000E+00  0.00000000000E+00  0.28824858418E+03  0.28824858418E+03  0.00000000000E+00 0.  1.
          2   -1    0    0  501    0  0.00000000000E+00 -0.00000000000E+00 -0.11310964625E+04  0.11310964625E+04  0.00000000000E+00 0. -1.
         24    2    1    2    0    0 -0.21697992036E+03  0.60198856516E+02 -0.19585867982E+03  0.30991190371E+03  0.83549850004E+02 0.  0.
        254    2    1    2    0    0  0.21697992036E+03 -0.60198856516E+02 -0.64698919851E+03  0.11094331430E+04  0.87266413219E+03 0.  0.
         23    2    4    4    0    0  0.43549291709E+03 -0.57735081576E+02 -0.73162297622E+03  0.85958351430E+03  0.10307384846E+03 0.  0.
         23    2    4    4    0    0 -0.21851299673E+03 -0.24637749402E+01  0.84633777715E+02  0.24984962869E+03  0.86648489294E+02 0.  0.
          4    1    3    3  502    0 -0.13048987617E+03  0.26984877920E+02 -0.61628271107E+02  0.14681224478E+03  0.00000000000E+00 0. -1.
         -3    1    3    3    0  502 -0.86490044188E+02  0.33213978596E+02 -0.13423040872E+03  0.16309965893E+03  0.00000000000E+00 0.  1.
         13    1    5    5    0    0  0.41710243364E+03 -0.58492022188E+02 -0.64018239461E+03  0.76630885104E+03  0.00000000000E+00 0. -1.
        -13    1    5    5    0    0  0.18390483444E+02  0.75694061233E+00 -0.91440581612E+02  0.93274663258E+02  0.00000000000E+00 0.  1.
          3    1    6    6  503    0 -0.16225542913E+03 -0.38469388848E+02  0.73081425595E+02  0.18206485912E+03  0.00000000000E+00 0. -1.
         -3    1    6    6    0  503 -0.56257567603E+02  0.36005613907E+02  0.11552352120E+02  0.67784769565E+02  0.00000000000E+00 0.  1.
<mgrwt>
<rscale>  0 0.11419929E+04</rscale>
<asrwt>0</asrwt>
<pdfrwt beam="1">  1        2 0.17401484E+00 0.11419929E+04</pdfrwt>
<pdfrwt beam="2">  1       -1 0.44345937E-01 0.11419929E+04</pdfrwt>
<totfact> 0.11841632E+02</totfact>
</mgrwt>
</event>
<event>
12    7  0.1661464E-007  0.2053869E+04  0.7818608E-02  0.8581841E-01
         -1   -1    0    0    0  501 -0.00000000000E+00  0.00000000000E+00  0.77895148478E+03  0.77895148478E+03  0.00000000000E+00 0.  1.
          2   -1    0    0  501    0  0.00000000000E+00 -0.00000000000E+00 -0.13538640128E+04  0.13538640128E+04  0.00000000000E+00 0. -1.
         24    2    1    2    0    0 -0.36635529761E+03  0.24407189926E+02  0.53949484976E+03  0.65720898704E+03  0.77827017928E+02 0.  0.
        254    2    1    2    0    0  0.36635529761E+03 -0.24407189926E+02 -0.11144073778E+04  0.14756065106E+04  0.89481777773E+03 0.  0.
         23    2    4    4    0    0 -0.22660780310E+03  0.10701227497E+03 -0.89077525199E+02  0.28127080895E+03  0.91519063863E+02 0.  0.
         23    2    4    4    0    0  0.59296310071E+03 -0.13141946489E+03 -0.10253298526E+04  0.11943357016E+04  0.79121090624E+02 0.  0.
          2    1    3    3  502    0 -0.13207824253E+03  0.39501158089E+02  0.23864036116E+03  0.27559794196E+03  0.00000000000E+00 0. -1.
         -1    1    3    3    0  502 -0.23427705508E+03 -0.15093968163E+02  0.30085448860E+03  0.38161104508E+03  0.00000000000E+00 0.  1.
         13    1    5    5    0    0 -0.98169706150E+02  0.82588695035E+02 -0.77820620331E+02  0.15004743484E+03  0.00000000000E+00 0.  1.
        -13    1    5    5    0    0 -0.12843809695E+03  0.24423579932E+02 -0.11256904868E+02  0.13122337411E+03  0.00000000000E+00 0. -1.
          2    1    6    6  503    0  0.47103918010E+02 -0.20718638726E+02 -0.13106608973E+03  0.14080611123E+03  0.00000000000E+00 0. -1.
         -2    1    6    6    0  503  0.54585918270E+03 -0.11070082617E+03 -0.89426376289E+03  0.10535295904E+04  0.00000000000E+00 0.  1.
<mgrwt>
<rscale>  0 0.20538689E+04</rscale>
<asrwt>0</asrwt>
<pdfrwt beam="1">  1        2 0.20828677E+00 0.20538689E+04</pdfrwt>
<pdfrwt beam="2">  1       -1 0.11983869E+00 0.20538689E+04</pdfrwt>
<totfact> 0.10073510E+01</totfact>
</mgrwt>
</event>
<event>
12    7  0.1661464E-007  0.1283583E+04  0.7818608E-02  0.9042686E-01
          2   -1    0    0  501    0  0.00000000000E+00  0.00000000000E+00  0.48786739178E+03  0.48786739178E+03  0.00000000000E+00 0. -1.
         -1   -1    0    0    0  501 -0.00000000000E+00 -0.00000000000E+00 -0.84427891544E+03  0.84427891544E+03  0.00000000000E+00 0.  1.
         24    2    1    2    0    0 -0.14982951860E+03  0.19904511836E+03 -0.29759034043E+03  0.39613810068E+03  0.79357043196E+02 0.  0.
        254    2    1    2    0    0  0.14982951860E+03 -0.19904511836E+03 -0.58821183233E+02  0.93600820654E+03  0.90032415680E+03 0.  0.
         23    2    4    4    0    0  0.16156995581E+03  0.26667920808E+03 -0.26518431336E+03  0.41832341298E+03  0.86308210224E+02 0.  0.
         23    2    4    4    0    0 -0.11740437204E+02 -0.46572432644E+03  0.20636313012E+03  0.51768479356E+03  0.91514031203E+02 0.  0.
          4    1    3    3  502    0  0.86466185199E+01  0.39412152881E+01 -0.63498944112E+01  0.11428838472E+02  0.00000000000E+00 0. -1.
         -3    1    3    3    0  502 -0.15847613712E+03  0.19510390307E+03 -0.29124044602E+03  0.38470926221E+03  0.00000000000E+00 0.  1.
         13    1    5    5    0    0  0.40093156452E+02  0.14506383552E+03 -0.14132772481E+03  0.20645702548E+03  0.00000000000E+00 0. -1.
        -13    1    5    5    0    0  0.12147679935E+03  0.12161537256E+03 -0.12385658855E+03  0.21186638750E+03  0.00000000000E+00 0.  1.
          1    1    6    6  503    0  0.21377426682E+02 -0.40296084197E+03  0.18178983777E+03  0.44258556195E+03  0.00000000000E+00 0. -1.
         -1    1    6    6    0  503 -0.33117863886E+02 -0.62763484470E+02  0.24573292357E+02  0.75099231611E+02  0.00000000000E+00 0.  1.
<mgrwt>
<rscale>  0 0.12835827E+04</rscale>
<asrwt>0</asrwt>
<pdfrwt beam="1">  1        2 0.75056523E-01 0.12835827E+04</pdfrwt>
<pdfrwt beam="2">  1       -1 0.12988906E+00 0.12835827E+04</pdfrwt>
<totfact> 0.36150587E+01</totfact>
</mgrwt>
</event>
<event>
12    7  0.1661464E-007  0.1399401E+04  0.7818608E-02  0.8954252E-01
          2   -1    0    0  501    0  0.00000000000E+00  0.00000000000E+00  0.97300566803E+03  0.97300566803E+03  0.00000000000E+00 0. -1.
         -1   -1    0    0    0  501 -0.00000000000E+00 -0.00000000000E+00 -0.50316331745E+03  0.50316331745E+03  0.00000000000E+00 0.  1.
         24    2    1    2    0    0 -0.11640238074E+03 -0.30877335797E+03  0.38834720587E+03  0.51673176420E+03  0.85484869962E+02 0.  0.
        254    2    1    2    0    0  0.11640238074E+03  0.30877335797E+03  0.81495144709E+02  0.95943722128E+03  0.89721113576E+03 0.  0.
         23    2    4    4    0    0 -0.11328570938E+03 -0.18351326264E+02 -0.34018143261E+03  0.37133151640E+03  0.94832825804E+02 0.  0.
         23    2    4    4    0    0  0.22968809011E+03  0.32712468423E+03  0.42167657732E+03  0.58810570488E+03  0.91049472703E+02 0.  0.
          4    1    3    3  502    0 -0.11117796166E+03 -0.30288436632E+03  0.34376284539E+03  0.47145771008E+03  0.00000000000E+00 0. -1.
         -3    1    3    3    0  502 -0.52244190731E+01 -0.58889916510E+01  0.44584360480E+02  0.45274054123E+02  0.00000000000E+00 0.  1.
         13    1    5    5    0    0 -0.78683736320E+01 -0.19321048245E+02 -0.72143813431E+01  0.22074000704E+02  0.00000000000E+00 0. -1.
        -13    1    5    5    0    0 -0.10541733575E+03  0.96972198124E+00 -0.33296705127E+03  0.34925751569E+03  0.00000000000E+00 0.  1.
          4    1    6    6  503    0  0.74130318472E+02  0.59513649187E+02  0.14230864067E+03  0.17114008229E+03  0.00000000000E+00 0. -1.
         -4    1    6    6    0  503  0.15555777164E+03  0.26761103504E+03  0.27936793665E+03  0.41696562259E+03  0.00000000000E+00 0.  1.
<mgrwt>
<rscale>  0 0.13994010E+04</rscale>
<asrwt>0</asrwt>
<pdfrwt beam="1">  1        2 0.14969318E+00 0.13994010E+04</pdfrwt>
<pdfrwt beam="2">  1       -1 0.77409741E-01 0.13994010E+04</pdfrwt>
<totfact> 0.48729352E+01</totfact>
</mgrwt>
</event>
<event>
12    7  0.1661464E-007  0.2636324E+04  0.7818608E-02  0.8355967E-01
         -1   -1    0    0    0  501 -0.00000000000E+00  0.00000000000E+00  0.16813891660E+04  0.16813891660E+04  0.00000000000E+00 0.  1.
          2   -1    0    0  501    0  0.00000000000E+00 -0.00000000000E+00 -0.10334018492E+04  0.10334018492E+04  0.00000000000E+00 0. -1.
         24    2    1    2    0    0  0.99440983806E+03  0.17617106636E+03  0.88005569699E+03  0.13418877440E+04  0.79230784237E+02 0.  0.
        254    2    1    2    0    0 -0.99440983806E+03 -0.17617106636E+03 -0.23206838023E+03  0.13729032712E+04  0.90062227832E+03 0.  0.
         23    2    4    4    0    0 -0.42759581063E+03  0.22540623064E+03 -0.42003753189E+03  0.64783214939E+03  0.98024586224E+02 0.  0.
         23    2    4    4    0    0 -0.56681402743E+03 -0.40157729699E+03  0.18796915166E+03  0.72507112177E+03  0.88618635155E+02 0.  0.
          2    1    3    3  502    0  0.92867301908E+03  0.17824955165E+03  0.80291616436E+03  0.12405163627E+04  0.00000000000E+00 0. -1.
         -1    1    3    3    0  502  0.65736818976E+02 -0.20784852943E+01  0.77139532624E+02  0.10137138138E+03  0.00000000000E+00 0.  1.
         13    1    5    5    0    0 -0.40901840644E+03  0.21084351928E+03 -0.42170504309E+03  0.62416839859E+03  0.00000000000E+00 0.  1.
        -13    1    5    5    0    0 -0.18577404198E+02  0.14562711353E+02  0.16675111922E+01  0.23663750807E+02  0.00000000000E+00 0. -1.
          1    1    6    6  503    0 -0.20181231901E+03 -0.16021288440E+03  0.28135207757E+02  0.25920642420E+03  0.00000000000E+00 0. -1.
         -1    1    6    6    0  503 -0.36500170842E+03 -0.24136441259E+03  0.15983394390E+03  0.46586469757E+03  0.00000000000E+00 0.  1.
<mgrwt>
<rscale>  0 0.26363237E+04</rscale>
<asrwt>0</asrwt>
<pdfrwt beam="1">  1        2 0.15898490E+00 0.26363237E+04</pdfrwt>
<pdfrwt beam="2">  1       -1 0.25867526E+00 0.26363237E+04</pdfrwt>
<totfact> 0.14753978E+00</totfact>
</mgrwt>
</event>
<event>
12    7  0.1661464E-007  0.1819681E+04  0.7818608E-02  0.8695903E-01
         -1   -1    0    0    0  501 -0.00000000000E+00  0.00000000000E+00  0.84070773107E+03  0.84070773107E+03  0.00000000000E+00 0.  1.
          2   -1    0    0  501    0  0.00000000000E+00 -0.00000000000E+00 -0.98465765962E+03  0.98465765962E+03  0.00000000000E+00 0. -1.
         24    2    1    2    0    0 -0.53149596409E+03 -0.13293650253E+03  0.34699152355E+03  0.65404703278E+03  0.84937212808E+02 0.  0.
        254    2    1    2    0    0  0.53149596409E+03  0.13293650253E+03 -0.49094145210E+03  0.11713183579E+04  0.91148401666E+03 0.  0.
         23    2    4    4    0    0 -0.15557615903E+03  0.91145599261E+02 -0.42836317889E+03  0.47294486649E+03  0.87580661043E+02 0.  0.
         23    2    4    4    0    0  0.68707212312E+03  0.41790903265E+02 -0.62578273211E+02  0.69837349142E+03  0.99974553111E+02 0.  0.
          2    1    3    3  502    0 -0.14021443545E+03 -0.15162003411E+02  0.12792490480E+03  0.19040681585E+03  0.00000000000E+00 0. -1.
         -1    1    3    3    0  502 -0.39128152864E+03 -0.11777449912E+03  0.21906661876E+03  0.46364021692E+03  0.00000000000E+00 0.  1.
         13    1    5    5    0    0 -0.67340228615E+02 -0.49871950974E+01 -0.18265882493E+03  0.19474040369E+03  0.00000000000E+00 0. -1.
        -13    1    5    5    0    0 -0.88235930416E+02  0.96132794359E+02 -0.24570435396E+03  0.27820446280E+03  0.00000000000E+00 0.  1.
          1    1    6    6  503    0  0.24495255794E+03  0.36792406812E+02  0.20279101327E+02  0.24852903008E+03  0.00000000000E+00 0. -1.
         -1    1    6    6    0  503  0.44211956518E+03  0.49984964533E+01 -0.82857374539E+02  0.44984446134E+03  0.00000000000E+00 0.  1.
<mgrwt>
<rscale>  0 0.18196805E+04</rscale>
<asrwt>0</asrwt>
<pdfrwt beam="1">  1        2 0.15148579E+00 0.18196805E+04</pdfrwt>
<pdfrwt beam="2">  1       -1 0.12933965E+00 0.18196805E+04</pdfrwt>
<totfact> 0.14238070E+01</totfact>
</mgrwt>
</event>
<event>
12    7  0.1661464E-007  0.1993445E+04  0.7818608E-02  0.8609691E-01
          2   -1    0    0  501    0  0.00000000000E+00  0.00000000000E+00  0.32020485558E+04  0.32020485558E+04  0.00000000000E+00 0. -1.
         -1   -1    0    0    0  501 -0.00000000000E+00 -0.00000000000E+00 -0.31025643188E+03  0.31025643188E+03  0.00000000000E+00 0.  1.
         24    2    1    2    0    0  0.53794086737E+03  0.57483272342E+02  0.14840109325E+03  0.56667255891E+03  0.80063731792E+02 0.  0.
        254    2    1    2    0    0 -0.53794086737E+03 -0.57483272342E+02  0.27433910306E+04  0.29456324287E+04  0.92621344995E+03 0.  0.
         23    2    4    4    0    0 -0.70207690982E+03 -0.21339439973E+03  0.14336126898E+04  0.16131845476E+04  0.93112206416E+02 0.  0.
         23    2    4    4    0    0  0.16413604244E+03  0.15591112739E+03  0.13097783408E+04  0.13324478812E+04  0.93000719691E+02 0.  0.
          2    1    3    3  502    0  0.17675790278E+03  0.52964413007E+02  0.67748451045E+02  0.19656662448E+03  0.00000000000E+00 0. -1.
         -1    1    3    3    0  502  0.36118296459E+03  0.45188593348E+01  0.80652642202E+02  0.37010593442E+03  0.00000000000E+00 0.  1.
         13    1    5    5    0    0 -0.12140392962E+02 -0.33455571947E+01  0.64574986016E+01  0.14152073432E+02  0.00000000000E+00 0. -1.
        -13    1    5    5    0    0 -0.68993651686E+03 -0.21004884254E+03  0.14271551912E+04  0.15990324741E+04  0.00000000000E+00 0.  1.
          2    1    6    6  503    0  0.11500860204E+03  0.82401216676E+02  0.10113335886E+04  0.10211819458E+04  0.00000000000E+00 0.  1.
         -2    1    6    6    0  503  0.49127440403E+02  0.73509910717E+02  0.29844475227E+03  0.31126593538E+03  0.00000000000E+00 0. -1.
<mgrwt>
<rscale>  0 0.19934454E+04</rscale>
<asrwt>0</asrwt>
<pdfrwt beam="1">  1        2 0.49262283E+00 0.19934454E+04</pdfrwt>
<pdfrwt beam="2">  1       -1 0.47731761E-01 0.19934454E+04</pdfrwt>
<totfact> 0.60175245E+00</totfact>
</mgrwt>
</event>
<event>
12    7  0.1661464E-007  0.1034760E+04  0.7818608E-02  0.9271221E-01
         -1   -1    0    0    0  501 -0.00000000000E+00  0.00000000000E+00  0.11635865638E+03  0.11635865638E+03  0.00000000000E+00 0.  1.
          2   -1    0    0  501    0  0.00000000000E+00 -0.00000000000E+00 -0.23004920781E+04  0.23004920781E+04  0.00000000000E+00 0. -1.
         24    2    1    2    0    0 -0.34995806570E+02  0.64318707258E+02 -0.37762213757E+03  0.39324649760E+03  0.81747945006E+02 0.  0.
        254    2    1    2    0    0  0.34995806570E+02 -0.64318707258E+02 -0.18065112841E+04  0.20236042369E+04  0.90891665468E+03 0.  0.
         23    2    4    4    0    0 -0.11324887148E+03 -0.38751708128E+03 -0.42041558404E+03  0.58968625588E+03  0.89363425959E+02 0.  0.
         23    2    4    4    0    0  0.14824467805E+03  0.32319837402E+03 -0.13860957001E+04  0.14339179810E+04  0.91792226343E+02 0.  0.
          4    1    3    3  502    0 -0.33886649135E+02  0.43217115668E+02 -0.36396845973E+03  0.36808839123E+03  0.00000000000E+00 0. -1.
         -1    1    3    3    0  502 -0.11091574349E+01  0.21101591590E+02 -0.13653677836E+02  0.25158106374E+02  0.00000000000E+00 0.  1.
         13    1    5    5    0    0 -0.74616389931E+02 -0.33648723025E+03 -0.38422458971E+03  0.51615869372E+03  0.00000000000E+00 0. -1.
        -13    1    5    5    0    0 -0.38632481552E+02 -0.51029851026E+02 -0.36190994334E+02  0.73527562162E+02  0.00000000000E+00 0.  1.
          2    1    6    6  503    0  0.11601404030E+03  0.25936395582E+03 -0.93590946941E+03  0.97808765152E+03  0.00000000000E+00 0. -1.
         -2    1    6    6    0  503  0.32230637752E+02  0.63834418198E+02 -0.45018623069E+03  0.45583032947E+03  0.00000000000E+00 0.  1.
<mgrwt>
<rscale>  0 0.10347602E+04</rscale>
<asrwt>0</asrwt>
<pdfrwt beam="1">  1        2 0.35392184E+00 0.10347602E+04</pdfrwt>
<pdfrwt beam="2">  1       -1 0.17901333E-01 0.10347602E+04</pdfrwt>
<totfact> 0.12748530E+02</totfact>
</mgrwt>
</event>
<event>
12    7  0.1661464E-007  0.1949498E+04  0.7818608E-02  0.8630603E-01
          2   -1    0    0  501    0  0.00000000000E+00  0.00000000000E+00  0.18885445862E+04  0.18885445862E+04  0.00000000000E+00 0. -1.
         -1   -1    0    0    0  501 -0.00000000000E+00 -0.00000000000E+00 -0.50310483200E+03  0.50310483200E+03  0.00000000000E+00 0.  1.
         24    2    1    2    0    0 -0.22840469829E+03  0.71955132382E+03  0.62415922957E+03  0.98276721742E+03  0.79585463289E+02 0.  0.
        254    2    1    2    0    0  0.22840469829E+03 -0.71955132382E+03  0.76128052467E+03  0.14088822008E+04  0.91404496867E+03 0.  0.
         23    2    4    4    0    0  0.27347126300E+03 -0.89540999890E+03  0.47001664140E+03  0.10514652773E+04  0.90099879940E+02 0.  0.
         23    2    4    4    0    0 -0.45066564708E+02  0.17585867508E+03  0.29126388327E+03  0.35741692352E+03  0.99774438949E+02 0.  0.
          2    1    3    3  502    0 -0.11109865387E+03  0.40729553740E+03  0.39432576390E+03  0.57768968638E+03  0.00000000000E+00 0. -1.
         -1    1    3    3    0  502 -0.11730604442E+03  0.31225578642E+03  0.22983346567E+03  0.40507753104E+03  0.00000000000E+00 0.  1.
         13    1    5    5    0    0  0.14490568739E+02 -0.10087574234E+03  0.26100601937E+02  0.10520044389E+03  0.00000000000E+00 0. -1.
        -13    1    5    5    0    0  0.25898069426E+03 -0.79453425657E+03  0.44391603946E+03  0.94626483341E+03  0.00000000000E+00 0.  1.
          3    1    6    6  503    0  0.16314315692E+02  0.32267319777E+02  0.13176396235E+02  0.38483168267E+02  0.00000000000E+00 0. -1.
         -3    1    6    6    0  503 -0.61380880400E+02  0.14359135530E+03  0.27808748703E+03  0.31893375525E+03  0.00000000000E+00 0.  1.
<mgrwt>
<rscale>  0 0.19494983E+04</rscale>
<asrwt>0</asrwt>
<pdfrwt beam="1">  1        2 0.29054532E+00 0.19494983E+04</pdfrwt>
<pdfrwt beam="2">  1       -1 0.77400744E-01 0.19494983E+04</pdfrwt>
<totfact> 0.13694964E+01</totfact>
</mgrwt>
</event>
<event>
12    7  0.1661464E-007  0.2145505E+04  0.7818608E-02  0.8541459E-01
         -1   -1    0    0    0  501 -0.00000000000E+00  0.00000000000E+00  0.25355771756E+03  0.25355771756E+03  0.00000000000E+00 0.  1.
          2   -1    0    0  501    0  0.00000000000E+00 -0.00000000000E+00 -0.45386047263E+04  0.45386047263E+04  0.00000000000E+00 0. -1.
         24    2    1    2    0    0 -0.41631097248E+03  0.19350583660E+03 -0.86032176789E+02  0.47380354315E+03  0.79554556498E+02 0.  0.
        254    2    1    2    0    0  0.41631097248E+03 -0.19350583660E+03 -0.41990148319E+04  0.43183589007E+04  0.89762949023E+03 0.  0.
         23    2    4    4    0    0  0.33406510148E+03 -0.77295945443E+02 -0.41197851095E+04  0.41349877642E+04  0.88996105696E+02 0.  0.
         23    2    4    4    0    0  0.82245871000E+02 -0.11620989115E+03 -0.79229722455E+02  0.18337113646E+03  0.84133837823E+02 0.  0.
          4    1    3    3  502    0 -0.23563769264E+03  0.13395897675E+03 -0.17557334056E+02  0.27162177678E+03  0.00000000000E+00 0. -1.
         -3    1    3    3    0  502 -0.18067327984E+03  0.59546859849E+02 -0.68474842733E+02  0.20218176637E+03  0.00000000000E+00 0.  1.
         13    1    5    5    0    0  0.26771177988E+03 -0.44633338565E+02 -0.27971056497E+04  0.28102422934E+04  0.00000000000E+00 0. -1.
        -13    1    5    5    0    0  0.66353321598E+02 -0.32662606878E+02 -0.13226794598E+04  0.13247454709E+04  0.00000000000E+00 0.  1.
          4    1    6    6  503    0 -0.36379544442E+01 -0.60660475566E+02 -0.14999343109E+02  0.62593196932E+02  0.00000000000E+00 0. -1.
         -4    1    6    6    0  503  0.85883825444E+02 -0.55549415586E+02 -0.64230379346E+02  0.12077793952E+03  0.00000000000E+00 0.  1.
<mgrwt>
<rscale>  0 0.21455053E+04</rscale>
<asrwt>0</asrwt>
<pdfrwt beam="1">  1        2 0.69824681E+00 0.21455053E+04</pdfrwt>
<pdfrwt beam="2">  1       -1 0.39008883E-01 0.21455053E+04</pdfrwt>
<totfact> 0.76121674E-01</totfact>
</mgrwt>
</event>
<event>
12    7  0.1826225E-007  0.1793293E+04  0.7818608E-02  0.8709874E-01
          2   -1    0    0  501    0  0.00000000000E+00  0.00000000000E+00  0.21205433517E+04  0.21205433517E+04  0.00000000000E+00 0. -1.
         -1   -1    0    0    0  501 -0.00000000000E+00 -0.00000000000E+00 -0.37913617542E+03  0.37913617542E+03  0.00000000000E+00 0.  1.
         24    2    1    2    0    0  0.34380792782E+03  0.52997092688E+02 -0.14373992994E+03  0.38427835416E+03  0.77434507521E+02 0.  0.
        254    2    1    2    0    0 -0.34380792782E+03 -0.52997092688E+02  0.18851471063E+04  0.21154011730E+04  0.89449981971E+03 0.  0.
         23    2    4    4    0    0 -0.35828733030E+03  0.28589267189E+03  0.49298372542E+03  0.67956857176E+03  0.93145366521E+02 0.  0.
         23    2    4    4    0    0  0.14479402482E+02 -0.33888976458E+03  0.13921633808E+04  0.14358326012E+04  0.91871944660E+02 0.  0.
          4    1    3    3  502    0  0.24293853233E+02  0.13811579869E+02 -0.34371972404E+02  0.44298798295E+02  0.00000000000E+00 0. -1.
         -3    1    3    3    0  502  0.31951407458E+03  0.39185512818E+02 -0.10936795753E+03  0.33997955587E+03  0.00000000000E+00 0.  1.
         13    1    5    5    0    0  0.10516776851E+01 -0.51628598329E+01  0.46048503306E+01  0.69975563003E+01  0.00000000000E+00 0. -1.
        -13    1    5    5    0    0 -0.35933900798E+03  0.29105553172E+03  0.48837887509E+03  0.67257101546E+03  0.00000000000E+00 0.  1.
          3    1    6    6  503    0 -0.15999306991E+02 -0.14831026940E+02  0.46487368036E+02  0.51351850709E+02  0.00000000000E+00 0. -1.
         -3    1    6    6    0  503  0.30478709473E+02 -0.32405873764E+03  0.13456760128E+04  0.13844807505E+04  0.00000000000E+00 0.  1.
<mgrwt>
<rscale>  0 0.17932927E+04</rscale>
<asrwt>0</asrwt>
<pdfrwt beam="1">  1        2 0.32623743E+00 0.17932927E+04</pdfrwt>
<pdfrwt beam="2">  1       -1 0.58328644E-01 0.17932927E+04</pdfrwt>
<totfact> 0.18335181E+01</totfact>
</mgrwt>
</event>
<event>
12    7  0.1661464E-007  0.1504404E+04  0.7818608E-02  0.8881530E-01
         -1   -1    0    0    0  501 -0.00000000000E+00  0.00000000000E+00  0.28467245854E+03  0.28467245854E+03  0.00000000000E+00 0.  1.
          2   -1    0    0  501    0  0.00000000000E+00 -0.00000000000E+00 -0.19875745070E+04  0.19875745070E+04  0.00000000000E+00 0. -1.
         24    2    1    2    0    0  0.25903775623E+03 -0.37279233870E+03 -0.30332810389E+03  0.55103824837E+03  0.74568931891E+02 0.  0.
        254    2    1    2    0    0 -0.25903775623E+03  0.37279233870E+03 -0.13995739446E+04  0.17212087172E+04  0.89312794984E+03 0.  0.
         23    2    4    4    0    0 -0.25857885105E+03  0.50784933791E+03 -0.38559110956E+03  0.69408685050E+03  0.91115750735E+02 0.  0.
         23    2    4    4    0    0 -0.45890518109E+00 -0.13505699921E+03 -0.10139828350E+04  0.10271218667E+04  0.92614986203E+02 0.  0.
          4    1    3    3  502    0  0.45398004243E+02 -0.34994079956E+02 -0.18445033870E+02  0.60214480781E+02  0.00000000000E+00 0. -1.
         -1    1    3    3    0  502  0.21363975199E+03 -0.33779825875E+03 -0.28488307002E+03  0.49082376759E+03  0.00000000000E+00 0.  1.
         13    1    5    5    0    0 -0.67978384778E+01  0.25105978623E+01  0.38552212076E+01  0.82083153056E+01  0.00000000000E+00 0.  1.
        -13    1    5    5    0    0 -0.25178101257E+03  0.50533874005E+03 -0.38944633077E+03  0.68587853519E+03  0.00000000000E+00 0. -1.
          1    1    6    6  503    0 -0.26901409035E+02 -0.12987271760E+03 -0.73766951464E+03  0.74949777946E+03  0.00000000000E+00 0. -1.
         -1    1    6    6    0  503  0.26442503854E+02 -0.51842816041E+01 -0.27631332039E+03  0.27762408723E+03  0.00000000000E+00 0.  1.
<mgrwt>
<rscale>  0 0.15044038E+04</rscale>
<asrwt>0</asrwt>
<pdfrwt beam="1">  1        2 0.30578071E+00 0.15044038E+04</pdfrwt>
<pdfrwt beam="2">  1       -1 0.43795761E-01 0.15044038E+04</pdfrwt>
<totfact> 0.38489797E+01</totfact>
</mgrwt>
</event>
<event>
12    7  0.1873067E-007  0.1369753E+04  0.7818608E-02  0.8976009E-01
         -1   -1    0    0    0  501 -0.00000000000E+00  0.00000000000E+00  0.48021398946E+03  0.48021398946E+03  0.00000000000E+00 0.  1.
          2   -1    0    0  501    0  0.00000000000E+00 -0.00000000000E+00 -0.97676429525E+03  0.97676429525E+03  0.00000000000E+00 0. -1.
         24    2    1    2    0    0  0.21855295116E+03 -0.48283077920E+01 -0.47245590743E+03  0.52668993569E+03  0.79993742725E+02 0.  0.
        254    2    1    2    0    0 -0.21855295116E+03  0.48283077920E+01 -0.24094398357E+02  0.93028834902E+03  0.90391767727E+03 0.  0.
         23    2    4    4    0    0  0.13780745191E+03 -0.65248139656E+02 -0.37649420806E+03  0.41617794623E+03  0.90597906674E+02 0.  0.
         23    2    4    4    0    0 -0.35636040307E+03  0.70076447448E+02  0.35239980970E+03  0.51411040280E+03  0.90666614717E+02 0.  0.
          4    1    3    3  502    0  0.14640415613E+03 -0.28469045116E+02 -0.37188764267E+03  0.40068077347E+03  0.00000000000E+00 0. -1.
         -3    1    3    3    0  502  0.72148795030E+02  0.23640737324E+02 -0.10056826476E+03  0.12600916222E+03  0.00000000000E+00 0.  1.
         13    1    5    5    0    0  0.11779161961E+03 -0.71201382315E+02 -0.36926001251E+03  0.39407798636E+03  0.00000000000E+00 0. -1.
        -13    1    5    5    0    0  0.20015832301E+02  0.59532426594E+01 -0.72341955458E+01  0.22099959866E+02  0.00000000000E+00 0.  1.
          3    1    6    6  503    0 -0.22980128010E+03  0.79318228226E+02  0.26732700939E+03  0.36133604804E+03  0.00000000000E+00 0. -1.
         -3    1    6    6    0  503 -0.12655912297E+03 -0.92417807779E+01  0.85072800314E+02  0.15277435476E+03  0.00000000000E+00 0.  1.
<mgrwt>
<rscale>  0 0.13697531E+04</rscale>
<asrwt>0</asrwt>
<pdfrwt beam="1">  1        2 0.15027143E+00 0.13697531E+04</pdfrwt>
<pdfrwt beam="2">  1       -1 0.73879076E-01 0.13697531E+04</pdfrwt>
<totfact> 0.53556667E+01</totfact>
</mgrwt>
</event>
<event>
12    7  0.1661464E-007  0.2332013E+04  0.7818608E-02  0.8465405E-01
          2   -1    0    0  501    0  0.00000000000E+00  0.00000000000E+00  0.96532198586E+03  0.96532198586E+03  0.00000000000E+00 0. -1.
         -1   -1    0    0    0  501 -0.00000000000E+00 -0.00000000000E+00 -0.14084115362E+04  0.14084115362E+04  0.00000000000E+00 0.  1.
         24    2    1    2    0    0 -0.88264398172E+03  0.35489529156E+03 -0.48001468068E+03  0.10684809936E+04  0.78908006522E+02 0.  0.
        254    2    1    2    0    0  0.88264398172E+03 -0.35489529156E+03  0.36925130335E+02  0.13052525285E+04  0.89292196271E+03 0.  0.
         23    2    4    4    0    0  0.21675254316E+03  0.84190870181E+01 -0.37087495393E+03  0.43909527488E+03  0.90575288963E+02 0.  0.
         23    2    4    4    0    0  0.66589143856E+03 -0.36331437858E+03  0.40780008427E+03  0.86615725363E+03  0.92296986168E+02 0.  0.
          2    1    3    3  502    0 -0.11540761789E+03  0.65348914039E+02 -0.90943589155E+02  0.16081086792E+03  0.00000000000E+00 0. -1.
         -1    1    3    3    0  502 -0.76723636383E+03  0.28954637752E+03 -0.38907109153E+03  0.90767012564E+03  0.00000000000E+00 0.  1.
         13    1    5    5    0    0  0.64183858808E+01  0.23155895064E+02 -0.32848094262E+02  0.40698752440E+02  0.00000000000E+00 0. -1.
        -13    1    5    5    0    0  0.21033415728E+03 -0.14736808046E+02 -0.33802685967E+03  0.39839652244E+03  0.00000000000E+00 0.  1.
          3    1    6    6  503    0  0.45006412540E+03 -0.27465606561E+03  0.24334900340E+03  0.58069993009E+03  0.00000000000E+00 0. -1.
         -3    1    6    6    0  503  0.21582731316E+03 -0.88658312964E+02  0.16445108087E+03  0.28545732354E+03  0.00000000000E+00 0.  1.
<mgrwt>
<rscale>  0 0.23320125E+04</rscale>
<asrwt>0</asrwt>
<pdfrwt beam="1">  1        2 0.14851108E+00 0.23320125E+04</pdfrwt>
<pdfrwt beam="2">  1       -1 0.21667870E+00 0.23320125E+04</pdfrwt>
<totfact> 0.31690504E+00</totfact>
</mgrwt>
</event>
<event>
12    7  0.1661464E-007  0.1554800E+04  0.7818608E-02  0.8848808E-01
         -1   -1    0    0    0  501 -0.00000000000E+00  0.00000000000E+00  0.49825005596E+03  0.49825005596E+03  0.00000000000E+00 0.  1.
          2   -1    0    0  501    0  0.00000000000E+00 -0.00000000000E+00 -0.12129462057E+04  0.12129462057E+04  0.00000000000E+00 0. -1.
         24    2    1    2    0    0  0.86019623211E+02 -0.13039850747E+03  0.29834914356E+03  0.34612877949E+03  0.79936063216E+02 0.  0.
        254    2    1    2    0    0 -0.86019623211E+02  0.13039850747E+03 -0.10130452933E+04  0.13650674822E+04  0.90152388669E+03 0.  0.
         23    2    4    4    0    0  0.12180852177E+03 -0.54685369065E+01 -0.10821888921E+04  0.10938193843E+04  0.10218036290E+03 0.  0.
         23    2    4    4    0    0 -0.20782814498E+03  0.13586704437E+03  0.69143598776E+02  0.27124809783E+03  0.84512139561E+02 0.  0.
          2    1    3    3  502    0  0.17726805263E+02 -0.38767392023E+02  0.23978485085E+02  0.48909283946E+02  0.00000000000E+00 0. -1.
         -1    1    3    3    0  502  0.68292817947E+02 -0.91631115444E+02  0.27437065847E+03  0.29721949554E+03  0.00000000000E+00 0.  1.
         13    1    5    5    0    0 -0.81846468438E+01 -0.13536459890E+02 -0.33432599394E+03  0.33470000659E+03  0.00000000000E+00 0. -1.
        -13    1    5    5    0    0  0.12999316861E+03  0.80679229831E+01 -0.74786289812E+03  0.75911937773E+03  0.00000000000E+00 0.  1.
          4    1    6    6  503    0 -0.84087518099E+01 -0.98786273574E+01  0.12110931613E+02  0.17747367410E+02  0.00000000000E+00 0. -1.
         -4    1    6    6    0  503 -0.19941939317E+03  0.14574567173E+03  0.57032667163E+02  0.25350073042E+03  0.00000000000E+00 0.  1.
<mgrwt>
<rscale>  0 0.15547997E+04</rscale>
<asrwt>0</asrwt>
<pdfrwt beam="1">  1        2 0.18660710E+00 0.15547997E+04</pdfrwt>
<pdfrwt beam="2">  1       -1 0.76653856E-01 0.15547997E+04</pdfrwt>
<totfact> 0.34866930E+01</totfact>
</mgrwt>
</event>
<event>
12    7  0.1661464E-007  0.2339250E+04  0.7818608E-02  0.8462604E-01
         -3   -1    0    0    0  501 -0.00000000000E+00  0.00000000000E+00  0.21317677450E+04  0.21317677450E+04  0.00000000000E+00 0.  1.
          4   -1    0    0  501    0  0.00000000000E+00 -0.00000000000E+00 -0.64173144635E+03  0.64173144635E+03  0.00000000000E+00 0. -1.
         24    2    1    2    0    0 -0.57541503924E+03 -0.65279703060E+03  0.12018612075E+04  0.14859715683E+04  0.79966924921E+02 0.  0.
        254    2    1    2    0    0  0.57541503924E+03  0.65279703060E+03  0.28817509114E+03  0.12875276231E+04  0.90412170998E+03 0.  0.
         23    2    4    4    0    0 -0.97769349333E+01  0.34215311035E+03 -0.24656389562E+03  0.43104833263E+03  0.88569583163E+02 0.  0.
         23    2    4    4    0    0  0.58519197417E+03  0.31064392025E+03  0.53473898676E+03  0.85647929043E+03  0.93068249998E+02 0.  0.
          4    1    3    3  502    0 -0.28559651437E+03 -0.35531527992E+03  0.57064954102E+03  0.73038018582E+03  0.00000000000E+00 0. -1.
         -1    1    3    3    0  502 -0.28981852487E+03 -0.29748175068E+03  0.63121166648E+03  0.75559138246E+03  0.00000000000E+00 0.  1.
         13    1    5    5    0    0  0.36830484487E+02  0.10306109143E+03 -0.65670543202E+02  0.12763500068E+03  0.00000000000E+00 0.  1.
        -13    1    5    5    0    0 -0.46607419420E+02  0.23909201892E+03 -0.18089335242E+03  0.30341333195E+03  0.00000000000E+00 0. -1.
          3    1    6    6  503    0  0.51062664132E+03  0.24061375081E+03  0.47690622827E+03  0.73896826351E+03  0.00000000000E+00 0. -1.
         -3    1    6    6    0  503  0.74565332850E+02  0.70030169441E+02  0.57832758484E+02  0.11751102692E+03  0.00000000000E+00 0.  1.
<mgrwt>
<rscale>  0 0.23392498E+04</rscale>
<asrwt>0</asrwt>
<pdfrwt beam="1">  1        4 0.98727916E-01 0.23392498E+04</pdfrwt>
<pdfrwt beam="2">  1       -3 0.32796426E+00 0.23392498E+04</pdfrwt>
<totfact> 0.46694903E-02</totfact>
</mgrwt>
</event>
<event>
12    7  0.1661464E-007  0.1677109E+04  0.7818608E-02  0.8774529E-01
         -1   -1    0    0    0  501 -0.00000000000E+00  0.00000000000E+00  0.66649447429E+03  0.66649447429E+03  0.00000000000E+00 0.  1.
          2   -1    0    0  501    0  0.00000000000E+00 -0.00000000000E+00 -0.10550328835E+04  0.10550328835E+04  0.00000000000E+00 0. -1.
         24    2    1    2    0    0  0.10148086818E+03  0.55562210242E+03 -0.30463150701E+03  0.64663113848E+03  0.79480732736E+02 0.  0.
        254    2    1    2    0    0 -0.10148086818E+03 -0.55562210242E+03 -0.83906902243E+02  0.10748962194E+04  0.91068503164E+03 0.  0.
         23    2    4    4    0    0  0.85009670523E+02 -0.56869043988E+03 -0.39291169869E+03  0.70235741336E+03  0.91054229125E+02 0.  0.
         23    2    4    4    0    0 -0.18649053871E+03  0.13068337459E+02  0.30900479645E+03  0.37253880600E+03  0.91387610085E+02 0.  0.
          2    1    3    3  502    0  0.26986843656E+02  0.24433322432E+03 -0.92537838639E+02  0.26265998138E+03  0.00000000000E+00 0. -1.
         -1    1    3    3    0  502  0.74494024529E+02  0.31128887810E+03 -0.21209366837E+03  0.38397115710E+03  0.00000000000E+00 0.  1.
         13    1    5    5    0    0  0.86324660730E+02 -0.56109513436E+03 -0.39782793916E+03  0.69321480511E+03  0.00000000000E+00 0. -1.
        -13    1    5    5    0    0 -0.13149902068E+01 -0.75953055224E+01  0.49162404702E+01  0.91426082484E+01  0.00000000000E+00 0.  1.
          2    1    6    6  503    0 -0.17299219836E+03  0.37723630683E+02  0.28526707226E+03  0.33574793450E+03  0.00000000000E+00 0. -1.
         -2    1    6    6    0  503 -0.13498340345E+02 -0.24655293224E+02  0.23737724189E+02  0.36790871500E+02  0.00000000000E+00 0.  1.
<mgrwt>
<rscale>  0 0.16771089E+04</rscale>
<asrwt>0</asrwt>
<pdfrwt beam="1">  1        2 0.16231275E+00 0.16771089E+04</pdfrwt>
<pdfrwt beam="2">  1       -1 0.10253761E+00 0.16771089E+04</pdfrwt>
<totfact> 0.22737157E+01</totfact>
</mgrwt>
</event>
<event>
12    7  0.1661464E-007  0.2469085E+04  0.7818608E-02  0.8414083E-01
          2   -1    0    0  501    0  0.00000000000E+00  0.00000000000E+00  0.19959652616E+04  0.19959652616E+04  0.00000000000E+00 0. -1.
         -1   -1    0    0    0  501 -0.00000000000E+00 -0.00000000000E+00 -0.76358795774E+03  0.76358795774E+03  0.00000000000E+00 0.  1.
         24    2    1    2    0    0  0.21136300387E+03 -0.68690554911E+03 -0.36625954269E+03  0.81065097637E+03  0.80594044887E+02 0.  0.
        254    2    1    2    0    0 -0.21136300387E+03  0.68690554911E+03  0.15986368465E+04  0.19489022429E+04  0.85209543637E+03 0.  0.
         23    2    4    4    0    0  0.93169048609E+02  0.21329633460E+03 -0.18736929138E+01  0.24989397381E+03  0.90926835679E+02 0.  0.
         23    2    4    4    0    0 -0.30453205248E+03  0.47360921451E+03  0.16005105394E+04  0.16990082691E+04  0.89160824906E+02 0.  0.
          2    1    3    3  502    0 -0.22101240548E+01 -0.74127921488E+02 -0.41755111183E+02  0.85107712356E+02  0.00000000000E+00 0. -1.
         -1    1    3    3    0  502  0.21357312793E+03 -0.61277762762E+03 -0.32450443150E+03  0.72554326401E+03  0.00000000000E+00 0.  1.
         13    1    5    5    0    0  0.18646515241E+02  0.82307494417E+01  0.22489011428E+02  0.30351168050E+02  0.00000000000E+00 0. -1.
        -13    1    5    5    0    0  0.74522533368E+02  0.20506558516E+03 -0.24362704342E+02  0.21954280576E+03  0.00000000000E+00 0.  1.
          4    1    6    6  503    0  0.34530276623E+01 -0.94428693242E-01  0.25152029232E+02  0.25388125005E+02  0.00000000000E+00 0. -1.
         -4    1    6    6    0  503 -0.30798508014E+03  0.47370364320E+03  0.15753585102E+04  0.16736201441E+04  0.00000000000E+00 0.  1.
<mgrwt>
<rscale>  0 0.24690849E+04</rscale>
<asrwt>0</asrwt>
<pdfrwt beam="1">  1        2 0.30707158E+00 0.24690849E+04</pdfrwt>
<pdfrwt beam="2">  1       -1 0.11747507E+00 0.24690849E+04</pdfrwt>
<totfact> 0.44553118E+00</totfact>
</mgrwt>
</event>
<event>
12    7  0.1661464E-007  0.1954112E+04  0.7818608E-02  0.8628380E-01
          2   -1    0    0  501    0  0.00000000000E+00  0.00000000000E+00  0.11694041159E+04  0.11694041159E+04  0.00000000000E+00 0. -1.
         -1   -1    0    0    0  501 -0.00000000000E+00 -0.00000000000E+00 -0.81634633363E+03  0.81634633363E+03  0.00000000000E+00 0.  1.
         24    2    1    2    0    0  0.52526182989E+03 -0.30809479634E+03  0.62062004063E+03  0.87327544975E+03  0.81353443906E+02 0.  0.
        254    2    1    2    0    0 -0.52526182989E+03  0.30809479634E+03 -0.26756225831E+03  0.11124749998E+04  0.89173351945E+03 0.  0.
         23    2    4    4    0    0  0.23762103026E+03  0.40525681478E+02 -0.12267810166E+03  0.28606819675E+03  0.93161213405E+02 0.  0.
         23    2    4    4    0    0 -0.76288286015E+03  0.26756911486E+03 -0.14488415665E+03  0.82640680307E+03  0.91505714489E+02 0.  0.
          2    1    3    3  502    0  0.47301113755E+03 -0.26759639830E+03  0.58381128329E+03  0.79761079677E+03  0.00000000000E+00 0. -1.
         -1    1    3    3    0  502  0.52250692330E+02 -0.40498398040E+02  0.36808757342E+02  0.75664652975E+02  0.00000000000E+00 0.  1.
         13    1    5    5    0    0  0.23200711289E+03  0.58742193102E+02 -0.11489663512E+03  0.26547915633E+03  0.00000000000E+00 0. -1.
        -13    1    5    5    0    0  0.56139173695E+01 -0.18216511624E+02 -0.77814665411E+01  0.20589040422E+02  0.00000000000E+00 0.  1.
          1    1    6    6  503    0 -0.56126980142E+03  0.15378724157E+03 -0.96578891225E+02  0.58991676352E+03  0.00000000000E+00 0. -1.
         -1    1    6    6    0  503 -0.20161305873E+03  0.11378187329E+03 -0.48305265422E+02  0.23649003955E+03  0.00000000000E+00 0.  1.
<mgrwt>
<rscale>  0 0.19541123E+04</rscale>
<asrwt>0</asrwt>
<pdfrwt beam="1">  1        2 0.17990832E+00 0.19541123E+04</pdfrwt>
<pdfrwt beam="2">  1       -1 0.12559174E+00 0.19541123E+04</pdfrwt>
<totfact> 0.11621933E+01</totfact>
</mgrwt>
</event>
<event>
12    7  0.1661464E-007  0.2391038E+04  0.7818608E-02  0.8442866E-01
          2   -1    0    0  501    0  0.00000000000E+00  0.00000000000E+00  0.37954760204E+04  0.37954760204E+04  0.00000000000E+00 0. -1.
         -1   -1    0    0    0  501 -0.00000000000E+00 -0.00000000000E+00 -0.37657098199E+03  0.37657098199E+03  0.00000000000E+00 0.  1.
         24    2    1    2    0    0  0.43340590930E+03 -0.99811451969E+02 -0.14221536012E+03  0.47389409545E+03  0.80915986631E+02 0.  0.
        254    2    1    2    0    0 -0.43340590930E+03  0.99811451969E+02  0.35611203985E+04  0.36981529069E+04  0.89272247763E+03 0.  0.
         23    2    4    4    0    0 -0.20695997338E+03 -0.20097825474E+03  0.34519747294E+03  0.45901045293E+03  0.91129639073E+02 0.  0.
         23    2    4    4    0    0 -0.22644593592E+03  0.30078970671E+03  0.32159229256E+04  0.32391424540E+04  0.90174078384E+02 0.  0.
          2    1    3    3  502    0  0.28200843245E+02 -0.20574374403E+02  0.55949137078E+01  0.35353861193E+02  0.00000000000E+00 0. -1.
         -1    1    3    3    0  502  0.40520506606E+03 -0.79237077566E+02 -0.14781027383E+03  0.43854023426E+03  0.00000000000E+00 0.  1.
         13    1    5    5    0    0 -0.11126983572E+03 -0.86148348908E+02  0.10295103036E+03  0.17436005567E+03  0.00000000000E+00 0.  1.
        -13    1    5    5    0    0 -0.95690137653E+02 -0.11482990583E+03  0.24224644258E+03  0.28465039726E+03  0.00000000000E+00 0. -1.
          3    1    6    6  503    0 -0.32515870681E+02  0.10529063092E+03  0.10569694250E+04  0.10626983411E+04  0.00000000000E+00 0. -1.
         -3    1    6    6    0  503 -0.19393006524E+03  0.19549907579E+03  0.21589535006E+04  0.21764441129E+04  0.00000000000E+00 0.  1.
<mgrwt>
<rscale>  0 0.23910384E+04</rscale>
<asrwt>0</asrwt>
<pdfrwt beam="1">  1        2 0.58391936E+00 0.23910384E+04</pdfrwt>
<pdfrwt beam="2">  1       -1 0.57934000E-01 0.23910384E+04</pdfrwt>
<totfact> 0.15347585E+00</totfact>
</mgrwt>
</event>
<event>
12    7  0.1661464E-007  0.1375828E+04  0.7818608E-02  0.8971504E-01
          2   -1    0    0  501    0  0.00000000000E+00  0.00000000000E+00  0.45507612381E+03  0.45507612381E+03  0.00000000000E+00 0. -1.
         -1   -1    0    0    0  501 -0.00000000000E+00 -0.00000000000E+00 -0.10398824658E+04  0.10398824658E+04  0.00000000000E+00 0.  1.
         24    2    1    2    0    0  0.15881628250E+03 -0.19050059435E+03 -0.51017378355E+03  0.57277313432E+03  0.79238159678E+02 0.  0.
        254    2    1    2    0    0 -0.15881628250E+03  0.19050059435E+03 -0.74632558428E+02  0.92218545527E+03  0.88506661168E+03 0.  0.
         23    2    4    4    0    0  0.75449088742E+02  0.27425002581E+03 -0.40179860260E+03  0.50064306622E+03  0.91080849014E+02 0.  0.
         23    2    4    4    0    0 -0.23426537124E+03 -0.83749431460E+02  0.32716604417E+03  0.42154238905E+03  0.93627634153E+02 0.  0.
          2    1    3    3  502    0  0.92196046787E+02 -0.54458620061E+02 -0.17866065427E+03  0.20829181868E+03  0.00000000000E+00 0. -1.
         -1    1    3    3    0  502  0.66620235711E+02 -0.13604197429E+03 -0.33151312927E+03  0.36448131564E+03  0.00000000000E+00 0.  1.
         13    1    5    5    0    0 -0.10573468153E+02  0.33059053931E+02 -0.94287542612E+02  0.10047308081E+03  0.00000000000E+00 0. -1.
        -13    1    5    5    0    0  0.86022556895E+02  0.24119097188E+03 -0.30751105999E+03  0.40016998541E+03  0.00000000000E+00 0.  1.
          3    1    6    6  503    0 -0.57588634805E+00  0.11988516643E+02  0.25055572503E+02  0.27781970589E+02  0.00000000000E+00 0. -1.
         -3    1    6    6    0  503 -0.23368948489E+03 -0.95737948103E+02  0.30211047167E+03  0.39376041846E+03  0.00000000000E+00 0.  1.
<mgrwt>
<rscale>  0 0.13758280E+04</rscale>
<asrwt>0</asrwt>
<pdfrwt beam="1">  1        2 0.70011711E-01 0.13758280E+04</pdfrwt>
<pdfrwt beam="2">  1       -1 0.15998192E+00 0.13758280E+04</pdfrwt>
<totfact> 0.22383359E+01</totfact>
</mgrwt>
</event>
<event>
12    7  0.1661464E-007  0.1584774E+04  0.7818608E-02  0.8829957E-01
          2   -1    0    0  501    0  0.00000000000E+00  0.00000000000E+00  0.63988230453E+03  0.63988230453E+03  0.00000000000E+00 0. -1.
         -1   -1    0    0    0  501 -0.00000000000E+00 -0.00000000000E+00 -0.98123798716E+03  0.98123798716E+03  0.00000000000E+00 0.  1.
         24    2    1    2    0    0  0.30715683511E+03  0.15321882460E+03  0.29702148475E+03  0.46096982147E+03  0.80312417073E+02 0.  0.
        254    2    1    2    0    0 -0.30715683511E+03 -0.15321882460E+03 -0.63837716738E+03  0.11601504702E+04  0.90587105934E+03 0.  0.
         23    2    4    4    0    0 -0.14934682908E+03  0.35846450490E+03 -0.13821081066E+03  0.42179537205E+03  0.89486485423E+02 0.  0.
         23    2    4    4    0    0 -0.15781000603E+03 -0.51168332950E+03 -0.50016635672E+03  0.73835509817E+03  0.90983728822E+02 0.  0.
          4    1    3    3  502    0  0.85129924636E+02  0.80416049441E+02  0.12134543052E+03  0.16863735821E+03  0.00000000000E+00 0. -1.
         -1    1    3    3    0  502  0.22202691047E+03  0.72802775158E+02  0.17567605424E+03  0.29233246326E+03  0.00000000000E+00 0.  1.
         13    1    5    5    0    0 -0.30974132352E+02  0.17552732293E+03 -0.85144443858E+02  0.19753180577E+03  0.00000000000E+00 0. -1.
        -13    1    5    5    0    0 -0.11837269673E+03  0.18293718197E+03 -0.53066366803E+02  0.22426356628E+03  0.00000000000E+00 0.  1.
          1    1    6    6  503    0 -0.94758570585E+02 -0.16316887678E+03 -0.18522569390E+03  0.26440844678E+03  0.00000000000E+00 0. -1.
         -1    1    6    6    0  503 -0.63051435443E+02 -0.34851445271E+03 -0.31494066282E+03  0.47394665138E+03  0.00000000000E+00 0.  1.
<mgrwt>
<rscale>  0 0.15847736E+04</rscale>
<asrwt>0</asrwt>
<pdfrwt beam="1">  1        2 0.98443431E-01 0.15847736E+04</pdfrwt>
<pdfrwt beam="2">  1       -1 0.15095969E+00 0.15847736E+04</pdfrwt>
<totfact> 0.17243100E+01</totfact>
</mgrwt>
</event>
<event>
12    7  0.1661464E-007  0.1321183E+04  0.7818608E-02  0.9012933E-01
         -1   -1    0    0    0  501 -0.00000000000E+00  0.00000000000E+00  0.73786843024E+03  0.73786843024E+03  0.00000000000E+00 0.  1.
          2   -1    0    0  501    0  0.00000000000E+00 -0.00000000000E+00 -0.59140783774E+03  0.59140783774E+03  0.00000000000E+00 0. -1.
         24    2    1    2    0    0 -0.10327240673E+02 -0.96015337507E+01  0.39523618102E+03  0.40289771266E+03  0.76916101892E+02 0.  0.
        254    2    1    2    0    0  0.10327240673E+02  0.96015337507E+01 -0.24877558852E+03  0.92637855532E+03  0.89223824899E+03 0.  0.
         23    2    4    4    0    0 -0.24847888044E+03  0.35836388305E+03 -0.89753035142E+02  0.45482019487E+03  0.92948241740E+02 0.  0.
         23    2    4    4    0    0  0.25880612111E+03 -0.34876234930E+03 -0.15902255337E+03  0.47155836045E+03  0.91996359785E+02 0.  0.
          4    1    3    3  502    0  0.10896802361E+02  0.75134369254E+01  0.97275221591E+01  0.16426098852E+02  0.00000000000E+00 0. -1.
         -3    1    3    3    0  502 -0.21224043034E+02 -0.17114970676E+02  0.38550865886E+03  0.38647161381E+03  0.00000000000E+00 0.  1.
         13    1    5    5    0    0 -0.23048510716E+03  0.35779626646E+03 -0.76410130131E+02  0.43241191115E+03  0.00000000000E+00 0. -1.
        -13    1    5    5    0    0 -0.17993773275E+02  0.56761659681E+00 -0.13342905011E+02  0.22408283723E+02  0.00000000000E+00 0.  1.
          2    1    6    6  503    0  0.20787897188E+03 -0.24434603970E+03 -0.15247475614E+03  0.35520023272E+03  0.00000000000E+00 0. -1.
         -2    1    6    6    0  503  0.50927149234E+02 -0.10441630960E+03 -0.65477972364E+01  0.11635812773E+03  0.00000000000E+00 0.  1.
<mgrwt>
<rscale>  0 0.13211831E+04</rscale>
<asrwt>0</asrwt>
<pdfrwt beam="1">  1        2 0.90985821E-01 0.13211831E+04</pdfrwt>
<pdfrwt beam="2">  1       -1 0.11351822E+00 0.13211831E+04</pdfrwt>
<totfact> 0.39991704E+01</totfact>
</mgrwt>
</event>
<event>
12    7  0.1661464E-007  0.1843278E+04  0.7818608E-02  0.8683617E-01
          2   -1    0    0  501    0  0.00000000000E+00  0.00000000000E+00  0.37007728861E+03  0.37007728861E+03  0.00000000000E+00 0. -1.
         -1   -1    0    0    0  501 -0.00000000000E+00 -0.00000000000E+00 -0.22952463971E+04  0.22952463971E+04  0.00000000000E+00 0.  1.
         24    2    1    2    0    0 -0.44036840429E+03 -0.52624110328E+03 -0.92695434009E+03  0.11560585765E+04  0.79831406630E+02 0.  0.
        254    2    1    2    0    0  0.44036840429E+03  0.52624110328E+03 -0.99821476843E+03  0.15092651092E+04  0.90033017038E+03 0.  0.
         23    2    4    4    0    0  0.66140969884E+03  0.44938230765E+03 -0.48914158321E+03  0.94184656535E+03  0.91696325379E+02 0.  0.
         23    2    4    4    0    0 -0.22104129456E+03  0.76858795629E+02 -0.50907318522E+03  0.56741854386E+03  0.89675903343E+02 0.  0.
          2    1    3    3  502    0 -0.33738923702E+03 -0.44468167791E+03 -0.72183037376E+03  0.91247596155E+03  0.00000000000E+00 0. -1.
         -1    1    3    3    0  502 -0.10297916727E+03 -0.81559425369E+02 -0.20512396633E+03  0.24358261498E+03  0.00000000000E+00 0.  1.
         13    1    5    5    0    0  0.57316094859E+03  0.35028401511E+03 -0.39657601437E+03  0.78005442080E+03  0.00000000000E+00 0.  1.
        -13    1    5    5    0    0  0.88248750253E+02  0.99098292537E+02 -0.92565568834E+02  0.16179214455E+03  0.00000000000E+00 0. -1.
          3    1    6    6  503    0 -0.17252118027E+03  0.35825836724E+02 -0.29016715439E+03  0.33947610476E+03  0.00000000000E+00 0. -1.
         -3    1    6    6    0  503 -0.48520114286E+02  0.41032958905E+02 -0.21890603083E+03  0.22794243910E+03  0.00000000000E+00 0.  1.
<mgrwt>
<rscale>  0 0.18432781E+04</rscale>
<asrwt>0</asrwt>
<pdfrwt beam="1">  1        2 0.56934968E-01 0.18432781E+04</pdfrwt>
<pdfrwt beam="2">  1       -1 0.35311482E+00 0.18432781E+04</pdfrwt>
<totfact> 0.13866285E+00</totfact>
</mgrwt>
</event>
<event>
12    7  0.1661464E-007  0.1679180E+04  0.7818608E-02  0.8773329E-01
         -1   -1    0    0    0  501 -0.00000000000E+00  0.00000000000E+00  0.25429711556E+03  0.25429711556E+03  0.00000000000E+00 0.  1.
          2   -1    0    0  501    0  0.00000000000E+00 -0.00000000000E+00 -0.27719975924E+04  0.27719975924E+04  0.00000000000E+00 0. -1.
         24    2    1    2    0    0  0.29899765862E+03 -0.23635873685E+03 -0.74350609462E+02  0.39649545935E+03  0.80097339619E+02 0.  0.
        254    2    1    2    0    0 -0.29899765862E+03  0.23635873685E+03 -0.24433498674E+04  0.26297992486E+04  0.89477397216E+03 0.  0.
         23    2    4    4    0    0 -0.14409987670E+03 -0.26734838267E+03 -0.36710849309E+03  0.48577929278E+03  0.94725621737E+02 0.  0.
         23    2    4    4    0    0 -0.15489778191E+03  0.50370711952E+03 -0.20762413743E+04  0.21440199558E+04  0.91264131053E+02 0.  0.
          2    1    3    3  502    0  0.17022568539E+03 -0.83754216640E+02 -0.40033843350E+02  0.19389239641E+03  0.00000000000E+00 0. -1.
         -1    1    3    3    0  502  0.12877197323E+03 -0.15260452021E+03 -0.34316766112E+02  0.20260306295E+03  0.00000000000E+00 0.  1.
         13    1    5    5    0    0 -0.24144944379E+00 -0.29580346212E+02 -0.84053188718E+02  0.89106642365E+02  0.00000000000E+00 0. -1.
        -13    1    5    5    0    0 -0.14385842726E+03 -0.23776803646E+03 -0.28305530437E+03  0.39667265041E+03  0.00000000000E+00 0.  1.
          1    1    6    6  503    0  0.12779492155E+01  0.11737046933E+03 -0.41109839520E+03  0.42752701758E+03  0.00000000000E+00 0. -1.
         -1    1    6    6    0  503 -0.15617573113E+03  0.38633665019E+03 -0.16651429791E+04  0.17164929382E+04  0.00000000000E+00 0.  1.
<mgrwt>
<rscale>  0 0.16791796E+04</rscale>
<asrwt>0</asrwt>
<pdfrwt beam="1">  1        2 0.42646116E+00 0.16791796E+04</pdfrwt>
<pdfrwt beam="2">  1       -1 0.39122634E-01 0.16791796E+04</pdfrwt>
<totfact> 0.16606089E+01</totfact>
</mgrwt>
</event>
<event>
12    7  0.1661464E-007  0.2383584E+04  0.7818608E-02  0.8445675E-01
         -3   -1    0    0    0  501 -0.00000000000E+00  0.00000000000E+00  0.11373405034E+04  0.11373405034E+04  0.00000000000E+00 0.  1.
          4   -1    0    0  501    0  0.00000000000E+00 -0.00000000000E+00 -0.12488502218E+04  0.12488502218E+04  0.00000000000E+00 0. -1.
         24    2    1    2    0    0 -0.70899459031E+03 -0.43266022434E+03  0.54325888261E+03  0.99661707540E+03  0.90814000257E+02 0.  0.
        254    2    1    2    0    0  0.70899459031E+03  0.43266022434E+03 -0.65476860093E+03  0.13895736498E+04  0.90129063497E+03 0.  0.
         23    2    4    4    0    0 -0.90108966702E+02 -0.16021706827E+03 -0.20330568095E+02  0.20604290085E+03  0.90836172009E+02 0.  0.
         23    2    4    4    0    0  0.79910355701E+03  0.59287729261E+03 -0.63443803284E+03  0.11835307490E+04  0.90351742230E+02 0.  0.
          2    1    3    3  502    0 -0.71694638575E+02 -0.16882124559E+02  0.34995275695E+02  0.81546285330E+02  0.00000000000E+00 0. -1.
         -1    1    3    3    0  502 -0.63729995173E+03 -0.41577809978E+03  0.50826360692E+03  0.91507079007E+03  0.00000000000E+00 0.  1.
         13    1    5    5    0    0  0.65204749052E+00 -0.84498318869E+02  0.67889794768E+01  0.84773116611E+02  0.00000000000E+00 0. -1.
        -13    1    5    5    0    0 -0.90761014193E+02 -0.75718749400E+02 -0.27119547571E+02  0.12126978424E+03  0.00000000000E+00 0.  1.
          2    1    6    6  503    0  0.41482688686E+03  0.25653510242E+03 -0.33199461265E+03  0.59001019285E+03  0.00000000000E+00 0.  1.
         -2    1    6    6    0  503  0.38427667015E+03  0.33634219019E+03 -0.30244342019E+03  0.59352055612E+03  0.00000000000E+00 0. -1.
<mgrwt>
<rscale>  0 0.23835838E+04</rscale>
<asrwt>0</asrwt>
<pdfrwt beam="1">  1        4 0.19213080E+00 0.23835838E+04</pdfrwt>
<pdfrwt beam="2">  1       -3 0.17497546E+00 0.23835838E+04</pdfrwt>
<totfact> 0.65156774E-02</totfact>
</mgrwt>
</event>
<event>
12    7  0.1661464E-007  0.1728147E+04  0.7818608E-02  0.8745472E-01
         -1   -1    0    0    0  501 -0.00000000000E+00  0.00000000000E+00  0.10750073864E+04  0.10750073864E+04  0.00000000000E+00 0.  1.
          2   -1    0    0  501    0  0.00000000000E+00 -0.00000000000E+00 -0.69452809959E+03  0.69452809959E+03  0.00000000000E+00 0. -1.
         24    2    1    2    0    0 -0.59402089852E+03  0.14552603378E+03  0.28019427259E+03  0.67769319962E+03  0.81979192686E+02 0.  0.
        254    2    1    2    0    0  0.59402089852E+03 -0.14552603378E+03  0.10028501417E+03  0.10918422863E+04  0.89890146276E+03 0.  0.
         23    2    4    4    0    0  0.28709911018E+03 -0.31182080883E+03 -0.31936256738E+03  0.53857747885E+03  0.91734047083E+02 0.  0.
         23    2    4    4    0    0  0.30692178834E+03  0.16629477505E+03  0.41964758155E+03  0.55326480748E+03  0.90238119053E+02 0.  0.
          2    1    3    3  502    0 -0.67109571363E+02 -0.78549950766E+01  0.41121821062E+02  0.79097406302E+02  0.00000000000E+00 0. -1.
         -1    1    3    3    0  502 -0.52691132716E+03  0.15338102886E+03  0.23907245153E+03  0.59859579332E+03  0.00000000000E+00 0.  1.
         13    1    5    5    0    0  0.10262972657E+02 -0.55087997025E+02 -0.37838154686E+02  0.67614657982E+02  0.00000000000E+00 0. -1.
        -13    1    5    5    0    0  0.27683613752E+03 -0.25673281180E+03 -0.28152441269E+03  0.47096282086E+03  0.00000000000E+00 0.  1.
          1    1    6    6  503    0  0.21991858779E+03  0.10664384050E+03  0.22669029776E+03  0.33335504357E+03  0.00000000000E+00 0. -1.
         -1    1    6    6    0  503  0.87003200551E+02  0.59650934547E+02  0.19295728378E+03  0.21990976391E+03  0.00000000000E+00 0.  1.
<mgrwt>
<rscale>  0 0.17281468E+04</rscale>
<asrwt>0</asrwt>
<pdfrwt beam="1">  1        2 0.10685048E+00 0.17281468E+04</pdfrwt>
<pdfrwt beam="2">  1       -1 0.16538575E+00 0.17281468E+04</pdfrwt>
<totfact> 0.11944376E+01</totfact>
</mgrwt>
</event>
<event>
12    7  0.1661464E-007  0.1636409E+04  0.7818608E-02  0.8798488E-01
          2   -1    0    0  501    0  0.00000000000E+00  0.00000000000E+00  0.13904208857E+04  0.13904208857E+04  0.00000000000E+00 0. -1.
         -1   -1    0    0    0  501 -0.00000000000E+00 -0.00000000000E+00 -0.48147914046E+03  0.48147914046E+03  0.00000000000E+00 0.  1.
         24    2    1    2    0    0  0.38283366174E+03 -0.18594474176E+03  0.73598261800E+03  0.85182171714E+03  0.52846610388E+02 0.  0.
        254    2    1    2    0    0 -0.38283366174E+03  0.18594474176E+03  0.17295912721E+03  0.10200783090E+04  0.91077320847E+03 0.  0.
         23    2    4    4    0    0 -0.54954839854E+03  0.42495363969E+02  0.40279640126E+03  0.68878209847E+03  0.91468792552E+02 0.  0.
         23    2    4    4    0    0  0.16671473679E+03  0.14344937779E+03 -0.22983727405E+03  0.33129621053E+03  0.92522857265E+02 0.  0.
          2    1    3    3  502    0  0.38077776550E+03 -0.17776762803E+03  0.71744717835E+03  0.83145865201E+03  0.00000000000E+00 0. -1.
         -1    1    3    3    0  502  0.20558962450E+01 -0.81771137330E+01  0.18535439652E+02  0.20363065130E+02  0.00000000000E+00 0.  1.
         13    1    5    5    0    0 -0.87501865232E+02 -0.21318917557E+02  0.43540573575E+02  0.10003426519E+03  0.00000000000E+00 0.  1.
        -13    1    5    5    0    0 -0.46204653330E+03  0.63814281526E+02  0.35925582769E+03  0.58874783328E+03  0.00000000000E+00 0. -1.
          4    1    6    6  503    0  0.95247119338E+02  0.29159646336E+02 -0.67672025863E+02  0.12042342713E+03  0.00000000000E+00 0. -1.
         -4    1    6    6    0  503  0.71467617456E+02  0.11428973146E+03 -0.16216524819E+03  0.21087278340E+03  0.00000000000E+00 0.  1.
<mgrwt>
<rscale>  0 0.16364091E+04</rscale>
<asrwt>0</asrwt>
<pdfrwt beam="1">  1        2 0.21391090E+00 0.16364091E+04</pdfrwt>
<pdfrwt beam="2">  1       -1 0.74073714E-01 0.16364091E+04</pdfrwt>
<totfact> 0.29309596E+01</totfact>
</mgrwt>
</event>
<event>
12    7  0.1661464E-007  0.1257405E+04  0.7818608E-02  0.9064043E-01
         -1   -1    0    0    0  501 -0.00000000000E+00  0.00000000000E+00  0.14361322150E+03  0.14361322150E+03  0.00000000000E+00 0.  1.
          2   -1    0    0  501    0  0.00000000000E+00 -0.00000000000E+00 -0.27523012356E+04  0.27523012356E+04  0.00000000000E+00 0. -1.
         24    2    1    2    0    0  0.70127623847E+02  0.11850032277E+03 -0.43818743337E+01  0.15885397986E+03  0.79089670433E+02 0.  0.
        254    2    1    2    0    0 -0.70127623847E+02 -0.11850032277E+03 -0.26043061397E+04  0.27370604772E+04  0.83074025807E+03 0.  0.
         23    2    4    4    0    0 -0.27813206412E+03 -0.32961585869E+03 -0.20980707319E+04  0.21438909581E+04  0.91452636489E+02 0.  0.
         23    2    4    4    0    0  0.20800444027E+03  0.21111553592E+03 -0.50623540785E+03  0.59316951915E+03  0.87978256451E+02 0.  0.
          2    1    3    3  502    0  0.29785651330E+02  0.28496234597E+02 -0.36567619841E+02  0.55103640825E+02  0.00000000000E+00 0. -1.
         -1    1    3    3    0  502  0.40341972518E+02  0.90004088177E+02  0.32185745507E+02  0.10375033903E+03  0.00000000000E+00 0.  1.
         13    1    5    5    0    0 -0.10495641022E+02  0.48296385204E+01 -0.82615421174E+02  0.83419372477E+02  0.00000000000E+00 0.  1.
        -13    1    5    5    0    0 -0.26763642309E+03 -0.33444549721E+03 -0.20154553107E+04  0.20604715856E+04  0.00000000000E+00 0. -1.
          3    1    6    6  503    0  0.15564965247E+03  0.18392749283E+03 -0.45574880236E+03  0.51552217002E+03  0.00000000000E+00 0. -1.
         -3    1    6    6    0  503  0.52354787797E+02  0.27188043085E+02 -0.50486605491E+02  0.77647349125E+02  0.00000000000E+00 0.  1.
<mgrwt>
<rscale>  0 0.12574050E+04</rscale>
<asrwt>0</asrwt>
<pdfrwt beam="1">  1        2 0.42343097E+00 0.12574050E+04</pdfrwt>
<pdfrwt beam="2">  1       -1 0.22094341E-01 0.12574050E+04</pdfrwt>
<totfact> 0.48257620E+01</totfact>
</mgrwt>
</event>
<event>
12    7  0.1661464E-007  0.3023186E+04  0.7818608E-02  0.8237141E-01
         -1   -1    0    0    0  501 -0.00000000000E+00  0.00000000000E+00  0.95840641657E+03  0.95840641657E+03  0.00000000000E+00 0.  1.
          2   -1    0    0  501    0  0.00000000000E+00 -0.00000000000E+00 -0.23840760203E+04  0.23840760203E+04  0.00000000000E+00 0. -1.
         24    2    1    2    0    0  0.90294957626E+03 -0.23680378762E+03 -0.17710127969E+04  0.20035968132E+04  0.80745848287E+02 0.  0.
        254    2    1    2    0    0 -0.90294957626E+03  0.23680378762E+03  0.34534319313E+03  0.13388856237E+04  0.89552153588E+03 0.  0.
         23    2    4    4    0    0  0.10702291234E+03  0.23383866900E+03  0.17118089293E+02  0.27242138651E+03  0.88238064145E+02 0.  0.
         23    2    4    4    0    0 -0.10099724886E+04  0.29651186254E+01  0.32822510384E+03  0.10664642372E+04  0.97780523363E+02 0.  0.
          2    1    3    3  502    0  0.31590121690E+03 -0.95960440800E+02 -0.54985077089E+03  0.64135626237E+03  0.00000000000E+00 0. -1.
         -1    1    3    3    0  502  0.58704835937E+03 -0.14084334682E+03 -0.12211620260E+04  0.13622405508E+04  0.00000000000E+00 0.  1.
         13    1    5    5    0    0  0.24079878674E+02  0.75778826301E+02  0.45603589452E+02  0.91662197461E+02  0.00000000000E+00 0. -1.
        -13    1    5    5    0    0  0.82943033670E+02  0.15805984270E+03 -0.28485500159E+02  0.18075918905E+03  0.00000000000E+00 0.  1.
          2    1    6    6  503    0 -0.55042539774E+02 -0.17552917073E+02  0.33945320681E+02  0.67007991155E+02  0.00000000000E+00 0. -1.
         -2    1    6    6    0  503 -0.95492994883E+03  0.20518035698E+02  0.29427978316E+03  0.99945624604E+03  0.00000000000E+00 0.  1.
<mgrwt>
<rscale>  0 0.30231862E+04</rscale>
<asrwt>0</asrwt>
<pdfrwt beam="1">  1        2 0.36678092E+00 0.30231862E+04</pdfrwt>
<pdfrwt beam="2">  1       -1 0.14744714E+00 0.30231862E+04</pdfrwt>
<totfact> 0.14405522E+00</totfact>
</mgrwt>
</event>
<event>
12    7  0.1661464E-007  0.2481069E+04  0.7818608E-02  0.8409761E-01
         -1   -1    0    0    0  501 -0.00000000000E+00  0.00000000000E+00  0.51967317088E+03  0.51967317088E+03  0.00000000000E+00 0.  1.
          2   -1    0    0  501    0  0.00000000000E+00 -0.00000000000E+00 -0.29613346945E+04  0.29613346945E+04  0.00000000000E+00 0. -1.
         24    2    1    2    0    0 -0.74664096240E+03 -0.44624551727E+02  0.29283424333E+02  0.75291740196E+03  0.81012455138E+02 0.  0.
        254    2    1    2    0    0  0.74664096240E+03  0.44624551727E+02 -0.24709449480E+04  0.27280904635E+04  0.88172816868E+03 0.  0.
         23    2    4    4    0    0  0.54721559840E+03 -0.35480176706E+03 -0.18034564756E+04  0.19198396947E+04  0.89442657264E+02 0.  0.
         23    2    4    4    0    0  0.19942536400E+03  0.39942631879E+03 -0.66748847236E+03  0.80825076872E+03  0.91741944907E+02 0.  0.
          4    1    3    3  502    0 -0.33662344133E+03 -0.54551600023E+02 -0.78219188770E+01  0.34110467709E+03  0.00000000000E+00 0. -1.
         -3    1    3    3    0  502 -0.41001752107E+03  0.99270482965E+01  0.37105343210E+02  0.41181272487E+03  0.00000000000E+00 0.  1.
         13    1    5    5    0    0  0.13622722749E+03 -0.12659005148E+03 -0.58479374825E+03  0.61365024781E+03  0.00000000000E+00 0. -1.
        -13    1    5    5    0    0  0.41098837091E+03 -0.22821171558E+03 -0.12186627274E+04  0.13061894469E+04  0.00000000000E+00 0.  1.
          2    1    6    6  503    0  0.17799719613E+03  0.26535215283E+03 -0.48501583915E+03  0.58080558801E+03  0.00000000000E+00 0. -1.
         -2    1    6    6    0  503  0.21428167870E+02  0.13407416596E+03 -0.18247263321E+03  0.22744518071E+03  0.00000000000E+00 0.  1.
<mgrwt>
<rscale>  0 0.24810693E+04</rscale>
<asrwt>0</asrwt>
<pdfrwt beam="1">  1        2 0.45558995E+00 0.24810693E+04</pdfrwt>
<pdfrwt beam="2">  1       -1 0.79949720E-01 0.24810693E+04</pdfrwt>
<totfact> 0.29214919E+00</totfact>
</mgrwt>
</event>
<event>
12    7  0.1661464E-007  0.1253979E+04  0.7818608E-02  0.9066878E-01
         -1   -1    0    0    0  501 -0.00000000000E+00  0.00000000000E+00  0.20119443092E+03  0.20119443092E+03  0.00000000000E+00 0.  1.
          2   -1    0    0  501    0  0.00000000000E+00 -0.00000000000E+00 -0.19539106747E+04  0.19539106747E+04  0.00000000000E+00 0. -1.
         24    2    1    2    0    0 -0.14038362730E+03  0.24299169764E+03 -0.59168532726E+03  0.65975614623E+03  0.80212954408E+02 0.  0.
        254    2    1    2    0    0  0.14038362730E+03 -0.24299169764E+03 -0.11610309165E+04  0.14953489594E+04  0.89962391770E+03 0.  0.
         23    2    4    4    0    0 -0.11306891969E+03  0.39050444927E+02 -0.10878798369E+04  0.10982029868E+04  0.90872123347E+02 0.  0.
         23    2    4    4    0    0  0.25345254699E+03 -0.28204214257E+03 -0.73151079609E+02  0.39714597260E+03  0.92670811718E+02 0.  0.
          4    1    3    3  502    0 -0.10948714132E+03  0.10951731916E+03 -0.31573185884E+03  0.35166473238E+03  0.00000000000E+00 0. -1.
         -3    1    3    3    0  502 -0.30896485979E+02  0.13347437848E+03 -0.27595346842E+03  0.30809141385E+03  0.00000000000E+00 0.  1.
         13    1    5    5    0    0 -0.80713090600E+01  0.39996945738E+02 -0.19880107356E+03  0.20294523534E+03  0.00000000000E+00 0.  1.
        -13    1    5    5    0    0 -0.10499761063E+03 -0.94650081085E+00 -0.88907876333E+03  0.89525775144E+03  0.00000000000E+00 0. -1.
          1    1    6    6  503    0  0.18531135380E+03 -0.22873411409E+03 -0.92349823294E+02  0.30852565964E+03  0.00000000000E+00 0. -1.
         -1    1    6    6    0  503  0.68141193186E+02 -0.53308028475E+02  0.19198743685E+02  0.88620312953E+02  0.00000000000E+00 0.  1.
<mgrwt>
<rscale>  0 0.12539792E+04</rscale>
<asrwt>0</asrwt>
<pdfrwt beam="1">  1        2 0.30060165E+00 0.12539792E+04</pdfrwt>
<pdfrwt beam="2">  1       -1 0.30952988E-01 0.12539792E+04</pdfrwt>
<totfact> 0.76723158E+01</totfact>
</mgrwt>
</event>
<event>
12    7  0.1661464E-007  0.2010060E+04  0.7818608E-02  0.8601932E-01
         -1   -1    0    0    0  501 -0.00000000000E+00  0.00000000000E+00  0.14094610620E+04  0.14094610620E+04  0.00000000000E+00 0.  1.
          2   -1    0    0  501    0  0.00000000000E+00 -0.00000000000E+00 -0.71664670131E+03  0.71664670131E+03  0.00000000000E+00 0. -1.
         24    2    1    2    0    0  0.23357189918E+03  0.49916415960E+03  0.88302938155E+03  0.10441635232E+04  0.82558368840E+02 0.  0.
        254    2    1    2    0    0 -0.23357189918E+03 -0.49916415960E+03 -0.19021502088E+03  0.10819442401E+04  0.91142794235E+03 0.  0.
         23    2    4    4    0    0 -0.31589269126E+03 -0.63331263366E+03  0.11858302419E+03  0.72367205720E+03  0.93628138949E+02 0.  0.
         23    2    4    4    0    0  0.82320792081E+02  0.13414847406E+03 -0.30879804507E+03  0.35827218285E+03  0.90720441238E+02 0.  0.
          4    1    3    3  502    0  0.72543813321E+02  0.10893442042E+03  0.26723526000E+03  0.29756343356E+03  0.00000000000E+00 0. -1.
         -3    1    3    3    0  502  0.16102808586E+03  0.39022973918E+03  0.61579412155E+03  0.74660008968E+03  0.00000000000E+00 0.  1.
         13    1    5    5    0    0 -0.19257168164E+03 -0.46191104542E+03  0.10971262522E+03  0.51233048570E+03  0.00000000000E+00 0. -1.
        -13    1    5    5    0    0 -0.12332100962E+03 -0.17140158825E+03  0.88703989749E+01  0.21134157150E+03  0.00000000000E+00 0.  1.
          4    1    6    6  503    0  0.81165880713E+02  0.54073879789E+02 -0.13143342813E+03  0.16366621734E+03  0.00000000000E+00 0.  1.
         -4    1    6    6    0  503  0.11549113677E+01  0.80074594274E+02 -0.17736461695E+03  0.19460596551E+03  0.00000000000E+00 0. -1.
<mgrwt>
<rscale>  0 0.20100603E+04</rscale>
<asrwt>0</asrwt>
<pdfrwt beam="1">  1        2 0.11025334E+00 0.20100603E+04</pdfrwt>
<pdfrwt beam="2">  1       -1 0.21684016E+00 0.20100603E+04</pdfrwt>
<totfact> 0.48689376E+00</totfact>
</mgrwt>
</event>
<event>
12    7  0.1661464E-007  0.1211380E+04  0.7818608E-02  0.9102954E-01
          2   -1    0    0  501    0  0.00000000000E+00  0.00000000000E+00  0.27588228194E+04  0.27588228194E+04  0.00000000000E+00 0. -1.
         -1   -1    0    0    0  501 -0.00000000000E+00 -0.00000000000E+00 -0.13297705356E+03  0.13297705356E+03  0.00000000000E+00 0.  1.
         24    2    1    2    0    0  0.17567441934E+03  0.18922057633E+03  0.51140596406E+03  0.57843842742E+03  0.79931383799E+02 0.  0.
        254    2    1    2    0    0 -0.17567441934E+03 -0.18922057633E+03  0.21144398018E+04  0.23133614456E+04  0.90228574977E+03 0.  0.
         23    2    4    4    0    0  0.15824074133E+02  0.10671841237E+03  0.18696883122E+04  0.18754323091E+04  0.99361665280E+02 0.  0.
         23    2    4    4    0    0 -0.19149849347E+03 -0.29593898871E+03  0.24475148961E+03  0.43792913643E+03  0.87333148504E+02 0.  0.
          2    1    3    3  502    0  0.20577882674E+02 -0.54377609510E+01  0.44944160041E+02  0.49729227033E+02  0.00000000000E+00 0. -1.
         -1    1    3    3    0  502  0.15509653667E+03  0.19465833729E+03  0.46646180402E+03  0.52870920038E+03  0.00000000000E+00 0.  1.
         13    1    5    5    0    0 -0.11299328822E+02  0.64366166193E+02  0.15842405000E+04  0.15855877901E+04  0.00000000000E+00 0. -1.
        -13    1    5    5    0    0  0.27123402955E+02  0.42352246178E+02  0.28544781216E+03  0.28984451903E+03  0.00000000000E+00 0.  1.
          4    1    6    6  503    0 -0.86198947375E+02 -0.20004217245E+03  0.17461861095E+03  0.27917519334E+03  0.00000000000E+00 0.  1.
         -4    1    6    6    0  503 -0.10529954610E+03 -0.95896816254E+02  0.70132878663E+02  0.15875394309E+03  0.00000000000E+00 0. -1.
<mgrwt>
<rscale>  0 0.12113796E+04</rscale>
<asrwt>0</asrwt>
<pdfrwt beam="1">  1        2 0.42443424E+00 0.12113796E+04</pdfrwt>
<pdfrwt beam="2">  1       -1 0.20458010E-01 0.12113796E+04</pdfrwt>
<totfact> 0.54691548E+01</totfact>
</mgrwt>
</event>
<event>
12    7  0.1661464E-007  0.1313044E+04  0.7818608E-02  0.9019285E-01
          2   -1    0    0  501    0  0.00000000000E+00  0.00000000000E+00  0.31700539043E+04  0.31700539043E+04  0.00000000000E+00 0. -1.
         -1   -1    0    0    0  501 -0.00000000000E+00 -0.00000000000E+00 -0.13596644631E+03  0.13596644631E+03  0.00000000000E+00 0.  1.
         24    2    1    2    0    0  0.10601954668E+03  0.24153761716E+03  0.13070530247E+04  0.13357688866E+04  0.79437674929E+02 0.  0.
        254    2    1    2    0    0 -0.10601954668E+03 -0.24153761716E+03  0.17270344333E+04  0.19702514641E+04  0.91085802022E+03 0.  0.
         23    2    4    4    0    0 -0.43146906267E+03 -0.69058014518E+02  0.43340997719E+03  0.62214901059E+03  0.91052850792E+02 0.  0.
         23    2    4    4    0    0  0.32544951598E+03 -0.17247960264E+03  0.12936244561E+04  0.13481024535E+04  0.90826157042E+02 0.  0.
          4    1    3    3  502    0  0.10227059979E+03  0.21630300732E+03  0.10245563204E+04  0.10521225785E+04  0.00000000000E+00 0. -1.
         -3    1    3    3    0  502  0.37489468892E+01  0.25234609838E+02  0.28249670431E+03  0.28364630807E+03  0.00000000000E+00 0.  1.
         13    1    5    5    0    0 -0.39486123229E+03 -0.88601759275E+02  0.39793729245E+03  0.56755594723E+03  0.00000000000E+00 0. -1.
        -13    1    5    5    0    0 -0.36607830376E+02  0.19543744758E+02  0.35472684739E+02  0.54593063356E+02  0.00000000000E+00 0.  1.
          3    1    6    6  503    0  0.14299374385E+03 -0.61756413345E+02  0.70442769017E+03  0.72144260759E+03  0.00000000000E+00 0. -1.
         -3    1    6    6    0  503  0.18245577214E+03 -0.11072318929E+03  0.58919676595E+03  0.62665984588E+03  0.00000000000E+00 0.  1.
<mgrwt>
<rscale>  0 0.13130437E+04</rscale>
<asrwt>0</asrwt>
<pdfrwt beam="1">  1        2 0.48770054E+00 0.13130437E+04</pdfrwt>
<pdfrwt beam="2">  1       -1 0.20917917E-01 0.13130437E+04</pdfrwt>
<totfact> 0.29096698E+01</totfact>
</mgrwt>
</event>
<event>
12    7  0.1661464E-007  0.2481333E+04  0.7818608E-02  0.8409666E-01
         -1   -1    0    0    0  501 -0.00000000000E+00  0.00000000000E+00  0.52426307010E+03  0.52426307010E+03  0.00000000000E+00 0.  1.
          2   -1    0    0  501    0  0.00000000000E+00 -0.00000000000E+00 -0.29360326870E+04  0.29360326870E+04  0.00000000000E+00 0. -1.
         24    2    1    2    0    0 -0.35918098929E+03  0.92647648322E+03 -0.47941510907E+03  0.11061281411E+04  0.79441555695E+02 0.  0.
        254    2    1    2    0    0  0.35918098929E+03 -0.92647648322E+03 -0.19323545078E+04  0.23541676160E+04  0.90594788101E+03 0.  0.
         23    2    4    4    0    0  0.26044844491E+03 -0.10940168279E+04 -0.16498712638E+04  0.19987458393E+04  0.90573343901E+02 0.  0.
         23    2    4    4    0    0  0.98732544377E+02  0.16754034471E+03 -0.28248324399E+03  0.35542177666E+03  0.93327240230E+02 0.  0.
          2    1    3    3  502    0 -0.28827652083E+03  0.75633772034E+03 -0.35560658731E+03  0.88408491935E+03  0.00000000000E+00 0. -1.
         -1    1    3    3    0  502 -0.70904468452E+02  0.17013876287E+03 -0.12380852176E+03  0.22204322178E+03  0.00000000000E+00 0.  1.
         13    1    5    5    0    0  0.92714808398E+02 -0.28177755145E+03 -0.49136922346E+03  0.57396719241E+03  0.00000000000E+00 0.  1.
        -13    1    5    5    0    0  0.16773363651E+03 -0.81223927648E+03 -0.11585020404E+04  0.14247786469E+04  0.00000000000E+00 0. -1.
          4    1    6    6  503    0  0.95240853223E+02  0.16314120654E+03 -0.20898848080E+03  0.28171272335E+03  0.00000000000E+00 0. -1.
         -4    1    6    6    0  503  0.34916911536E+01  0.43991381730E+01 -0.73494763188E+02  0.73709053309E+02  0.00000000000E+00 0.  1.
<mgrwt>
<rscale>  0 0.24813331E+04</rscale>
<asrwt>0</asrwt>
<pdfrwt beam="1">  1        2 0.45169734E+00 0.24813331E+04</pdfrwt>
<pdfrwt beam="2">  1       -1 0.80655857E-01 0.24813331E+04</pdfrwt>
<totfact> 0.29726821E+00</totfact>
</mgrwt>
</event>
<event>
12    7  0.1661464E-007  0.1484324E+04  0.7818608E-02  0.8894945E-01
          2   -1    0    0  501    0  0.00000000000E+00  0.00000000000E+00  0.17291937359E+04  0.17291937359E+04  0.00000000000E+00 0. -1.
         -1   -1    0    0    0  501 -0.00000000000E+00 -0.00000000000E+00 -0.31853232713E+03  0.31853232713E+03  0.00000000000E+00 0.  1.
         24    2    1    2    0    0  0.28903640098E+03 -0.14119634496E+03 -0.16164811487E+02  0.33195543817E+03  0.80340916607E+02 0.  0.
        254    2    1    2    0    0 -0.28903640098E+03  0.14119634496E+03  0.14268262203E+04  0.17157706249E+04  0.89697119541E+03 0.  0.
         23    2    4    4    0    0 -0.42956380124E+03 -0.22578845166E+03  0.10634986927E+04  0.11726890561E+04  0.93084202911E+02 0.  0.
         23    2    4    4    0    0  0.14052740026E+03  0.36698479662E+03  0.36332752759E+03  0.54308156873E+03  0.92222051645E+02 0.  0.
          4    1    3    3  502    0  0.10326333930E+03 -0.88223393951E+02  0.13599871852E+02  0.13649776921E+03  0.00000000000E+00 0. -1.
         -3    1    3    3    0  502  0.18577306167E+03 -0.52972951009E+02 -0.29764683339E+02  0.19545766896E+03  0.00000000000E+00 0.  1.
         13    1    5    5    0    0 -0.99835125734E+02 -0.72766067080E+02  0.19070410588E+03  0.22722237752E+03  0.00000000000E+00 0. -1.
        -13    1    5    5    0    0 -0.32972867550E+03 -0.15302238458E+03  0.87279458679E+03  0.94546667861E+03  0.00000000000E+00 0.  1.
          3    1    6    6  503    0  0.13003343044E+03  0.26893273640E+03  0.31186556197E+03  0.43184909225E+03  0.00000000000E+00 0. -1.
         -3    1    6    6    0  503  0.10493969820E+02  0.98052060224E+02  0.51461965626E+02  0.11123247648E+03  0.00000000000E+00 0.  1.
<mgrwt>
<rscale>  0 0.14843236E+04</rscale>
<asrwt>0</asrwt>
<pdfrwt beam="1">  1        2 0.26602980E+00 0.14843236E+04</pdfrwt>
<pdfrwt beam="2">  1       -1 0.49004974E-01 0.14843236E+04</pdfrwt>
<totfact> 0.43415014E+01</totfact>
</mgrwt>
</event>
<event>
12    7  0.1661464E-007  0.2060945E+04  0.7818608E-02  0.8578645E-01
         -1   -1    0    0    0  501 -0.00000000000E+00  0.00000000000E+00  0.13533101837E+04  0.13533101837E+04  0.00000000000E+00 0.  1.
          2   -1    0    0  501    0  0.00000000000E+00 -0.00000000000E+00 -0.78464933065E+03  0.78464933065E+03  0.00000000000E+00 0. -1.
         24    2    1    2    0    0  0.97743711626E+02  0.45317296105E+03  0.95174605485E+03  0.10615873658E+04  0.78915249300E+02 0.  0.
        254    2    1    2    0    0 -0.97743711626E+02 -0.45317296105E+03 -0.38308520184E+03  0.10763721485E+04  0.89269432863E+03 0.  0.
         23    2    4    4    0    0  0.15046565392E+03  0.20237004446E+03  0.49381859369E+01  0.26859000258E+03  0.92318231693E+02 0.  0.
         23    2    4    4    0    0 -0.24820936555E+03 -0.65554300551E+03 -0.38802338778E+03  0.80778214590E+03  0.10298215648E+03 0.  0.
          4    1    3    3  502    0  0.44120828695E+01  0.90081771341E+02  0.12842178525E+03  0.15692783988E+03  0.00000000000E+00 0. -1.
         -3    1    3    3    0  502  0.93331628756E+02  0.36309118971E+03  0.82332426961E+03  0.90465952595E+03  0.00000000000E+00 0.  1.
         13    1    5    5    0    0  0.51302252730E+02  0.44635951768E+02 -0.37281019289E+02  0.77551039482E+02  0.00000000000E+00 0. -1.
        -13    1    5    5    0    0  0.99163401190E+02  0.15773409269E+03  0.42219205226E+02  0.19103896310E+03  0.00000000000E+00 0.  1.
          1    1    6    6  503    0 -0.18317290428E+02 -0.54775005809E+02 -0.24203078300E+01  0.57807285700E+02  0.00000000000E+00 0. -1.
         -1    1    6    6    0  503 -0.22989207512E+03 -0.60076799970E+03 -0.38560307995E+03  0.74997486020E+03  0.00000000000E+00 0.  1.
<mgrwt>
<rscale>  0 0.20609453E+04</rscale>
<asrwt>0</asrwt>
<pdfrwt beam="1">  1        2 0.12071528E+00 0.20609453E+04</pdfrwt>
<pdfrwt beam="2">  1       -1 0.20820157E+00 0.20609453E+04</pdfrwt>
<totfact> 0.49302124E+00</totfact>
</mgrwt>
</event>
<event>
12    7  0.1661464E-007  0.1051780E+04  0.7818608E-02  0.9253508E-01
         -1   -1    0    0    0  501 -0.00000000000E+00  0.00000000000E+00  0.22258068978E+03  0.22258068978E+03  0.00000000000E+00 0.  1.
          2   -1    0    0  501    0  0.00000000000E+00 -0.00000000000E+00 -0.12425178843E+04  0.12425178843E+04  0.00000000000E+00 0. -1.
         24    2    1    2    0    0 -0.10259252355E+03  0.38445998549E+02 -0.19184752576E+03  0.23439522627E+03  0.78309183794E+02 0.  0.
        254    2    1    2    0    0  0.10259252355E+03 -0.38445998549E+02 -0.82808966877E+03  0.12307033478E+04  0.90382238860E+03 0.  0.
         23    2    4    4    0    0 -0.59885676620E+02 -0.32717034923E+03 -0.81716973498E+03  0.88697895416E+03  0.91315703274E+02 0.  0.
         23    2    4    4    0    0  0.16247820017E+03  0.28872435068E+03 -0.10919933787E+02  0.34372439367E+03  0.90919181915E+02 0.  0.
          2    1    3    3  502    0 -0.24906907259E+02  0.98802616086E+00 -0.11875732101E+03  0.12134509268E+03  0.00000000000E+00 0. -1.
         -1    1    3    3    0  502 -0.77685616293E+02  0.37457972388E+02 -0.73090204747E+02  0.11305013359E+03  0.00000000000E+00 0.  1.
         13    1    5    5    0    0 -0.34202200062E+02 -0.18704978271E+03 -0.57935517005E+03  0.60976210506E+03  0.00000000000E+00 0. -1.
        -13    1    5    5    0    0 -0.25683476557E+02 -0.14012056652E+03 -0.23781456493E+03  0.27721684910E+03  0.00000000000E+00 0.  1.
          1    1    6    6  503    0  0.10424117122E+03  0.12618865620E+03  0.29719054014E+02  0.16635209918E+03  0.00000000000E+00 0. -1.
         -1    1    6    6    0  503  0.58237028955E+02  0.16253569448E+03 -0.40638987800E+02  0.17737229448E+03  0.00000000000E+00 0.  1.
<mgrwt>
<rscale>  0 0.10517804E+04</rscale>
<asrwt>0</asrwt>
<pdfrwt beam="1">  1        2 0.19115660E+00 0.10517804E+04</pdfrwt>
<pdfrwt beam="2">  1       -1 0.34243183E-01 0.10517804E+04</pdfrwt>
<totfact> 0.16343732E+02</totfact>
</mgrwt>
</event>
<event>
12    7  0.1661464E-007  0.1360432E+04  0.7818608E-02  0.8982969E-01
         -1   -1    0    0    0  501 -0.00000000000E+00  0.00000000000E+00  0.38187672061E+03  0.38187672061E+03  0.00000000000E+00 0.  1.
          2   -1    0    0  501    0  0.00000000000E+00 -0.00000000000E+00 -0.12116306906E+04  0.12116306906E+04  0.00000000000E+00 0. -1.
         24    2    1    2    0    0  0.24463726023E+02 -0.15803506997E+03  0.17757998087E+03  0.25225545699E+03  0.80775050273E+02 0.  0.
        254    2    1    2    0    0 -0.24463726023E+02  0.15803506997E+03 -0.10073339509E+04  0.13412519542E+04  0.87101180181E+03 0.  0.
         23    2    4    4    0    0 -0.30628506344E+03  0.30671812311E+03 -0.23671999736E+03  0.50234214997E+03  0.91786335319E+02 0.  0.
         23    2    4    4    0    0  0.28182133742E+03 -0.14868305314E+03 -0.77061395351E+03  0.83890980425E+03  0.91618108556E+02 0.  0.
          2    1    3    3  502    0  0.19379656177E+02  0.15036719038E+01  0.16706934414E+02  0.25631109228E+02  0.00000000000E+00 0. -1.
         -1    1    3    3    0  502  0.50840698457E+01 -0.15953874187E+03  0.16087304646E+03  0.22662434776E+03  0.00000000000E+00 0.  1.
         13    1    5    5    0    0  0.62690174749E+01  0.10044008483E+02 -0.94510140862E+01  0.15149401103E+02  0.00000000000E+00 0.  1.
        -13    1    5    5    0    0 -0.31255408092E+03  0.29667411462E+03 -0.22726898327E+03  0.48719274886E+03  0.00000000000E+00 0. -1.
          3    1    6    6  503    0  0.18909489740E+03 -0.12378220535E+03 -0.62388627484E+03  0.66356084764E+03  0.00000000000E+00 0. -1.
         -3    1    6    6    0  503  0.92726440016E+02 -0.24900847796E+02 -0.14672767867E+03  0.17534895662E+03  0.00000000000E+00 0.  1.
<mgrwt>
<rscale>  0 0.13604316E+04</rscale>
<asrwt>0</asrwt>
<pdfrwt beam="1">  1        2 0.18640472E+00 0.13604316E+04</pdfrwt>
<pdfrwt beam="2">  1       -1 0.58750265E-01 0.13604316E+04</pdfrwt>
<totfact> 0.60905340E+01</totfact>
</mgrwt>
</event>
<event>
12    7  0.1661464E-007  0.1424579E+04  0.7818608E-02  0.8936216E-01
         -1   -1    0    0    0  501 -0.00000000000E+00  0.00000000000E+00  0.54203279323E+03  0.54203279323E+03  0.00000000000E+00 0.  1.
          2   -1    0    0  501    0  0.00000000000E+00 -0.00000000000E+00 -0.93602573765E+03  0.93602573765E+03  0.00000000000E+00 0. -1.
         24    2    1    2    0    0  0.17263855285E+03  0.73066915447E+02  0.27497108379E+03  0.34113205941E+03  0.74960929630E+02 0.  0.
        254    2    1    2    0    0 -0.17263855285E+03 -0.73066915447E+02 -0.66896402821E+03  0.11369264715E+04  0.89997004752E+03 0.  0.
         23    2    4    4    0    0 -0.23973436409E+03  0.36264974202E+03 -0.46438846770E+03  0.64242425195E+03  0.89804620409E+02 0.  0.
         23    2    4    4    0    0  0.67095811242E+02 -0.43571665747E+03 -0.20457556051E+03  0.49450221952E+03  0.91271198495E+02 0.  0.
          2    1    3    3  502    0  0.17860446813E+02  0.71265305825E+01  0.85989411417E+02  0.88113346744E+02  0.00000000000E+00 0. -1.
         -1    1    3    3    0  502  0.15477810604E+03  0.65940384864E+02  0.18898167237E+03  0.25301871266E+03  0.00000000000E+00 0.  1.
         13    1    5    5    0    0 -0.12432932402E+03  0.12329994912E+03 -0.14811835969E+03  0.22934625949E+03  0.00000000000E+00 0. -1.
        -13    1    5    5    0    0 -0.11540504007E+03  0.23934979290E+03 -0.31627010801E+03  0.41307799246E+03  0.00000000000E+00 0.  1.
          3    1    6    6  503    0 -0.93577163034E+01 -0.52812490017E+01 -0.13868844892E+02  0.17544323984E+02  0.00000000000E+00 0. -1.
         -3    1    6    6    0  503  0.76453527545E+02 -0.43043540847E+03 -0.19070671562E+03  0.47695789554E+03  0.00000000000E+00 0.  1.
<mgrwt>
<rscale>  0 0.14245794E+04</rscale>
<asrwt>0</asrwt>
<pdfrwt beam="1">  1        2 0.14400396E+00 0.14245794E+04</pdfrwt>
<pdfrwt beam="2">  1       -1 0.83389660E-01 0.14245794E+04</pdfrwt>
<totfact> 0.43892272E+01</totfact>
</mgrwt>
</event>
<event>
12    7  0.1661464E-007  0.1307741E+04  0.7818608E-02  0.9023449E-01
          2   -1    0    0  501    0  0.00000000000E+00  0.00000000000E+00  0.13067791822E+04  0.13067791822E+04  0.00000000000E+00 0. -1.
         -1   -1    0    0    0  501 -0.00000000000E+00 -0.00000000000E+00 -0.32717578474E+03  0.32717578474E+03  0.00000000000E+00 0.  1.
         24    2    1    2    0    0  0.12145172676E+03 -0.84648505339E+02 -0.78712625548E+02  0.18598570631E+03  0.80492944662E+02 0.  0.
        254    2    1    2    0    0 -0.12145172676E+03  0.84648505339E+02  0.10583160230E+04  0.14479692606E+04  0.97707025529E+03 0.  0.
         23    2    4    4    0    0 -0.34249858921E+03  0.43022821587E+03  0.70424889450E+03  0.89824518856E+03  0.92066888861E+02 0.  0.
         23    2    4    4    0    0  0.22104686244E+03 -0.34557971053E+03  0.35406712850E+03  0.54972407206E+03  0.92444427635E+02 0.  0.
          4    1    3    3  502    0 -0.53697834890E+01  0.92172031826E+01 -0.62303567128E+01  0.12353491571E+02  0.00000000000E+00 0. -1.
         -3    1    3    3    0  502  0.12682151025E+03 -0.93865708522E+02 -0.72482268836E+02  0.17363221474E+03  0.00000000000E+00 0.  1.
         13    1    5    5    0    0 -0.16091861406E+03  0.13227060838E+03  0.24832990354E+03  0.32412660364E+03  0.00000000000E+00 0.  1.
        -13    1    5    5    0    0 -0.18157997514E+03  0.29795760749E+03  0.45591899096E+03  0.57411858492E+03  0.00000000000E+00 0. -1.
          4    1    6    6  503    0  0.10933139749E+03 -0.24551569025E+03  0.20259924201E+03  0.33656761802E+03  0.00000000000E+00 0. -1.
         -4    1    6    6    0  503  0.11171546495E+03 -0.10006402027E+03  0.15146788649E+03  0.21315645405E+03  0.00000000000E+00 0.  1.
<mgrwt>
<rscale>  0 0.13077408E+04</rscale>
<asrwt>0</asrwt>
<pdfrwt beam="1">  1        2 0.20104295E+00 0.13077408E+04</pdfrwt>
<pdfrwt beam="2">  1       -1 0.50334737E-01 0.13077408E+04</pdfrwt>
<totfact> 0.72478254E+01</totfact>
</mgrwt>
</event>
<event>
12    7  0.1661464E-007  0.1222926E+04  0.7818608E-02  0.9093023E-01
         -1   -1    0    0    0  501 -0.00000000000E+00  0.00000000000E+00  0.45074286502E+03  0.45074286502E+03  0.00000000000E+00 0.  1.
          2   -1    0    0  501    0  0.00000000000E+00 -0.00000000000E+00 -0.82949055723E+03  0.82949055723E+03  0.00000000000E+00 0. -1.
         24    2    1    2    0    0 -0.47767587126E+02  0.23075797030E+02  0.18864433693E+03  0.21186285370E+03  0.80529175658E+02 0.  0.
        254    2    1    2    0    0  0.47767587126E+02 -0.23075797030E+02 -0.56739202914E+03  0.10683705686E+04  0.90369669814E+03 0.  0.
         23    2    4    4    0    0 -0.37308444839E+03 -0.15669022263E+03 -0.11767777245E+03  0.43138080308E+03  0.92181926890E+02 0.  0.
         23    2    4    4    0    0  0.42085203551E+03  0.13361442560E+03 -0.44971425669E+03  0.63698976547E+03  0.92432668028E+02 0.  0.
          4    1    3    3  502    0  0.20643921640E+02  0.18426109582E+02  0.60445589993E+02  0.66478284910E+02  0.00000000000E+00 0. -1.
         -3    1    3    3    0  502 -0.68411508765E+02  0.46496874481E+01  0.12819874694E+03  0.14538456879E+03  0.00000000000E+00 0.  1.
         13    1    5    5    0    0 -0.24929420467E+03 -0.14999750369E+03 -0.78014128774E+02  0.30121928206E+03  0.00000000000E+00 0.  1.
        -13    1    5    5    0    0 -0.12379024371E+03 -0.66927189396E+01 -0.39663643678E+02  0.13016152103E+03  0.00000000000E+00 0. -1.
          3    1    6    6  503    0  0.13419452722E+03 -0.13357916792E+01 -0.13961367624E+03  0.19365416099E+03  0.00000000000E+00 0. -1.
         -3    1    6    6    0  503  0.28665750829E+03  0.13495021728E+03 -0.31010058045E+03  0.44333560448E+03  0.00000000000E+00 0.  1.
<mgrwt>
<rscale>  0 0.12229259E+04</rscale>
<asrwt>0</asrwt>
<pdfrwt beam="1">  1        2 0.12761393E+00 0.12229259E+04</pdfrwt>
<pdfrwt beam="2">  1       -1 0.69345056E-01 0.12229259E+04</pdfrwt>
<totfact> 0.77644602E+01</totfact>
</mgrwt>
</event>
<event>
12    7  0.1661464E-007  0.1727605E+04  0.7818608E-02  0.8745775E-01
          2   -1    0    0  501    0  0.00000000000E+00  0.00000000000E+00  0.13310623851E+04  0.13310623851E+04  0.00000000000E+00 0. -1.
         -1   -1    0    0    0  501 -0.00000000000E+00 -0.00000000000E+00 -0.56057057705E+03  0.56057057705E+03  0.00000000000E+00 0.  1.
         24    2    1    2    0    0  0.48025199142E+03  0.14706147270E+03  0.68533741460E+03  0.85338683237E+03  0.79452261165E+02 0.  0.
        254    2    1    2    0    0 -0.48025199142E+03 -0.14706147270E+03  0.85154393468E+02  0.10382461298E+04  0.90467381042E+03 0.  0.
         23    2    4    4    0    0  0.16528847945E+03 -0.76102492590E+02  0.28804888343E+03  0.35207705673E+03  0.88736823313E+02 0.  0.
         23    2    4    4    0    0 -0.64554047087E+03 -0.70958980110E+02 -0.20289448996E+03  0.68616907305E+03  0.88905266267E+02 0.  0.
          4    1    3    3  502    0  0.44998586902E+03  0.12146443327E+03  0.65273759406E+03  0.80206437246E+03  0.00000000000E+00 0. -1.
         -3    1    3    3    0  502  0.30266122401E+02  0.25597039425E+02  0.32599820534E+02  0.51322459912E+02  0.00000000000E+00 0.  1.
         13    1    5    5    0    0  0.88490366709E+02  0.76462390346E+01  0.12646337302E+03  0.15453800402E+03  0.00000000000E+00 0.  1.
        -13    1    5    5    0    0  0.76798112740E+02 -0.83748731625E+02  0.16158551041E+03  0.19753905270E+03  0.00000000000E+00 0. -1.
          4    1    6    6  503    0 -0.60922198466E+03 -0.56567676112E+02 -0.16979374990E+03  0.63496554716E+03  0.00000000000E+00 0.  1.
         -4    1    6    6    0  503 -0.36318486209E+02 -0.14391303998E+02 -0.33100740065E+02  0.51203525896E+02  0.00000000000E+00 0. -1.
<mgrwt>
<rscale>  0 0.17276046E+04</rscale>
<asrwt>0</asrwt>
<pdfrwt beam="1">  1        2 0.20477883E+00 0.17276046E+04</pdfrwt>
<pdfrwt beam="2">  1       -1 0.86241628E-01 0.17276046E+04</pdfrwt>
<totfact> 0.22768797E+01</totfact>
</mgrwt>
</event>
<event>
12    7  0.1661464E-007  0.1033869E+04  0.7818608E-02  0.9272159E-01
          2   -1    0    0  501    0  0.00000000000E+00  0.00000000000E+00  0.10725450586E+04  0.10725450586E+04  0.00000000000E+00 0. -1.
         -1   -1    0    0    0  501 -0.00000000000E+00 -0.00000000000E+00 -0.24914686433E+03  0.24914686433E+03  0.00000000000E+00 0.  1.
         24    2    1    2    0    0 -0.96713359429E+02 -0.43468222571E+01  0.12546912038E+03  0.17788064430E+03  0.80787713733E+02 0.  0.
        254    2    1    2    0    0  0.96713359429E+02  0.43468222571E+01  0.69792907394E+03  0.11438112787E+04  0.90101436183E+03 0.  0.
         23    2    4    4    0    0 -0.15032453946E+03 -0.18753954242E+03 -0.10697160318E+03  0.27543543590E+03  0.81567201311E+02 0.  0.
         23    2    4    4    0    0  0.24703789889E+03  0.19188636468E+03  0.80490067712E+03  0.86837584277E+03  0.91451647588E+02 0.  0.
          2    1    3    3  502    0 -0.76053540377E+02 -0.25925949988E+02  0.12426731316E+03  0.14798196176E+03  0.00000000000E+00 0. -1.
         -1    1    3    3    0  502 -0.20659819052E+02  0.21579127731E+02  0.12018072240E+01  0.29898682538E+02  0.00000000000E+00 0.  1.
         13    1    5    5    0    0 -0.26632535094E+02 -0.91228528260E+02 -0.57367632585E+02  0.11100892560E+03  0.00000000000E+00 0. -1.
        -13    1    5    5    0    0 -0.12369200437E+03 -0.96311014158E+02 -0.49603970598E+02  0.16442651031E+03  0.00000000000E+00 0.  1.
          4    1    6    6  503    0  0.82311436633E+02  0.56643555967E+02  0.15495362461E+03  0.18437540728E+03  0.00000000000E+00 0. -1.
         -4    1    6    6    0  503  0.16472646226E+03  0.13524280871E+03  0.64994705251E+03  0.68400043549E+03  0.00000000000E+00 0.  1.
<mgrwt>
<rscale>  0 0.10338689E+04</rscale>
<asrwt>0</asrwt>
<pdfrwt beam="1">  1        2 0.16500693E+00 0.10338689E+04</pdfrwt>
<pdfrwt beam="2">  1       -1 0.38330287E-01 0.10338689E+04</pdfrwt>
<totfact> 0.16933340E+02</totfact>
</mgrwt>
</event>
<event>
12    7  0.1661464E-007  0.1695331E+04  0.7818608E-02  0.8764031E-01
          2   -1    0    0  501    0  0.00000000000E+00  0.00000000000E+00  0.65899767180E+03  0.65899767180E+03  0.00000000000E+00 0. -1.
         -1   -1    0    0    0  501 -0.00000000000E+00 -0.00000000000E+00 -0.10903485720E+04  0.10903485720E+04  0.00000000000E+00 0.  1.
         24    2    1    2    0    0 -0.18560086422E+03 -0.11145469231E+03 -0.74601722596E+03  0.78073521603E+03  0.78332284997E+02 0.  0.
        254    2    1    2    0    0  0.18560086422E+03  0.11145469231E+03  0.31466632579E+03  0.96861102774E+03  0.89012504584E+03 0.  0.
         23    2    4    4    0    0  0.22877591188E+03 -0.12046969818E+03  0.55521204271E+03  0.61962185910E+03  0.93912032628E+02 0.  0.
         23    2    4    4    0    0 -0.43175047658E+02  0.23192439048E+03 -0.24054571692E+03  0.34898916864E+03  0.90984560545E+02 0.  0.
          2    1    3    3  502    0 -0.46143184004E+02 -0.56216868671E+02 -0.15879348738E+03  0.17465652403E+03  0.00000000000E+00 0. -1.
         -3    1    3    3    0  502 -0.13945768022E+03 -0.55237823636E+02 -0.58722373859E+03  0.60607869200E+03  0.00000000000E+00 0.  1.
         13    1    5    5    0    0  0.14321319403E+03 -0.10888569668E+03  0.29575388980E+03  0.34617405624E+03  0.00000000000E+00 0. -1.
        -13    1    5    5    0    0  0.85562717857E+02 -0.11584001500E+02  0.25945815291E+03  0.27344780286E+03  0.00000000000E+00 0.  1.
          1    1    6    6  503    0 -0.44432506517E+02  0.12060043545E+03 -0.72948705234E+02  0.14778439113E+03  0.00000000000E+00 0. -1.
         -1    1    6    6    0  503  0.12574588598E+01  0.11132395504E+03 -0.16759701168E+03  0.20120477751E+03  0.00000000000E+00 0.  1.
<mgrwt>
<rscale>  0 0.16953314E+04</rscale>
<asrwt>0</asrwt>
<pdfrwt beam="1">  1        2 0.10138426E+00 0.16953314E+04</pdfrwt>
<pdfrwt beam="2">  1       -1 0.16774593E+00 0.16953314E+04</pdfrwt>
<totfact> 0.12286208E+01</totfact>
</mgrwt>
</event>
<event>
12    7  0.1661464E-007  0.1432258E+04  0.7818608E-02  0.8930794E-01
         -1   -1    0    0    0  501 -0.00000000000E+00  0.00000000000E+00  0.44012264618E+03  0.44012264618E+03  0.00000000000E+00 0.  1.
          2   -1    0    0  501    0  0.00000000000E+00 -0.00000000000E+00 -0.11652228201E+04  0.11652228201E+04  0.00000000000E+00 0. -1.
         24    2    1    2    0    0  0.11829373836E+02  0.42365211729E+03 -0.16209399636E+03  0.46060694769E+03  0.79140672463E+02 0.  0.
        254    2    1    2    0    0 -0.11829373836E+02 -0.42365211729E+03 -0.56300617754E+03  0.11447385186E+04  0.90212486350E+03 0.  0.
         23    2    4    4    0    0  0.38277796255E+02 -0.26372300051E+03 -0.79574241636E+03  0.84404160461E+03  0.90472241202E+02 0.  0.
         23    2    4    4    0    0 -0.50107170091E+02 -0.15992911678E+03  0.23273623882E+03  0.30069691395E+03  0.90357215056E+02 0.  0.
          2    1    3    3  502    0 -0.65267216257E+01  0.28512610070E+03 -0.14464816675E+03  0.31978521470E+03  0.00000000000E+00 0. -1.
         -1    1    3    3    0  502  0.18356095462E+02  0.13852601659E+03 -0.17445829608E+02  0.14082173299E+03  0.00000000000E+00 0.  1.
         13    1    5    5    0    0  0.17940791772E+02 -0.12062261503E+03 -0.50285775727E+03  0.51743367818E+03  0.00000000000E+00 0. -1.
        -13    1    5    5    0    0  0.20337004483E+02 -0.14310038548E+03 -0.29288465909E+03  0.32660792642E+03  0.00000000000E+00 0.  1.
          4    1    6    6  503    0 -0.14247823934E+02 -0.14108543239E+02 -0.39086049297E+01  0.20428623832E+02  0.00000000000E+00 0. -1.
         -4    1    6    6    0  503 -0.35859346157E+02 -0.14582057354E+03  0.23664484375E+03  0.28026829012E+03  0.00000000000E+00 0.  1.
<mgrwt>
<rscale>  0 0.14322583E+04</rscale>
<asrwt>0</asrwt>
<pdfrwt beam="1">  1        2 0.17926505E+00 0.14322583E+04</pdfrwt>
<pdfrwt beam="2">  1       -1 0.67711176E-01 0.14322583E+04</pdfrwt>
<totfact> 0.48612309E+01</totfact>
</mgrwt>
</event>
<event>
12    7  0.1661464E-007  0.1959752E+04  0.7818608E-02  0.8625673E-01
          2   -1    0    0  501    0  0.00000000000E+00  0.00000000000E+00  0.19011561424E+04  0.19011561424E+04  0.00000000000E+00 0. -1.
         -1   -1    0    0    0  501 -0.00000000000E+00 -0.00000000000E+00 -0.50503842539E+03  0.50503842539E+03  0.00000000000E+00 0.  1.
         24    2    1    2    0    0 -0.34051400968E+03  0.65304563450E+03  0.27086164097E+03  0.78939039292E+03  0.85748308214E+02 0.  0.
        254    2    1    2    0    0  0.34051400968E+03 -0.65304563450E+03  0.11252560761E+04  0.16168041749E+04  0.89746092490E+03 0.  0.
         23    2    4    4    0    0  0.48056121302E+02 -0.59434881959E+03  0.19338743848E+03  0.63331449479E+03  0.90158958530E+02 0.  0.
         23    2    4    4    0    0  0.29245788838E+03 -0.58696814904E+02  0.93186863759E+03  0.98348968011E+03  0.99477940281E+02 0.  0.
          2    1    3    3  502    0 -0.36152482932E+01  0.48612493216E+02  0.93132414608E+01  0.49628429185E+02  0.00000000000E+00 0. -1.
         -1    1    3    3    0  502 -0.33689876139E+03  0.60443314128E+03  0.26154839951E+03  0.73976196373E+03  0.00000000000E+00 0.  1.
         13    1    5    5    0    0 -0.30822069900E+01 -0.44090116694E+03  0.15176534233E+03  0.46630039475E+03  0.00000000000E+00 0.  1.
        -13    1    5    5    0    0  0.51138328293E+02 -0.15344765265E+03  0.41622096154E+02  0.16701410004E+03  0.00000000000E+00 0. -1.
          2    1    6    6  503    0  0.10182719284E+03 -0.49112390072E+01  0.18985786299E+03  0.21549688074E+03  0.00000000000E+00 0. -1.
         -2    1    6    6    0  503  0.19063069553E+03 -0.53785575896E+02  0.74201077460E+03  0.76799279937E+03  0.00000000000E+00 0.  1.
<mgrwt>
<rscale>  0 0.19597519E+04</rscale>
<asrwt>0</asrwt>
<pdfrwt beam="1">  1        2 0.29248556E+00 0.19597519E+04</pdfrwt>
<pdfrwt beam="2">  1       -1 0.77698220E-01 0.19597519E+04</pdfrwt>
<totfact> 0.13355753E+01</totfact>
</mgrwt>
</event>
<event>
12    7  0.1661464E-007  0.1235266E+04  0.7818608E-02  0.9082536E-01
          2   -1    0    0  501    0  0.00000000000E+00  0.00000000000E+00  0.78404999645E+03  0.78404999645E+03  0.00000000000E+00 0. -1.
         -1   -1    0    0    0  501 -0.00000000000E+00 -0.00000000000E+00 -0.48653831884E+03  0.48653831884E+03  0.00000000000E+00 0.  1.
         24    2    1    2    0    0  0.22813241993E+03  0.35843262391E+02  0.23247310503E+03  0.33703537676E+03  0.78866723908E+02 0.  0.
        254    2    1    2    0    0 -0.22813241993E+03 -0.35843262391E+02  0.65038572575E+02  0.93355293853E+03  0.90219838873E+03 0.  0.
         23    2    4    4    0    0 -0.28870356416E+03  0.26141804361E+02  0.44171158196E+03  0.53612956885E+03  0.91063994343E+02 0.  0.
         23    2    4    4    0    0  0.60571144228E+02 -0.61985066752E+02 -0.37667300938E+03  0.39742336968E+03  0.92475763102E+02 0.  0.
          4    1    3    3  502    0  0.12809692043E+03  0.30442661006E+01  0.17560405616E+03  0.21738186014E+03  0.00000000000E+00 0. -1.
         -1    1    3    3    0  502  0.10003549951E+03  0.32798996290E+02  0.56869048872E+02  0.11965351662E+03  0.00000000000E+00 0.  1.
         13    1    5    5    0    0 -0.19426139850E+02  0.27569755879E+02  0.37504878579E+02  0.50438896359E+02  0.00000000000E+00 0. -1.
        -13    1    5    5    0    0 -0.26927742431E+03 -0.14279515176E+01  0.40420670338E+03  0.48569067249E+03  0.00000000000E+00 0.  1.
          3    1    6    6  503    0  0.93090389578E+01 -0.61554149551E+02 -0.11493164847E+03  0.13070904848E+03  0.00000000000E+00 0. -1.
         -3    1    6    6    0  503  0.51262105270E+02 -0.43091720139E+00 -0.26174136091E+03  0.26671432121E+03  0.00000000000E+00 0.  1.
<mgrwt>
<rscale>  0 0.12352657E+04</rscale>
<asrwt>0</asrwt>
<pdfrwt beam="1">  1        2 0.12062308E+00 0.12352657E+04</pdfrwt>
<pdfrwt beam="2">  1       -1 0.74852049E-01 0.12352657E+04</pdfrwt>
<totfact> 0.71421423E+01</totfact>
</mgrwt>
</event>
<event>
12    7  0.1661464E-007  0.1623809E+04  0.7818608E-02  0.8806053E-01
         -1   -1    0    0    0  501 -0.00000000000E+00  0.00000000000E+00  0.57878881189E+03  0.57878881189E+03  0.00000000000E+00 0.  1.
          2   -1    0    0  501    0  0.00000000000E+00 -0.00000000000E+00 -0.11389116402E+04  0.11389116402E+04  0.00000000000E+00 0. -1.
         24    2    1    2    0    0 -0.46411895559E+03 -0.24689508036E+03  0.75210331714E+01  0.53151776540E+03  0.78044752205E+02 0.  0.
        254    2    1    2    0    0  0.46411895559E+03  0.24689508036E+03 -0.56764386151E+03  0.11861826867E+04  0.89913637850E+03 0.  0.
         23    2    4    4    0    0  0.13673745489E+03 -0.21123996790E+03 -0.55407619537E+03  0.61543702031E+03  0.91884928501E+02 0.  0.
         23    2    4    4    0    0  0.32738150071E+03  0.45813504825E+03 -0.13567666144E+02  0.57074566642E+03  0.92196337967E+02 0.  0.
          2    1    3    3  502    0 -0.11207946423E+03 -0.27410190187E+02 -0.13258508969E+02  0.11614177926E+03  0.00000000000E+00 0. -1.
         -1    1    3    3    0  502 -0.35203949136E+03 -0.21948489017E+03  0.20779542140E+02  0.41537598614E+03  0.00000000000E+00 0.  1.
         13    1    5    5    0    0  0.20211438205E+02 -0.10432926886E+03 -0.27256666881E+03  0.29255031622E+03  0.00000000000E+00 0.  1.
        -13    1    5    5    0    0  0.11652601668E+03 -0.10691069903E+03 -0.28150952656E+03  0.32288670408E+03  0.00000000000E+00 0. -1.
          1    1    6    6  503    0  0.19415638064E+03  0.30324193737E+03  0.31764738701E+02  0.36147112105E+03  0.00000000000E+00 0. -1.
         -1    1    6    6    0  503  0.13322512006E+03  0.15489311088E+03 -0.45332404845E+02  0.20927454538E+03  0.00000000000E+00 0.  1.
<mgrwt>
<rscale>  0 0.16238095E+04</rscale>
<asrwt>0</asrwt>
<pdfrwt beam="1">  1        2 0.17521717E+00 0.16238095E+04</pdfrwt>
<pdfrwt beam="2">  1       -1 0.89044434E-01 0.16238095E+04</pdfrwt>
<totfact> 0.27843061E+01</totfact>
</mgrwt>
</event>
<event>
12    7  0.1661464E-007  0.2165600E+04  0.7818608E-02  0.8532884E-01
         -1   -1    0    0    0  501 -0.00000000000E+00  0.00000000000E+00  0.88134757485E+03  0.88134757485E+03  0.00000000000E+00 0.  1.
          2   -1    0    0  501    0  0.00000000000E+00 -0.00000000000E+00 -0.13302988163E+04  0.13302988163E+04  0.00000000000E+00 0. -1.
         24    2    1    2    0    0  0.43088397961E+03 -0.64048694134E+03 -0.65262842087E+03  0.10139171237E+04  0.78864136934E+02 0.  0.
        254    2    1    2    0    0 -0.43088397961E+03  0.64048694134E+03  0.20367717942E+03  0.11977292675E+04  0.89285299954E+03 0.  0.
         23    2    4    4    0    0 -0.54877600463E+03  0.40796419024E+03  0.45411129567E+03  0.82578662945E+03  0.90092201310E+02 0.  0.
         23    2    4    4    0    0  0.11789202502E+03  0.23252275109E+03 -0.25043411625E+03  0.37194263801E+03  0.87514113412E+02 0.  0.
          2    1    3    3  502    0  0.42924176227E+03 -0.61719259218E+03 -0.62428924613E+03  0.97719611601E+03  0.00000000000E+00 0. -1.
         -1    1    3    3    0  502  0.16422173392E+01 -0.23294349160E+02 -0.28339174740E+02  0.36721007687E+02  0.00000000000E+00 0.  1.
         13    1    5    5    0    0 -0.47202528346E+03  0.30986271039E+03  0.35956155787E+03  0.66940815757E+03  0.00000000000E+00 0. -1.
        -13    1    5    5    0    0 -0.76750721164E+02  0.98101479851E+02  0.94549737801E+02  0.15637847188E+03  0.00000000000E+00 0.  1.
          2    1    6    6  503    0  0.48311522650E+02  0.16608640793E+03 -0.12287371563E+03  0.21217127071E+03  0.00000000000E+00 0. -1.
         -2    1    6    6    0  503  0.69580502367E+02  0.66436343160E+02 -0.12756040062E+03  0.15977136730E+03  0.00000000000E+00 0.  1.
<mgrwt>
<rscale>  0 0.21655998E+04</rscale>
<asrwt>0</asrwt>
<pdfrwt beam="1">  1        2 0.20466136E+00 0.21655998E+04</pdfrwt>
<pdfrwt beam="2">  1       -1 0.13559193E+00 0.21655998E+04</pdfrwt>
<totfact> 0.75536437E+00</totfact>
</mgrwt>
</event>
<event>
12    7  0.1661464E-007  0.1334676E+04  0.7818608E-02  0.9002510E-01
          2   -1    0    0  501    0  0.00000000000E+00  0.00000000000E+00  0.15453514837E+04  0.15453514837E+04  0.00000000000E+00 0. -1.
         -1   -1    0    0    0  501 -0.00000000000E+00 -0.00000000000E+00 -0.28818028391E+03  0.28818028391E+03  0.00000000000E+00 0.  1.
         24    2    1    2    0    0  0.15820753252E+03  0.15051262645E+03 -0.55897325436E+02  0.23901896638E+03  0.79510258656E+02 0.  0.
        254    2    1    2    0    0 -0.15820753252E+03 -0.15051262645E+03  0.13130685253E+04  0.15945128013E+04  0.87786015247E+03 0.  0.
         23    2    4    4    0    0 -0.70446262204E+02  0.32525393697E+03  0.85645470966E+03  0.92305993575E+03  0.88159945051E+02 0.  0.
         23    2    4    4    0    0 -0.87761270318E+02 -0.47576656342E+03  0.45661381561E+03  0.67145286552E+03  0.91087378787E+02 0.  0.
          4    1    3    3  502    0  0.44066760365E+02  0.52043808899E+02 -0.56051253003E+02  0.88273327665E+02  0.00000000000E+00 0. -1.
         -3    1    3    3    0  502  0.11414077216E+03  0.98468817547E+02  0.15392756728E+00  0.15074563871E+03  0.00000000000E+00 0.  1.
         13    1    5    5    0    0 -0.33054248024E+02  0.54952142640E+02  0.24909009383E+03  0.25721235612E+03  0.00000000000E+00 0.  1.
        -13    1    5    5    0    0 -0.37392014180E+02  0.27030179433E+03  0.60736461582E+03  0.66584757963E+03  0.00000000000E+00 0. -1.
          3    1    6    6  503    0 -0.88557386477E+02 -0.47869066781E+03  0.45774338422E+03  0.66821865579E+03  0.00000000000E+00 0. -1.
         -3    1    6    6    0  503  0.79611615882E+00  0.29241043875E+01 -0.11295686021E+01  0.32342097388E+01  0.00000000000E+00 0.  1.
<mgrwt>
<rscale>  0 0.13346757E+04</rscale>
<asrwt>0</asrwt>
<pdfrwt beam="1">  1        2 0.23774638E+00 0.13346757E+04</pdfrwt>
<pdfrwt beam="2">  1       -1 0.44335429E-01 0.13346757E+04</pdfrwt>
<totfact> 0.67128726E+01</totfact>
</mgrwt>
</event>
<event>
12    7  0.1661464E-007  0.2077208E+04  0.7818608E-02  0.8571350E-01
          2   -1    0    0  501    0  0.00000000000E+00  0.00000000000E+00  0.13830718949E+04  0.13830718949E+04  0.00000000000E+00 0. -1.
         -1   -1    0    0    0  501 -0.00000000000E+00 -0.00000000000E+00 -0.77992961968E+03  0.77992961968E+03  0.00000000000E+00 0.  1.
         24    2    1    2    0    0 -0.21754931101E+03  0.37254252096E+03  0.10001217965E+04  0.10919671815E+04  0.77672936217E+02 0.  0.
        254    2    1    2    0    0  0.21754931101E+03 -0.37254252096E+03 -0.39697952120E+03  0.10710343332E+04  0.89632927538E+03 0.  0.
         23    2    4    4    0    0 -0.17226173639E+03  0.23407194053E+02 -0.46435434942E+03  0.50405478543E+03  0.90687718775E+02 0.  0.
         23    2    4    4    0    0  0.38981104739E+03 -0.39594971501E+03  0.67374828217E+02  0.56697954772E+03  0.90540656986E+02 0.  0.
          2    1    3    3  502    0 -0.18059440730E+03  0.35300126829E+03  0.90838566256E+03  0.99115525893E+03  0.00000000000E+00 0. -1.
         -1    1    3    3    0  502 -0.36954903703E+02  0.19541252662E+02  0.91736133905E+02  0.10081192254E+03  0.00000000000E+00 0.  1.
         13    1    5    5    0    0 -0.11134984698E+03  0.57323578661E+02 -0.32334778768E+03  0.34675434084E+03  0.00000000000E+00 0.  1.
        -13    1    5    5    0    0 -0.60911889406E+02 -0.33916384608E+02 -0.14100656174E+03  0.15730044460E+03  0.00000000000E+00 0. -1.
          3    1    6    6  503    0  0.32081652203E+02 -0.36423642987E+02 -0.19696461295E+02  0.52381912566E+02  0.00000000000E+00 0. -1.
         -3    1    6    6    0  503  0.35772939519E+03 -0.35952607202E+03  0.87071289512E+02  0.51459763515E+03  0.00000000000E+00 0.  1.
<mgrwt>
<rscale>  0 0.20772085E+04</rscale>
<asrwt>0</asrwt>
<pdfrwt beam="1">  1        2 0.21278029E+00 0.20772085E+04</pdfrwt>
<pdfrwt beam="2">  1       -1 0.11998917E+00 0.20772085E+04</pdfrwt>
<totfact> 0.96416994E+00</totfact>
</mgrwt>
</event>
<event>
12    7  0.1661464E-007  0.1036210E+04  0.7818608E-02  0.9269698E-01
          2   -1    0    0  501    0  0.00000000000E+00  0.00000000000E+00  0.11313131576E+04  0.11313131576E+04  0.00000000000E+00 0. -1.
         -1   -1    0    0    0  501 -0.00000000000E+00 -0.00000000000E+00 -0.23727534120E+03  0.23727534120E+03  0.00000000000E+00 0.  1.
         24    2    1    2    0    0 -0.52805443452E+02 -0.45242637249E+02  0.51393901683E+01  0.10287323414E+03  0.75638468300E+02 0.  0.
        254    2    1    2    0    0  0.52805443452E+02  0.45242637249E+02  0.88889842621E+03  0.12657152647E+04  0.89836485237E+03 0.  0.
         23    2    4    4    0    0  0.46247669091E+03 -0.15439097201E+02  0.54626356457E+03  0.72121223048E+03  0.87293436485E+02 0.  0.
         23    2    4    4    0    0 -0.40967124746E+03  0.60681734450E+02  0.34263486164E+03  0.54450303418E+03  0.87017825328E+02 0.  0.
          4    1    3    3  502    0 -0.30859568912E+02 -0.38500300161E+02  0.38355010171E+02  0.62495543130E+02  0.00000000000E+00 0. -1.
         -3    1    3    3    0  502 -0.21945874540E+02 -0.67423370881E+01 -0.33215620003E+02  0.40377691005E+02  0.00000000000E+00 0.  1.
         13    1    5    5    0    0  0.52559879440E+02  0.84608066989E+01  0.10941735072E+03  0.12168107008E+03  0.00000000000E+00 0. -1.
        -13    1    5    5    0    0  0.40991681147E+03 -0.23899903900E+02  0.43684621385E+03  0.59953116040E+03  0.00000000000E+00 0.  1.
          3    1    6    6  503    0 -0.79686706640E+02  0.36957810772E+02  0.10644116818E+03  0.13800570016E+03  0.00000000000E+00 0. -1.
         -3    1    6    6    0  503 -0.32998454082E+03  0.23723923678E+02  0.23619369346E+03  0.40649733402E+03  0.00000000000E+00 0.  1.
<mgrwt>
<rscale>  0 0.10362099E+04</rscale>
<asrwt>0</asrwt>
<pdfrwt beam="1">  1        2 0.17404817E+00 0.10362099E+04</pdfrwt>
<pdfrwt beam="2">  1       -1 0.36503899E-01 0.10362099E+04</pdfrwt>
<totfact> 0.17011131E+02</totfact>
</mgrwt>
</event>
<event>
12    7  0.1661464E-007  0.1596534E+04  0.7818608E-02  0.8822680E-01
         -1   -1    0    0    0  501 -0.00000000000E+00  0.00000000000E+00  0.35570175620E+03  0.35570175620E+03  0.00000000000E+00 0.  1.
          2   -1    0    0  501    0  0.00000000000E+00 -0.00000000000E+00 -0.17914733649E+04  0.17914733649E+04  0.00000000000E+00 0. -1.
         24    2    1    2    0    0 -0.11964796118E+03 -0.29352554815E+03  0.96426258728E+02  0.34133776852E+03  0.82100955013E+02 0.  0.
        254    2    1    2    0    0  0.11964796118E+03  0.29352554815E+03 -0.15321978675E+04  0.18058373526E+04  0.90163482465E+03 0.  0.
         23    2    4    4    0    0  0.43190358268E+03 -0.62310949253E+01 -0.11094198591E+04  0.11943522929E+04  0.95317598566E+02 0.  0.
         23    2    4    4    0    0 -0.31225562150E+03  0.29975664308E+03 -0.42277800837E+03  0.61148505970E+03  0.88403142702E+02 0.  0.
          4    1    3    3  502    0 -0.75665491662E+02 -0.84056630180E+02  0.26396323090E+02  0.11613590994E+03  0.00000000000E+00 0. -1.
         -3    1    3    3    0  502 -0.43982469517E+02 -0.20946891797E+03  0.70029935638E+02  0.22520185858E+03  0.00000000000E+00 0.  1.
         13    1    5    5    0    0  0.38353671032E+03  0.92832422501E+01 -0.10386559508E+04  0.11072455784E+04  0.00000000000E+00 0.  1.
        -13    1    5    5    0    0  0.48366872357E+02 -0.15514337175E+02 -0.70763908315E+02  0.87106714550E+02  0.00000000000E+00 0. -1.
          3    1    6    6  503    0 -0.15752424439E+03  0.15533287717E+03 -0.27690351498E+03  0.35442593995E+03  0.00000000000E+00 0. -1.
         -3    1    6    6    0  503 -0.15473137711E+03  0.14442376591E+03 -0.14587449339E+03  0.25705911974E+03  0.00000000000E+00 0.  1.
<mgrwt>
<rscale>  0 0.15965340E+04</rscale>
<asrwt>0</asrwt>
<pdfrwt beam="1">  1        2 0.27561129E+00 0.15965340E+04</pdfrwt>
<pdfrwt beam="2">  1       -1 0.54723347E-01 0.15965340E+04</pdfrwt>
<totfact> 0.32159077E+01</totfact>
</mgrwt>
</event>
<event>
12    7  0.1661464E-007  0.2684784E+04  0.7818608E-02  0.8339959E-01
         -1   -1    0    0    0  501 -0.00000000000E+00  0.00000000000E+00  0.28190268623E+04  0.28190268623E+04  0.00000000000E+00 0.  1.
          2   -1    0    0  501    0  0.00000000000E+00 -0.00000000000E+00 -0.63923343232E+03  0.63923343232E+03  0.00000000000E+00 0. -1.
         24    2    1    2    0    0 -0.35509380451E+02  0.70067635366E+03  0.21989441123E+04  0.23095558687E+04  0.80528458948E+02 0.  0.
        254    2    1    2    0    0  0.35509380451E+02 -0.70067635366E+03 -0.19150682332E+02  0.11487044260E+04  0.90936617538E+03 0.  0.
         23    2    4    4    0    0 -0.94842227610E+01 -0.12310810889E+03  0.39948943188E+03  0.42804441314E+03  0.91567769871E+02 0.  0.
         23    2    4    4    0    0  0.44993603212E+02 -0.57756824477E+03 -0.41864011421E+03  0.72066001283E+03  0.92096727190E+02 0.  0.
          2    1    3    3  502    0 -0.40223804747E+02  0.15441264624E+03  0.52730190296E+03  0.55091607043E+03  0.00000000000E+00 0. -1.
         -1    1    3    3    0  502  0.47144242964E+01  0.54626370742E+03  0.16716422094E+04  0.17586397983E+04  0.00000000000E+00 0.  1.
         13    1    5    5    0    0 -0.44182117484E+02 -0.77330354806E+02  0.30232702743E+03  0.31517245247E+03  0.00000000000E+00 0.  1.
        -13    1    5    5    0    0  0.34697894723E+02 -0.45777754080E+02  0.97162404447E+02  0.11287196067E+03  0.00000000000E+00 0. -1.
          2    1    6    6  503    0 -0.19438450376E+02 -0.28634164354E+03 -0.18112337166E+03  0.33937452164E+03  0.00000000000E+00 0. -1.
         -2    1    6    6    0  503  0.64432053588E+02 -0.29122660124E+03 -0.23751674255E+03  0.38128549119E+03  0.00000000000E+00 0.  1.
<mgrwt>
<rscale>  0 0.26847840E+04</rscale>
<asrwt>0</asrwt>
<pdfrwt beam="1">  1        2 0.98343606E-01 0.26847840E+04</pdfrwt>
<pdfrwt beam="2">  1       -1 0.43369643E+00 0.26847840E+04</pdfrwt>
<totfact> 0.19271185E-01</totfact>
</mgrwt>
</event>
<event>
12    7  0.1661464E-007  0.1331038E+04  0.7818608E-02  0.9005307E-01
         -1   -1    0    0    0  501 -0.00000000000E+00  0.00000000000E+00  0.28815081377E+03  0.28815081377E+03  0.00000000000E+00 0.  1.
          2   -1    0    0  501    0  0.00000000000E+00 -0.00000000000E+00 -0.15370972405E+04  0.15370972405E+04  0.00000000000E+00 0. -1.
         24    2    1    2    0    0  0.27839455217E+02  0.15100861111E+03  0.93784944887E+02  0.19703378184E+03  0.80299809494E+02 0.  0.
        254    2    1    2    0    0 -0.27839455217E+02 -0.15100861111E+03 -0.13427313717E+04  0.16282142725E+04  0.90806142124E+03 0.  0.
         23    2    4    4    0    0  0.18822497111E+03 -0.37330504558E+03 -0.12017255186E+04  0.12756864597E+04  0.91904431137E+02 0.  0.
         23    2    4    4    0    0 -0.21606442633E+03  0.22229643447E+03 -0.14100585302E+03  0.35252781279E+03  0.91069572853E+02 0.  0.
          4    1    3    3  502    0 -0.20185242297E+02  0.95278818867E+02  0.37335686949E+02  0.10430460609E+03  0.00000000000E+00 0. -1.
         -3    1    3    3    0  502  0.48024697514E+02  0.55729792240E+02  0.56449257939E+02  0.92729175755E+02  0.00000000000E+00 0.  1.
         13    1    5    5    0    0  0.13590052817E+03 -0.27974759268E+03 -0.10000077498E+04  0.10472550639E+04  0.00000000000E+00 0. -1.
        -13    1    5    5    0    0  0.52324442944E+02 -0.93557452895E+02 -0.20171776886E+03  0.22843139582E+03  0.00000000000E+00 0.  1.
          4    1    6    6  503    0 -0.17240157841E+03  0.21540592564E+03 -0.13727827052E+03  0.30816771504E+03  0.00000000000E+00 0. -1.
         -4    1    6    6    0  503 -0.43662847921E+02  0.68905088305E+01 -0.37275825004E+01  0.44360097744E+02  0.00000000000E+00 0.  1.
<mgrwt>
<rscale>  0 0.13310384E+04</rscale>
<asrwt>0</asrwt>
<pdfrwt beam="1">  1        2 0.23647650E+00 0.13310384E+04</pdfrwt>
<pdfrwt beam="2">  1       -1 0.44330894E-01 0.13310384E+04</pdfrwt>
<totfact> 0.67880792E+01</totfact>
</mgrwt>
</event>
<event>
12    7  0.1661464E-007  0.1099310E+04  0.7818608E-02  0.9205865E-01
         -1   -1    0    0    0  501 -0.00000000000E+00  0.00000000000E+00  0.15788100495E+03  0.15788100495E+03  0.00000000000E+00 0.  1.
          2   -1    0    0  501    0  0.00000000000E+00 -0.00000000000E+00 -0.19135966520E+04  0.19135966520E+04  0.00000000000E+00 0. -1.
         24    2    1    2    0    0  0.92987812942E+02  0.99050949574E+01 -0.56160362233E+03  0.57492788211E+03  0.79991229162E+02 0.  0.
        254    2    1    2    0    0 -0.92987812942E+02 -0.99050949574E+01 -0.11941120248E+04  0.14965497749E+04  0.89722508701E+03 0.  0.
         23    2    4    4    0    0 -0.17123306100E+03 -0.40497280363E+03 -0.84083556839E+03  0.95329424257E+03  0.91878871312E+02 0.  0.
         23    2    4    4    0    0  0.78245248058E+02  0.39506770868E+03 -0.35327645638E+03  0.54325553231E+03  0.90119395672E+02 0.  0.
          2    1    3    3  502    0  0.71227857760E+02  0.27374750163E+02 -0.51489406180E+03  0.52051770339E+03  0.00000000000E+00 0. -1.
         -1    1    3    3    0  502  0.21759955181E+02 -0.17469655205E+02 -0.46709560537E+02  0.54410178718E+02  0.00000000000E+00 0.  1.
         13    1    5    5    0    0 -0.76486820566E+02 -0.24231533532E+03 -0.39913571326E+03  0.47315565414E+03  0.00000000000E+00 0.  1.
        -13    1    5    5    0    0 -0.94746240434E+02 -0.16265746831E+03 -0.44169985513E+03  0.48013858843E+03  0.00000000000E+00 0. -1.
          3    1    6    6  503    0  0.33837107121E+02  0.32796072076E+02 -0.31485727956E+02  0.56673479043E+02  0.00000000000E+00 0. -1.
         -3    1    6    6    0  503  0.44408140937E+02  0.36227163660E+03 -0.32179072842E+03  0.48658205327E+03  0.00000000000E+00 0.  1.
<mgrwt>
<rscale>  0 0.10993099E+04</rscale>
<asrwt>0</asrwt>
<pdfrwt beam="1">  1        2 0.29439947E+00 0.10993099E+04</pdfrwt>
<pdfrwt beam="2">  1       -1 0.24289387E-01 0.10993099E+04</pdfrwt>
<totfact> 0.12440601E+02</totfact>
</mgrwt>
</event>
<event>
12    7  0.1661464E-007  0.2388996E+04  0.7818608E-02  0.8443635E-01
          2   -1    0    0  501    0  0.00000000000E+00  0.00000000000E+00  0.90232002939E+03  0.90232002939E+03  0.00000000000E+00 0. -1.
         -1   -1    0    0    0  501 -0.00000000000E+00 -0.00000000000E+00 -0.15812850783E+04  0.15812850783E+04  0.00000000000E+00 0.  1.
         24    2    1    2    0    0 -0.69084293617E+03  0.63789549266E+03  0.12988494219E+03  0.95256993437E+03  0.79653999617E+02 0.  0.
        254    2    1    2    0    0  0.69084293617E+03 -0.63789549266E+03 -0.80884999106E+03  0.15310351733E+04  0.89758329517E+03 0.  0.
         23    2    4    4    0    0  0.62780209867E+03 -0.35176611922E+03 -0.94847317063E+03  0.11940593158E+04  0.91112109519E+02 0.  0.
         23    2    4    4    0    0  0.63040837497E+02 -0.28612937344E+03  0.13962317956E+03  0.33697585749E+03  0.90630738283E+02 0.  0.
          4    1    3    3  502    0 -0.62234349159E+03  0.57174272352E+03  0.14067539496E+03  0.85673258965E+03  0.00000000000E+00 0. -1.
         -3    1    3    3    0  502 -0.68499444573E+02  0.66152769144E+02 -0.10790452771E+02  0.95837344721E+02  0.00000000000E+00 0.  1.
         13    1    5    5    0    0  0.11109195735E+03 -0.10115470726E+03 -0.17380934830E+03  0.22974635437E+03  0.00000000000E+00 0.  1.
        -13    1    5    5    0    0  0.51671014132E+03 -0.25061141196E+03 -0.77466382232E+03  0.96431296142E+03  0.00000000000E+00 0. -1.
          4    1    6    6  503    0  0.52680199386E+02 -0.17550242310E+03  0.39584455180E+02  0.18746528482E+03  0.00000000000E+00 0. -1.
         -4    1    6    6    0  503  0.10360638111E+02 -0.11062695034E+03  0.10003872438E+03  0.14951057267E+03  0.00000000000E+00 0.  1.
<mgrwt>
<rscale>  0 0.23889958E+04</rscale>
<asrwt>0</asrwt>
<pdfrwt beam="1">  1        2 0.13881847E+00 0.23889958E+04</pdfrwt>
<pdfrwt beam="2">  1       -1 0.24327463E+00 0.23889958E+04</pdfrwt>
<totfact> 0.23137333E+00</totfact>
</mgrwt>
</event>
<event>
12    7  0.1661464E-007  0.2491995E+04  0.7818608E-02  0.8405843E-01
         -1   -1    0    0    0  501 -0.00000000000E+00  0.00000000000E+00  0.46294154401E+03  0.46294154401E+03  0.00000000000E+00 0.  1.
          2   -1    0    0  501    0  0.00000000000E+00 -0.00000000000E+00 -0.33535751289E+04  0.33535751289E+04  0.00000000000E+00 0. -1.
         24    2    1    2    0    0 -0.53553649128E+03 -0.35811205465E+03  0.53960417856E+02  0.65127874599E+03  0.78795311398E+02 0.  0.
        254    2    1    2    0    0  0.53553649128E+03  0.35811205465E+03 -0.29445940027E+04  0.31652379269E+04  0.96594705642E+03 0.  0.
         23    2    4    4    0    0  0.76500222995E+03  0.81495723027E+02 -0.22128747445E+04  0.23448158338E+04  0.97348317320E+02 0.  0.
         23    2    4    4    0    0 -0.22946573867E+03  0.27661633163E+03 -0.73171925829E+03  0.82042209316E+03  0.92240001335E+02 0.  0.
          4    1    3    3  502    0 -0.58627353698E+02 -0.14120366517E+02  0.13940347603E+02  0.61894140623E+02  0.00000000000E+00 0. -1.
         -3    1    3    3    0  502 -0.47690913758E+03 -0.34399168814E+03  0.40020070252E+02  0.58938460536E+03  0.00000000000E+00 0.  1.
         13    1    5    5    0    0  0.16069429668E+03  0.56620890997E+02 -0.46125765453E+03  0.49171862497E+03  0.00000000000E+00 0. -1.
        -13    1    5    5    0    0  0.60430793327E+03  0.24874832030E+02 -0.17516170899E+04  0.18530972088E+04  0.00000000000E+00 0.  1.
          2    1    6    6  503    0 -0.13673305635E+03  0.94229227727E+02 -0.30927631920E+03  0.35103691783E+03  0.00000000000E+00 0. -1.
         -2    1    6    6    0  503 -0.92732682323E+02  0.18238710390E+03 -0.42244293909E+03  0.46938517534E+03  0.00000000000E+00 0.  1.
<mgrwt>
<rscale>  0 0.24919946E+04</rscale>
<asrwt>0</asrwt>
<pdfrwt beam="1">  1        2 0.51593462E+00 0.24919946E+04</pdfrwt>
<pdfrwt beam="2">  1       -1 0.71221777E-01 0.24919946E+04</pdfrwt>
<totfact> 0.20736232E+00</totfact>
</mgrwt>
</event>
<event>
12    7  0.1661464E-007  0.1462236E+04  0.7818608E-02  0.8909961E-01
         -1   -1    0    0    0  501 -0.00000000000E+00  0.00000000000E+00  0.27340559810E+03  0.27340559810E+03  0.00000000000E+00 0.  1.
          2   -1    0    0  501    0  0.00000000000E+00 -0.00000000000E+00 -0.19550948249E+04  0.19550948249E+04  0.00000000000E+00 0. -1.
         24    2    1    2    0    0  0.14312754395E+03  0.39476007876E+02  0.12260342030E+03  0.20857512291E+03  0.80175645900E+02 0.  0.
        254    2    1    2    0    0 -0.14312754395E+03 -0.39476007876E+02 -0.18042926471E+04  0.20199253000E+04  0.89586964033E+03 0.  0.
         23    2    4    4    0    0  0.88533857191E+02 -0.41859426819E+03 -0.69039217059E+03  0.81724668559E+03  0.90506301851E+02 0.  0.
         23    2    4    4    0    0 -0.23166140114E+03  0.37911826031E+03 -0.11139004765E+04  0.12026786144E+04  0.90906094847E+02 0.  0.
          4    1    3    3  502    0  0.15618413346E+02 -0.14771163147E+02 -0.28098772596E+01  0.21679887140E+02  0.00000000000E+00 0. -1.
         -3    1    3    3    0  502  0.12750913060E+03  0.54247171023E+02  0.12541329756E+03  0.18689523577E+03  0.00000000000E+00 0.  1.
         13    1    5    5    0    0 -0.46149005274E+00 -0.93349772010E+01 -0.57942919068E+02  0.58691878846E+02  0.00000000000E+00 0. -1.
        -13    1    5    5    0    0  0.88995347244E+02 -0.40925929099E+03 -0.63244925152E+03  0.75855480675E+03  0.00000000000E+00 0.  1.
          3    1    6    6  503    0 -0.13985399142E+03  0.30084915883E+03 -0.77874309646E+03  0.84646923486E+03  0.00000000000E+00 0. -1.
         -3    1    6    6    0  503 -0.91807409721E+02  0.78269101481E+02 -0.33515738002E+03  0.35620937959E+03  0.00000000000E+00 0.  1.
<mgrwt>
<rscale>  0 0.14622365E+04</rscale>
<asrwt>0</asrwt>
<pdfrwt beam="1">  1        2 0.30078382E+00 0.14622365E+04</pdfrwt>
<pdfrwt beam="2">  1       -1 0.42062399E-01 0.14622365E+04</pdfrwt>
<totfact> 0.43382606E+01</totfact>
</mgrwt>
</event>
<event>
12    7  0.1661464E-007  0.2284457E+04  0.7818608E-02  0.8484075E-01
         -1   -1    0    0    0  501 -0.00000000000E+00  0.00000000000E+00  0.67852697818E+03  0.67852697818E+03  0.00000000000E+00 0.  1.
          2   -1    0    0  501    0  0.00000000000E+00 -0.00000000000E+00 -0.19228204083E+04  0.19228204083E+04  0.00000000000E+00 0. -1.
         24    2    1    2    0    0 -0.70954557997E+03  0.27310624968E+03 -0.11951560306E+04  0.14188849567E+04  0.82429539711E+02 0.  0.
        254    2    1    2    0    0  0.70954557997E+03 -0.27310624968E+03 -0.49137399509E+02  0.11824624298E+04  0.90430136586E+03 0.  0.
         23    2    4    4    0    0  0.36433196239E+02  0.27223868478E+03 -0.10687526105E+03  0.30945771843E+03  0.94342348887E+02 0.  0.
         23    2    4    4    0    0  0.67311238373E+03 -0.54534493446E+03  0.57737861537E+02  0.87300471142E+03  0.91226020596E+02 0.  0.
          4    1    3    3  502    0 -0.67222441880E+03  0.23726737626E+03 -0.11207959271E+04  0.13282940139E+04  0.00000000000E+00 0. -1.
         -3    1    3    3    0  502 -0.37321161166E+02  0.35838873422E+02 -0.74360103488E+02  0.90590942757E+02  0.00000000000E+00 0.  1.
         13    1    5    5    0    0 -0.24954420274E+02  0.85918161287E+02 -0.81382407525E+01  0.89838101564E+02  0.00000000000E+00 0. -1.
        -13    1    5    5    0    0  0.61387616513E+02  0.18632052349E+03 -0.98737020293E+02  0.21961961686E+03  0.00000000000E+00 0.  1.
          1    1    6    6  503    0  0.14007244434E+03 -0.68811451260E+02  0.13470430631E+02  0.15664213351E+03  0.00000000000E+00 0. -1.
         -1    1    6    6    0  503  0.53303993939E+03 -0.47653348320E+03  0.44267430905E+02  0.71636257791E+03  0.00000000000E+00 0.  1.
<mgrwt>
<rscale>  0 0.22844566E+04</rscale>
<asrwt>0</asrwt>
<pdfrwt beam="1">  1        2 0.29581852E+00 0.22844566E+04</pdfrwt>
<pdfrwt beam="2">  1       -1 0.10438877E+00 0.22844566E+04</pdfrwt>
<totfact> 0.65761891E+00</totfact>
</mgrwt>
</event>
<event>
12    7  0.1661464E-007  0.1939317E+04  0.7818608E-02  0.8635529E-01
         -1   -1    0    0    0  501 -0.00000000000E+00  0.00000000000E+00  0.59883830244E+03  0.59883830244E+03  0.00000000000E+00 0.  1.
          2   -1    0    0  501    0  0.00000000000E+00 -0.00000000000E+00 -0.15701030462E+04  0.15701030462E+04  0.00000000000E+00 0. -1.
         24    2    1    2    0    0  0.64421433406E+03 -0.40560010714E+03 -0.32316786206E+03  0.83087495664E+03  0.79951056180E+02 0.  0.
        254    2    1    2    0    0 -0.64421433406E+03  0.40560010714E+03 -0.64809688174E+03  0.13380663920E+04  0.88930790296E+03 0.  0.
         23    2    4    4    0    0  0.34856718493E+02  0.45260642931E+03 -0.38674449589E+03  0.60330635191E+03  0.91321840082E+02 0.  0.
         23    2    4    4    0    0 -0.67907105255E+03 -0.47006322173E+02 -0.26135238585E+03  0.73476004013E+03  0.90665088316E+02 0.  0.
          4    1    3    3  502    0  0.45176366460E+03 -0.26551752844E+03 -0.25798404738E+03  0.58407682308E+03  0.00000000000E+00 0. -1.
         -3    1    3    3    0  502  0.19245066946E+03 -0.14008257870E+03 -0.65183814681E+02  0.24679813356E+03  0.00000000000E+00 0.  1.
         13    1    5    5    0    0  0.17153148580E+02  0.14479629480E+03 -0.71655570752E+02  0.16246451401E+03  0.00000000000E+00 0.  1.
        -13    1    5    5    0    0  0.17703569912E+02  0.30781013452E+03 -0.31508892514E+03  0.44084183790E+03  0.00000000000E+00 0. -1.
          3    1    6    6  503    0 -0.35948730813E+03  0.11994816833E+02 -0.16549128728E+03  0.39593227515E+03  0.00000000000E+00 0.  1.
         -3    1    6    6    0  503 -0.31958374442E+03 -0.59001139006E+02 -0.95861098576E+02  0.33882776498E+03  0.00000000000E+00 0. -1.
<mgrwt>
<rscale>  0 0.19393172E+04</rscale>
<asrwt>0</asrwt>
<pdfrwt beam="1">  1        2 0.24155431E+00 0.19393172E+04</pdfrwt>
<pdfrwt beam="2">  1       -1 0.92128972E-01 0.19393172E+04</pdfrwt>
<totfact> 0.14138841E+01</totfact>
</mgrwt>
</event>
<event>
12    7  0.1661464E-007  0.1412133E+04  0.7818608E-02  0.8945083E-01
          2   -1    0    0  501    0  0.00000000000E+00  0.00000000000E+00  0.18396120300E+04  0.18396120300E+04  0.00000000000E+00 0. -1.
         -1   -1    0    0    0  501 -0.00000000000E+00 -0.00000000000E+00 -0.27099730294E+03  0.27099730294E+03  0.00000000000E+00 0.  1.
         24    2    1    2    0    0 -0.22446117317E+03  0.42536521882E+02  0.96411262830E+03  0.99394872059E+03  0.78922272863E+02 0.  0.
        254    2    1    2    0    0  0.22446117317E+03 -0.42536521882E+02  0.60450209872E+03  0.11166606123E+04  0.91066786580E+03 0.  0.
         23    2    4    4    0    0 -0.23234389321E+03 -0.30505776893E+03  0.33413037759E+03  0.51762206924E+03  0.96153888334E+02 0.  0.
         23    2    4    4    0    0  0.45680506638E+03  0.26252124705E+03  0.27037172113E+03  0.59903854308E+03  0.90321839482E+02 0.  0.
          4    1    3    3  502    0 -0.19954994812E+03  0.63159112871E+02  0.82751424463E+03  0.85357429694E+03  0.00000000000E+00 0. -1.
         -3    1    3    3    0  502 -0.24911225052E+02 -0.20622590988E+02  0.13659838367E+03  0.14037442365E+03  0.00000000000E+00 0.  1.
         13    1    5    5    0    0 -0.13480684464E+03 -0.17826191866E+03  0.25522653722E+03  0.33925032396E+03  0.00000000000E+00 0.  1.
        -13    1    5    5    0    0 -0.97537048574E+02 -0.12679585027E+03  0.78903840370E+02  0.17837174528E+03  0.00000000000E+00 0. -1.
          1    1    6    6  503    0  0.18180362114E+03  0.10921324675E+03  0.15901949161E+03  0.26507977788E+03  0.00000000000E+00 0. -1.
         -1    1    6    6    0  503  0.27500144524E+03  0.15330800030E+03  0.11135222952E+03  0.33395876521E+03  0.00000000000E+00 0.  1.
<mgrwt>
<rscale>  0 0.14121330E+04</rscale>
<asrwt>0</asrwt>
<pdfrwt beam="1">  1        2 0.28301723E+00 0.14121330E+04</pdfrwt>
<pdfrwt beam="2">  1       -1 0.41691894E-01 0.14121330E+04</pdfrwt>
<totfact> 0.51294743E+01</totfact>
</mgrwt>
</event>
<event>
12    7  0.1661464E-007  0.2106932E+04  0.7818608E-02  0.8558196E-01
          2   -1    0    0  501    0  0.00000000000E+00  0.00000000000E+00  0.76644575418E+03  0.76644575418E+03  0.00000000000E+00 0. -1.
         -1   -1    0    0    0  501 -0.00000000000E+00 -0.00000000000E+00 -0.14479696517E+04  0.14479696517E+04  0.00000000000E+00 0.  1.
         24    2    1    2    0    0  0.11304939452E+03  0.67213456185E+03 -0.82313781066E+03  0.10715722222E+04  0.78524755395E+02 0.  0.
        254    2    1    2    0    0 -0.11304939452E+03 -0.67213456185E+03  0.14161391317E+03  0.11428431837E+04  0.90636141091E+03 0.  0.
         23    2    4    4    0    0 -0.21229746708E+03 -0.86636111241E+03  0.12812375786E+03  0.90570490624E+03  0.90740774874E+02 0.  0.
         23    2    4    4    0    0  0.99248072563E+02  0.19422655056E+03  0.13490155315E+02  0.23713827742E+03  0.92078474572E+02 0.  0.
          2    1    3    3  502    0  0.45898935276E+02  0.10960722463E+03 -0.12452817140E+03  0.17212705023E+03  0.00000000000E+00 0. -1.
         -1    1    3    3    0  502  0.67150459246E+02  0.56252733722E+03 -0.69860963926E+03  0.89944517197E+03  0.00000000000E+00 0.  1.
         13    1    5    5    0    0 -0.19724526529E+03 -0.74391218059E+03  0.13818530382E+03  0.78192468007E+03  0.00000000000E+00 0. -1.
        -13    1    5    5    0    0 -0.15052201797E+02 -0.12244893182E+03 -0.10061545962E+02  0.12378022617E+03  0.00000000000E+00 0.  1.
          2    1    6    6  503    0  0.92037875086E+02  0.19546885713E+03 -0.61901286754E+01  0.21614199558E+03  0.00000000000E+00 0. -1.
         -2    1    6    6    0  503  0.72101974770E+01 -0.12423065782E+01  0.19680283990E+02  0.20996281843E+02  0.00000000000E+00 0.  1.
<mgrwt>
<rscale>  0 0.21069316E+04</rscale>
<asrwt>0</asrwt>
<pdfrwt beam="1">  1        2 0.11791473E+00 0.21069316E+04</pdfrwt>
<pdfrwt beam="2">  1       -1 0.22276456E+00 0.21069316E+04</pdfrwt>
<totfact> 0.40403376E+00</totfact>
</mgrwt>
</event>
<event>
12    7  0.1661464E-007  0.1876884E+04  0.7818608E-02  0.8666449E-01
          2   -1    0    0  501    0  0.00000000000E+00  0.00000000000E+00  0.11738757975E+04  0.11738757975E+04  0.00000000000E+00 0. -1.
         -1   -1    0    0    0  501 -0.00000000000E+00 -0.00000000000E+00 -0.75022704515E+03  0.75022704515E+03  0.00000000000E+00 0.  1.
         24    2    1    2    0    0  0.66510138734E+03  0.66862585018E+02  0.42930194045E+03  0.79844845579E+03  0.79933220635E+02 0.  0.
        254    2    1    2    0    0 -0.66510138734E+03 -0.66862585018E+02 -0.56531880672E+01  0.11256543869E+04  0.90566847106E+03 0.  0.
         23    2    4    4    0    0 -0.45802043703E+03  0.38433634258E+03  0.91523424653E+02  0.61139614211E+03  0.89059308084E+02 0.  0.
         23    2    4    4    0    0 -0.20708095031E+03 -0.45119892760E+03 -0.97176612720E+02  0.51425824478E+03  0.92494626963E+02 0.  0.
          4    1    3    3  502    0  0.25531950716E+03  0.32378604038E+02  0.21138985894E+03  0.33304969178E+03  0.00000000000E+00 0. -1.
         -1    1    3    3    0  502  0.40978188018E+03  0.34483980981E+02  0.21791208151E+03  0.46539876401E+03  0.00000000000E+00 0.  1.
         13    1    5    5    0    0 -0.67789045001E+02  0.80070146456E+02 -0.12789861998E+02  0.10568899444E+03  0.00000000000E+00 0. -1.
        -13    1    5    5    0    0 -0.39023139203E+03  0.30426619613E+03  0.10431328665E+03  0.50570714767E+03  0.00000000000E+00 0.  1.
          3    1    6    6  503    0 -0.10228086107E+03 -0.22837668216E+03 -0.19305287216E+01  0.25024190384E+03  0.00000000000E+00 0. -1.
         -3    1    6    6    0  503 -0.10480008924E+03 -0.22282224544E+03 -0.95246083999E+02  0.26401634094E+03  0.00000000000E+00 0.  1.
<mgrwt>
<rscale>  0 0.18768840E+04</rscale>
<asrwt>0</asrwt>
<pdfrwt beam="1">  1        2 0.18059628E+00 0.18768840E+04</pdfrwt>
<pdfrwt beam="2">  1       -1 0.11541955E+00 0.18768840E+04</pdfrwt>
<totfact> 0.14298033E+01</totfact>
</mgrwt>
</event>
<event>
12    7  0.1661464E-007  0.1595873E+04  0.7818608E-02  0.8823087E-01
          2   -1    0    0  501    0  0.00000000000E+00  0.00000000000E+00  0.16999692880E+04  0.16999692880E+04  0.00000000000E+00 0. -1.
         -1   -1    0    0    0  501 -0.00000000000E+00 -0.00000000000E+00 -0.37453793769E+03  0.37453793769E+03  0.00000000000E+00 0.  1.
         24    2    1    2    0    0  0.85979471434E+02 -0.47389135351E+03  0.13767325026E+03  0.50796133465E+03  0.84292996245E+02 0.  0.
        254    2    1    2    0    0 -0.85979471434E+02  0.47389135351E+03  0.11877581001E+04  0.15665458911E+04  0.90073927420E+03 0.  0.
         23    2    4    4    0    0  0.29803028855E+03 -0.40521843172E+02  0.65763333403E+03  0.72904783829E+03  0.92547694871E+02 0.  0.
         23    2    4    4    0    0 -0.38400975998E+03  0.51441319669E+03  0.53012476605E+03  0.83749805278E+03  0.91029051128E+02 0.  0.
          4    1    3    3  502    0  0.87990778043E+01 -0.16628916301E+03  0.83308435844E+02  0.18619829481E+03  0.00000000000E+00 0. -1.
         -3    1    3    3    0  502  0.77180393629E+02 -0.30760219050E+03  0.54364814419E+02  0.32176303984E+03  0.00000000000E+00 0.  1.
         13    1    5    5    0    0  0.26898638440E+02  0.23176961477E+02  0.60348034604E+02  0.70018523076E+02  0.00000000000E+00 0.  1.
        -13    1    5    5    0    0  0.27113165011E+03 -0.63698804649E+02  0.59728529942E+03  0.65902931521E+03  0.00000000000E+00 0. -1.
          1    1    6    6  503    0 -0.32140709094E+03  0.39425126990E+03  0.45557734482E+03  0.68285232594E+03  0.00000000000E+00 0. -1.
         -1    1    6    6    0  503 -0.62602669041E+02  0.12016192678E+03  0.74547421236E+02  0.15464572685E+03  0.00000000000E+00 0.  1.
<mgrwt>
<rscale>  0 0.15958734E+04</rscale>
<asrwt>0</asrwt>
<pdfrwt beam="1">  1        2 0.26153373E+00 0.15958734E+04</pdfrwt>
<pdfrwt beam="2">  1       -1 0.57621222E-01 0.15958734E+04</pdfrwt>
<totfact> 0.32692830E+01</totfact>
</mgrwt>
</event>
<event>
12    7  0.1661464E-007  0.1717521E+04  0.7818608E-02  0.8751434E-01
          2   -1    0    0  501    0  0.00000000000E+00  0.00000000000E+00  0.15075418844E+04  0.15075418844E+04  0.00000000000E+00 0. -1.
         -1   -1    0    0    0  501 -0.00000000000E+00 -0.00000000000E+00 -0.48918666999E+03  0.48918666999E+03  0.00000000000E+00 0.  1.
         24    2    1    2    0    0 -0.21905770089E+03  0.34225917759E+03  0.91865675197E+03  0.10076257687E+04  0.79068583641E+02 0.  0.
        254    2    1    2    0    0  0.21905770089E+03 -0.34225917759E+03  0.99698462425E+02  0.98910278563E+03  0.89624601319E+03 0.  0.
         23    2    4    4    0    0  0.40077405637E+03 -0.29747004516E+03  0.38494161411E+03  0.63607599631E+03  0.85465518043E+02 0.  0.
         23    2    4    4    0    0 -0.18171635548E+03 -0.44789132436E+02 -0.28524315169E+03  0.35302678932E+03  0.90759892901E+02 0.  0.
          2    1    3    3  502    0 -0.15536153694E+03  0.20734221695E+03  0.49931077830E+03  0.56252933738E+03  0.00000000000E+00 0. -1.
         -1    1    3    3    0  502 -0.63696163943E+02  0.13491696064E+03  0.41934597367E+03  0.44509643135E+03  0.00000000000E+00 0.  1.
         13    1    5    5    0    0  0.87293780979E+02 -0.10803742797E+03  0.12583755101E+03  0.18742299562E+03  0.00000000000E+00 0. -1.
        -13    1    5    5    0    0  0.31348027539E+03 -0.18943261718E+03  0.25910406310E+03  0.44865300069E+03  0.00000000000E+00 0.  1.
          1    1    6    6  503    0 -0.22460182376E+02 -0.54136317746E+01 -0.11230245647E+03  0.11465430184E+03  0.00000000000E+00 0. -1.
         -1    1    6    6    0  503 -0.15925617311E+03 -0.39375500662E+02 -0.17294069522E+03  0.23837248748E+03  0.00000000000E+00 0.  1.
<mgrwt>
<rscale>  0 0.17175208E+04</rscale>
<asrwt>0</asrwt>
<pdfrwt beam="1">  1        2 0.23192952E+00 0.17175208E+04</pdfrwt>
<pdfrwt beam="2">  1       -1 0.75259489E-01 0.17175208E+04</pdfrwt>
<totfact> 0.24158487E+01</totfact>
</mgrwt>
</event>
<event>
12    7  0.1661464E-007  0.3754358E+04  0.7818608E-02  0.8056021E-01
          2   -1    0    0  501    0  0.00000000000E+00  0.00000000000E+00  0.14985757085E+04  0.14985757085E+04  0.00000000000E+00 0. -1.
         -1   -1    0    0    0  501 -0.00000000000E+00 -0.00000000000E+00 -0.23514335661E+04  0.23514335661E+04  0.00000000000E+00 0.  1.
         24    2    1    2    0    0 -0.17269361592E+04 -0.46990310151E+02 -0.79787921736E+03  0.19046088805E+04  0.80044705136E+02 0.  0.
        254    2    1    2    0    0  0.17269361592E+04  0.46990310151E+02 -0.54978640164E+02  0.19454003941E+04  0.89277290235E+03 0.  0.
         23    2    4    4    0    0  0.16043575821E+04  0.12702264839E+03 -0.30658848763E+03  0.16410083190E+04  0.93881829914E+02 0.  0.
         23    2    4    4    0    0  0.12257857718E+03 -0.80032338237E+02  0.25160984747E+03  0.30439207509E+03  0.88973801139E+02 0.  0.
          2    1    3    3  502    0 -0.61908918319E+03  0.48805884626E+01 -0.32085261596E+03  0.69731028822E+03  0.00000000000E+00 0. -1.
         -1    1    3    3    0  502 -0.11078469761E+04 -0.51870898614E+02 -0.47702660140E+03  0.12072985923E+04  0.00000000000E+00 0.  1.
         13    1    5    5    0    0  0.13152409914E+04  0.97874344245E+02 -0.21466634181E+03  0.13362334717E+04  0.00000000000E+00 0. -1.
        -13    1    5    5    0    0  0.28911659071E+03  0.29148304144E+02 -0.91922145823E+02  0.30477484731E+03  0.00000000000E+00 0.  1.
          3    1    6    6  503    0  0.54792373440E+01 -0.42103906305E+02  0.10311921472E+03  0.11151830976E+03  0.00000000000E+00 0. -1.
         -3    1    6    6    0  503  0.11709933983E+03 -0.37928431932E+02  0.14849063275E+03  0.19287376533E+03  0.00000000000E+00 0.  1.
<mgrwt>
<rscale>  0 0.37543581E+04</rscale>
<asrwt>0</asrwt>
<pdfrwt beam="1">  1        2 0.23055011E+00 0.37543581E+04</pdfrwt>
<pdfrwt beam="2">  1       -1 0.36175901E+00 0.37543581E+04</pdfrwt>
<totfact> 0.15114335E-01</totfact>
</mgrwt>
</event>
<event>
12    7  0.1661464E-007  0.1201516E+04  0.7818608E-02  0.9111531E-01
          2   -1    0    0  501    0  0.00000000000E+00  0.00000000000E+00  0.52421939733E+03  0.52421939733E+03  0.00000000000E+00 0. -1.
         -1   -1    0    0    0  501 -0.00000000000E+00 -0.00000000000E+00 -0.68847107136E+03  0.68847107136E+03  0.00000000000E+00 0.  1.
         24    2    1    2    0    0  0.20090812804E+03  0.14411982912E+02 -0.20532298211E+03  0.29978634917E+03  0.84513590663E+02 0.  0.
        254    2    1    2    0    0 -0.20090812804E+03 -0.14411982912E+02  0.41071308076E+02  0.91290411952E+03  0.88945786743E+03 0.  0.
         23    2    4    4    0    0 -0.20001256572E+03 -0.34420843329E+03  0.27829929631E+03  0.49590434338E+03  0.99930713342E+02 0.  0.
         23    2    4    4    0    0 -0.89556232020E+00  0.32979645038E+03 -0.23722798823E+03  0.41699977614E+03  0.94048892527E+02 0.  0.
          2    1    3    3  502    0  0.78567341059E+02  0.88524573970E+00 -0.26946894700E+02  0.83064708963E+02  0.00000000000E+00 0. -1.
         -1    1    3    3    0  502  0.12234078698E+03  0.13526737172E+02 -0.17837608741E+03  0.21672164021E+03  0.00000000000E+00 0.  1.
         13    1    5    5    0    0 -0.75786000259E+02 -0.20832816402E+03  0.18884139757E+03  0.29121334996E+03  0.00000000000E+00 0. -1.
        -13    1    5    5    0    0 -0.12422656546E+03 -0.13588026927E+03  0.89457898742E+02  0.20469099342E+03  0.00000000000E+00 0.  1.
          1    1    6    6  503    0 -0.47286925295E+02  0.16063497084E+03 -0.12057790566E+03  0.20634601642E+03  0.00000000000E+00 0. -1.
         -1    1    6    6    0  503  0.46391362975E+02  0.16916147954E+03 -0.11665008258E+03  0.21065375972E+03  0.00000000000E+00 0.  1.
<mgrwt>
<rscale>  0 0.12015155E+04</rscale>
<asrwt>0</asrwt>
<pdfrwt beam="1">  1        2 0.80649138E-01 0.12015155E+04</pdfrwt>
<pdfrwt beam="2">  1       -1 0.10591863E+00 0.12015155E+04</pdfrwt>
<totfact> 0.54861320E+01</totfact>
</mgrwt>
</event>
<event>
12    7  0.1661464E-007  0.2031844E+04  0.7818608E-02  0.8591876E-01
         -1   -1    0    0    0  501 -0.00000000000E+00  0.00000000000E+00  0.33191564787E+03  0.33191564787E+03  0.00000000000E+00 0.  1.
          2   -1    0    0  501    0  0.00000000000E+00 -0.00000000000E+00 -0.31095172319E+04  0.31095172319E+04  0.00000000000E+00 0. -1.
         24    2    1    2    0    0  0.82726621163E+03  0.19479926771E+02 -0.10404894316E+04  0.13315741748E+04  0.75648353187E+02 0.  0.
        254    2    1    2    0    0 -0.82726621163E+03 -0.19479926771E+02 -0.17371121525E+04  0.21098587050E+04  0.86556124698E+03 0.  0.
         23    2    4    4    0    0 -0.85236496294E+03 -0.13036686968E+03 -0.17600211638E+04  0.19621037403E+04  0.93032466429E+02 0.  0.
         23    2    4    4    0    0  0.25098751318E+02  0.11088694291E+03  0.22909011360E+02  0.14775496468E+03  0.91546957127E+02 0.  0.
          4    1    3    3  502    0  0.30314298513E+03  0.13576049214E+02 -0.32509983726E+03  0.44471325900E+03  0.00000000000E+00 0. -1.
         -3    1    3    3    0  502  0.52412322650E+03  0.59038775568E+01 -0.71538959430E+03  0.88686091579E+03  0.00000000000E+00 0.  1.
         13    1    5    5    0    0 -0.84074884468E+03 -0.12302276020E+03 -0.17490346157E+04  0.19445090142E+04  0.00000000000E+00 0.  1.
        -13    1    5    5    0    0 -0.11616118262E+02 -0.73441094831E+01 -0.10986548188E+02  0.17594726161E+02  0.00000000000E+00 0. -1.
          2    1    6    6  503    0  0.21113539099E+02  0.15226757928E+02 -0.28898102040E+02  0.38893906872E+02  0.00000000000E+00 0. -1.
         -2    1    6    6    0  503  0.39852122187E+01  0.95660184984E+02  0.51807113400E+02  0.10886105781E+03  0.00000000000E+00 0.  1.
<mgrwt>
<rscale>  0 0.20318439E+04</rscale>
<asrwt>0</asrwt>
<pdfrwt beam="1">  1        2 0.47838726E+00 0.20318439E+04</pdfrwt>
<pdfrwt beam="2">  1       -1 0.51063947E-01 0.20318439E+04</pdfrwt>
<totfact> 0.60507804E+00</totfact>
</mgrwt>
</event>
<event>
12    7  0.1661464E-007  0.2608019E+04  0.7818608E-02  0.8365482E-01
         -1   -1    0    0    0  501 -0.00000000000E+00  0.00000000000E+00  0.17977282064E+04  0.17977282064E+04  0.00000000000E+00 0.  1.
          2   -1    0    0  501    0  0.00000000000E+00 -0.00000000000E+00 -0.94588323145E+03  0.94588323145E+03  0.00000000000E+00 0. -1.
         24    2    1    2    0    0  0.44583746091E+02 -0.65259399398E+03  0.13651547938E+04  0.15162556410E+04  0.86700208845E+02 0.  0.
        254    2    1    2    0    0 -0.44583746091E+02  0.65259399398E+03 -0.51330981887E+03  0.12273557969E+04  0.90280044896E+03 0.  0.
         23    2    4    4    0    0 -0.44306491106E+03  0.21356712749E+03 -0.13189246896E+03  0.51633131165E+03  0.85352016203E+02 0.  0.
         23    2    4    4    0    0  0.39848116497E+03  0.43902686649E+03 -0.38141734991E+03  0.71102448525E+03  0.92438062926E+02 0.  0.
          2    1    3    3  502    0 -0.14595536088E+02 -0.65723960075E+02  0.18579421542E+03  0.19761619135E+03  0.00000000000E+00 0. -1.
         -1    1    3    3    0  502  0.59179282179E+02 -0.58687003391E+03  0.11793605784E+04  0.13186394496E+04  0.00000000000E+00 0.  1.
         13    1    5    5    0    0 -0.41189656681E+03  0.21609971380E+03 -0.10946669518E+03  0.47785021232E+03  0.00000000000E+00 0.  1.
        -13    1    5    5    0    0 -0.31168344247E+02 -0.25325863147E+01 -0.22425773780E+02  0.38481099337E+02  0.00000000000E+00 0. -1.
          3    1    6    6  503    0  0.15415492769E+03  0.23733495534E+03 -0.18998661085E+03  0.34086146021E+03  0.00000000000E+00 0. -1.
         -3    1    6    6    0  503  0.24432623728E+03  0.20169191115E+03 -0.19143073906E+03  0.37016302504E+03  0.00000000000E+00 0.  1.
<mgrwt>
<rscale>  0 0.26080191E+04</rscale>
<asrwt>0</asrwt>
<pdfrwt beam="1">  1        2 0.14552050E+00 0.26080191E+04</pdfrwt>
<pdfrwt beam="2">  1       -1 0.27657357E+00 0.26080191E+04</pdfrwt>
<totfact> 0.12896598E+00</totfact>
</mgrwt>
</event>
<event>
12    7  0.1661464E-007  0.1149785E+04  0.7818608E-02  0.9157982E-01
          2   -1    0    0  501    0  0.00000000000E+00  0.00000000000E+00  0.13210125318E+04  0.13210125318E+04  0.00000000000E+00 0. -1.
         -3   -1    0    0    0  501 -0.00000000000E+00 -0.00000000000E+00 -0.25018808876E+03  0.25018808876E+03  0.00000000000E+00 0.  1.
         24    2    1    2    0    0 -0.10751230819E+03 -0.89072875939E+00  0.46082677927E+03  0.48017900191E+03  0.81552826866E+02 0.  0.
        254    2    1    2    0    0  0.10751230819E+03  0.89072875939E+00  0.60999766378E+03  0.10910216186E+04  0.89814883663E+03 0.  0.
         23    2    4    4    0    0  0.37914852684E+03  0.28425840763E+03  0.21618509250E+03  0.52839578544E+03  0.88936292617E+02 0.  0.
         23    2    4    4    0    0 -0.27163621864E+03 -0.28336767887E+03  0.39381257128E+03  0.56262583321E+03  0.85883701519E+02 0.  0.
          2    1    3    3  502    0 -0.77931459775E+02 -0.17872088168E+02  0.41724591737E+03  0.42483747424E+03  0.00000000000E+00 0. -1.
         -1    1    3    3    0  502 -0.29580848418E+02  0.16981359408E+02  0.43580861902E+02  0.55341527668E+02  0.00000000000E+00 0.  1.
         13    1    5    5    0    0  0.85627163806E+02  0.22320554694E+02  0.33108420883E+02  0.94479552690E+02  0.00000000000E+00 0. -1.
        -13    1    5    5    0    0  0.29352136303E+03  0.26193785293E+03  0.18307667161E+03  0.43391623275E+03  0.00000000000E+00 0.  1.
          4    1    6    6  503    0 -0.21515852548E+03 -0.17618456945E+03  0.24403351857E+03  0.36998182629E+03  0.00000000000E+00 0. -1.
         -4    1    6    6    0  503 -0.56477693160E+02 -0.10718310942E+03  0.14977905271E+03  0.19264400691E+03  0.00000000000E+00 0.  1.
<mgrwt>
<rscale>  0 0.11497854E+04</rscale>
<asrwt>0</asrwt>
<pdfrwt beam="1">  1        2 0.20323269E+00 0.11497854E+04</pdfrwt>
<pdfrwt beam="2">  1       -3 0.38490476E-01 0.11497854E+04</pdfrwt>
<totfact> 0.68370546E+01</totfact>
</mgrwt>
</event>
<event>
12    7  0.1661464E-007  0.1353769E+04  0.7818608E-02  0.8987980E-01
         -1   -1    0    0    0  501 -0.00000000000E+00  0.00000000000E+00  0.70489217823E+03  0.70489217823E+03  0.00000000000E+00 0.  1.
          2   -1    0    0  501    0  0.00000000000E+00 -0.00000000000E+00 -0.64998919996E+03  0.64998919996E+03  0.00000000000E+00 0. -1.
         24    2    1    2    0    0  0.72711403622E+02  0.29073853311E+03  0.22956611296E+03  0.38448160867E+03  0.72867443612E+02 0.  0.
        254    2    1    2    0    0 -0.72711403622E+02 -0.29073853311E+03 -0.17466313469E+03  0.97039976952E+03  0.90628508717E+03 0.  0.
         23    2    4    4    0    0 -0.46623047721E+03 -0.26808507475E+03 -0.14772160793E+03  0.56501912253E+03  0.90468061701E+02 0.  0.
         23    2    4    4    0    0  0.39351907359E+03 -0.22653458354E+02 -0.26941526765E+02  0.40538064699E+03  0.90758925944E+02 0.  0.
          4    1    3    3  502    0  0.31295204170E+02  0.15361761097E+03  0.75133271729E+02  0.17384696927E+03  0.00000000000E+00 0. -1.
         -1    1    3    3    0  502  0.41416199452E+02  0.13712092213E+03  0.15443284123E+03  0.21063463940E+03  0.00000000000E+00 0.  1.
         13    1    5    5    0    0 -0.41852624317E+03 -0.25710511132E+03 -0.15601152491E+03  0.51537059520E+03  0.00000000000E+00 0.  1.
        -13    1    5    5    0    0 -0.47704234041E+02 -0.10979963430E+02  0.82899169837E+01  0.49648527329E+02  0.00000000000E+00 0. -1.
          1    1    6    6  503    0  0.13747300235E+03 -0.31702552253E+02 -0.46197011778E+02  0.14845215422E+03  0.00000000000E+00 0. -1.
         -1    1    6    6    0  503  0.25604607124E+03  0.90490938984E+01  0.19255485014E+02  0.25692849277E+03  0.00000000000E+00 0.  1.
<mgrwt>
<rscale>  0 0.13537685E+04</rscale>
<asrwt>0</asrwt>
<pdfrwt beam="1">  1        2 0.99998339E-01 0.13537685E+04</pdfrwt>
<pdfrwt beam="2">  1       -1 0.10844495E+00 0.13537685E+04</pdfrwt>
<totfact> 0.39612296E+01</totfact>
</mgrwt>
</event>
<event>
12    7  0.1661464E-007  0.1750082E+04  0.7818608E-02  0.8733305E-01
          2   -1    0    0  501    0  0.00000000000E+00  0.00000000000E+00  0.28037172396E+04  0.28037172396E+04  0.00000000000E+00 0. -1.
         -1   -1    0    0    0  501 -0.00000000000E+00 -0.00000000000E+00 -0.27310070184E+03  0.27310070184E+03  0.00000000000E+00 0.  1.
         24    2    1    2    0    0  0.27614578363E+03 -0.34475214925E+03  0.17537857379E+04  0.18104440804E+04  0.82660847283E+02 0.  0.
        254    2    1    2    0    0 -0.27614578363E+03  0.34475214925E+03  0.77683079989E+03  0.12663738610E+04  0.89728820677E+03 0.  0.
         23    2    4    4    0    0  0.25300791557E+03 -0.10232580840E+03  0.13646520387E+03  0.31862212965E+03  0.91726404180E+02 0.  0.
         23    2    4    4    0    0 -0.52915369920E+03  0.44707795765E+03  0.64036559601E+03  0.94775173138E+03  0.91010494914E+02 0.  0.
          4    1    3    3  502    0  0.24647127515E+03 -0.25690136783E+03  0.14290385534E+04  0.14727177562E+04  0.00000000000E+00 0. -1.
         -3    1    3    3    0  502  0.29674508482E+02 -0.87850781424E+02  0.32474718443E+03  0.33772632418E+03  0.00000000000E+00 0.  1.
         13    1    5    5    0    0  0.10067645044E+03  0.60660713353E+01  0.51859111191E+02  0.11341037126E+03  0.00000000000E+00 0. -1.
        -13    1    5    5    0    0  0.15233146513E+03 -0.10839187974E+03  0.84606092683E+02  0.20521175839E+03  0.00000000000E+00 0.  1.
          3    1    6    6  503    0 -0.44892079357E+02  0.10216464692E+02  0.51080922087E+02  0.68767256315E+02  0.00000000000E+00 0. -1.
         -3    1    6    6    0  503 -0.48426161985E+03  0.43686149296E+03  0.58928467392E+03  0.87898447507E+03  0.00000000000E+00 0.  1.
<mgrwt>
<rscale>  0 0.17500825E+04</rscale>
<asrwt>0</asrwt>
<pdfrwt beam="1">  1        2 0.43134110E+00 0.17500825E+04</pdfrwt>
<pdfrwt beam="2">  1       -1 0.42015494E-01 0.17500825E+04</pdfrwt>
<totfact> 0.13854030E+01</totfact>
</mgrwt>
</event>
<event>
12    7  0.1661464E-007  0.1170327E+04  0.7818608E-02  0.9139233E-01
         -1   -1    0    0    0  501 -0.00000000000E+00  0.00000000000E+00  0.24421309877E+03  0.24421309877E+03  0.00000000000E+00 0.  1.
          2   -1    0    0  501    0  0.00000000000E+00 -0.00000000000E+00 -0.14021219217E+04  0.14021219217E+04  0.00000000000E+00 0. -1.
         24    2    1    2    0    0 -0.65905450033E+02 -0.19115320269E+01  0.67271100827E+02  0.12586658433E+03  0.83485410377E+02 0.  0.
        254    2    1    2    0    0  0.65905450033E+02  0.19115320269E+01 -0.12251799238E+04  0.15204684362E+04  0.89800402974E+03 0.  0.
         23    2    4    4    0    0  0.31448900008E+03 -0.21415461092E+03 -0.19840263478E+03  0.43820920565E+03  0.88871670872E+02 0.  0.
         23    2    4    4    0    0 -0.24858355004E+03  0.21606614295E+03 -0.10267772890E+04  0.10822592305E+04  0.92385503880E+02 0.  0.
          2    1    3    3  502    0 -0.78885105764E+01  0.18505279709E+02 -0.13586947287E+02  0.24275071839E+02  0.00000000000E+00 0. -1.
         -1    1    3    3    0  502 -0.58016939456E+02 -0.20416811736E+02  0.80858048115E+02  0.10159151249E+03  0.00000000000E+00 0.  1.
         13    1    5    5    0    0  0.12382068530E+03 -0.34054514758E+02 -0.67514834590E+02  0.14508454423E+03  0.00000000000E+00 0.  1.
        -13    1    5    5    0    0  0.19066831477E+03 -0.18010009617E+03 -0.13088780019E+03  0.29312466143E+03  0.00000000000E+00 0. -1.
          4    1    6    6  503    0 -0.18923024641E+03  0.19819186019E+03 -0.74637517425E+03  0.79508741679E+03  0.00000000000E+00 0. -1.
         -4    1    6    6    0  503 -0.59353303632E+02  0.17874282762E+02 -0.28040211475E+03  0.28717181371E+03  0.00000000000E+00 0.  1.
<mgrwt>
<rscale>  0 0.11703274E+04</rscale>
<asrwt>0</asrwt>
<pdfrwt beam="1">  1        2 0.21571106E+00 0.11703274E+04</pdfrwt>
<pdfrwt beam="2">  1       -1 0.37571247E-01 0.11703274E+04</pdfrwt>
<totfact> 0.11092812E+02</totfact>
</mgrwt>
</event>
<event>
12    7  0.1661464E-007  0.2023994E+04  0.7818608E-02  0.8595484E-01
         -1   -1    0    0    0  501 -0.00000000000E+00  0.00000000000E+00  0.54573141509E+03  0.54573141509E+03  0.00000000000E+00 0.  1.
          2   -1    0    0  501    0  0.00000000000E+00 -0.00000000000E+00 -0.18766336712E+04  0.18766336712E+04  0.00000000000E+00 0. -1.
         24    2    1    2    0    0 -0.14100720281E+03  0.80530221385E+03 -0.26314318856E+03  0.86262889920E+03  0.80558011213E+02 0.  0.
        254    2    1    2    0    0  0.14100720281E+03 -0.80530221385E+03 -0.10677590676E+04  0.15597361871E+04  0.79010939758E+03 0.  0.
         23    2    4    4    0    0 -0.18895619115E+02 -0.40393821055E+03 -0.10367725674E+04  0.11166550128E+04  0.92184265147E+02 0.  0.
         23    2    4    4    0    0  0.15990282193E+03 -0.40136400330E+03 -0.30986500177E+02  0.44308117431E+03  0.93267294557E+02 0.  0.
          4    1    3    3  502    0 -0.14825671885E+03  0.67993907562E+03 -0.22043494745E+03  0.72999230632E+03  0.00000000000E+00 0. -1.
         -3    1    3    3    0  502  0.72495160420E+01  0.12536313823E+03 -0.42708241111E+02  0.13263659287E+03  0.00000000000E+00 0.  1.
         13    1    5    5    0    0  0.31625392174E+02 -0.13492250641E+03 -0.29311762304E+03  0.32422552198E+03  0.00000000000E+00 0. -1.
        -13    1    5    5    0    0 -0.50521011289E+02 -0.26901570414E+03 -0.74365494438E+03  0.79242949084E+03  0.00000000000E+00 0.  1.
          2    1    6    6  503    0  0.84968944533E+02 -0.11884507018E+03 -0.37089413309E+02  0.15072988032E+03  0.00000000000E+00 0.  1.
         -2    1    6    6    0  503  0.74933877393E+02 -0.28251893312E+03  0.61029131325E+01  0.29235129400E+03  0.00000000000E+00 0. -1.
<mgrwt>
<rscale>  0 0.20239940E+04</rscale>
<asrwt>0</asrwt>
<pdfrwt beam="1">  1        2 0.28871287E+00 0.20239940E+04</pdfrwt>
<pdfrwt beam="2">  1       -1 0.83958679E-01 0.20239940E+04</pdfrwt>
<totfact> 0.11614937E+01</totfact>
</mgrwt>
</event>
<event>
12    7  0.1661464E-007  0.1413826E+04  0.7818608E-02  0.8943871E-01
         -1   -1    0    0    0  501 -0.00000000000E+00  0.00000000000E+00  0.50562919792E+03  0.50562919792E+03  0.00000000000E+00 0.  1.
          2   -1    0    0  501    0  0.00000000000E+00 -0.00000000000E+00 -0.98832545148E+03  0.98832545148E+03  0.00000000000E+00 0. -1.
         24    2    1    2    0    0 -0.16456197246E+03 -0.22260722408E+03 -0.47696485198E+03  0.55726529520E+03  0.80090699937E+02 0.  0.
        254    2    1    2    0    0  0.16456197246E+03  0.22260722408E+03 -0.57314015832E+01  0.93668935420E+03  0.89482930121E+03 0.  0.
         23    2    4    4    0    0  0.12117075033E+03  0.27871663677E+03  0.40217034182E+03  0.51249705084E+03  0.92449602132E+02 0.  0.
         23    2    4    4    0    0  0.43391222130E+02 -0.56109412684E+02 -0.40790174340E+03  0.42419230336E+03  0.92326667900E+02 0.  0.
          2    1    3    3  502    0 -0.10720449534E+03 -0.77889375826E+02 -0.21945088833E+03  0.25635571200E+03  0.00000000000E+00 0. -1.
         -1    1    3    3    0  502 -0.57357477125E+02 -0.14471784826E+03 -0.25751396366E+03  0.30090958320E+03  0.00000000000E+00 0.  1.
         13    1    5    5    0    0  0.12510221165E+03  0.18199418553E+03  0.28222772552E+03  0.35836425042E+03  0.00000000000E+00 0. -1.
        -13    1    5    5    0    0 -0.39314613141E+01  0.96722451234E+02  0.11994261630E+03  0.15413280042E+03  0.00000000000E+00 0.  1.
          3    1    6    6  503    0  0.15837757847E+02 -0.26753014351E+02 -0.36118354868E+03  0.36251912251E+03  0.00000000000E+00 0. -1.
         -3    1    6    6    0  503  0.27553464283E+02 -0.29356398333E+02 -0.46718194723E+02  0.61673180843E+02  0.00000000000E+00 0.  1.
<mgrwt>
<rscale>  0 0.14138263E+04</rscale>
<asrwt>0</asrwt>
<pdfrwt beam="1">  1        2 0.15205007E+00 0.14138263E+04</pdfrwt>
<pdfrwt beam="2">  1       -1 0.77789107E-01 0.14138263E+04</pdfrwt>
<totfact> 0.47084118E+01</totfact>
</mgrwt>
</event>
<event>
12    7  0.1661464E-007  0.1498673E+04  0.7818608E-02  0.8885336E-01
          2   -1    0    0  501    0  0.00000000000E+00  0.00000000000E+00  0.15922491417E+04  0.15922491417E+04  0.00000000000E+00 0. -1.
         -1   -1    0    0    0  501 -0.00000000000E+00 -0.00000000000E+00 -0.35264920955E+03  0.35264920955E+03  0.00000000000E+00 0.  1.
         24    2    1    2    0    0 -0.32328746956E+03  0.16752874705E+03  0.79599811687E+03  0.87896616731E+03  0.79924039856E+02 0.  0.
        254    2    1    2    0    0  0.32328746956E+03 -0.16752874705E+03  0.44360181526E+03  0.10659321839E+04  0.89824728285E+03 0.  0.
         23    2    4    4    0    0  0.30948906808E+02 -0.42992390429E+02 -0.26423190203E+03  0.28508036166E+03  0.92984590584E+02 0.  0.
         23    2    4    4    0    0  0.29233856275E+03 -0.12453635662E+03  0.70783371728E+03  0.78085182226E+03  0.87919608840E+02 0.  0.
          2    1    3    3  502    0 -0.28394746155E+03  0.15810239862E+03  0.75185709266E+03  0.81909194670E+03  0.00000000000E+00 0. -1.
         -1    1    3    3    0  502 -0.39340008007E+02  0.94263484279E+01  0.44141024219E+02  0.59874220611E+02  0.00000000000E+00 0.  1.
         13    1    5    5    0    0 -0.10507502142E+02  0.18716014402E+01  0.28946460356E+01  0.11058456895E+02  0.00000000000E+00 0.  1.
        -13    1    5    5    0    0  0.41456408950E+02 -0.44863991869E+02 -0.26712654806E+03  0.27402190476E+03  0.00000000000E+00 0. -1.
          1    1    6    6  503    0  0.17556191867E+03 -0.49220162152E+02  0.48614409304E+03  0.51921160508E+03  0.00000000000E+00 0. -1.
         -1    1    6    6    0  503  0.11677664408E+03 -0.75316194470E+02  0.22168962424E+03  0.26164021719E+03  0.00000000000E+00 0.  1.
<mgrwt>
<rscale>  0 0.14986733E+04</rscale>
<asrwt>0</asrwt>
<pdfrwt beam="1">  1        2 0.24496140E+00 0.14986733E+04</pdfrwt>
<pdfrwt beam="2">  1       -1 0.54253726E-01 0.14986733E+04</pdfrwt>
<totfact> 0.42543269E+01</totfact>
</mgrwt>
</event>
<event>
12    7  0.1661464E-007  0.2322433E+04  0.7818608E-02  0.8469128E-01
          2   -1    0    0  501    0  0.00000000000E+00  0.00000000000E+00  0.12001532238E+04  0.12001532238E+04  0.00000000000E+00 0. -1.
         -1   -1    0    0    0  501 -0.00000000000E+00 -0.00000000000E+00 -0.11235426222E+04  0.11235426222E+04  0.00000000000E+00 0.  1.
         24    2    1    2    0    0 -0.92250341919E+03 -0.21268773674E+03 -0.26723982095E+03  0.98697162494E+03  0.80294674439E+02 0.  0.
        254    2    1    2    0    0  0.92250341919E+03  0.21268773674E+03  0.34385042256E+03  0.13367242212E+04  0.87883439767E+03 0.  0.
         23    2    4    4    0    0  0.85218704755E+03 -0.14694312237E+03  0.73594023951E+02  0.87286516055E+03  0.93072353069E+02 0.  0.
         23    2    4    4    0    0  0.70316371639E+02  0.35963085910E+03  0.27025639861E+03  0.46385906060E+03  0.88588713575E+02 0.  0.
          4    1    3    3  502    0 -0.15390644277E+03 -0.29152730680E+02 -0.14415320824E+02  0.15730504222E+03  0.00000000000E+00 0. -1.
         -3    1    3    3    0  502 -0.76859697642E+03 -0.18353500606E+03 -0.25282450013E+03  0.82966658272E+03  0.00000000000E+00 0.  1.
         13    1    5    5    0    0  0.39189973439E+02 -0.21376592056E+02 -0.10746531424E+02  0.45916235078E+02  0.00000000000E+00 0. -1.
        -13    1    5    5    0    0  0.81299707412E+03 -0.12556653031E+03  0.84340555375E+02  0.82694892547E+03  0.00000000000E+00 0.  1.
          4    1    6    6  503    0  0.13192635184E+02  0.10798277320E+03  0.13218252561E+03  0.17119154479E+03  0.00000000000E+00 0.  1.
         -4    1    6    6    0  503  0.57123736455E+02  0.25164808591E+03  0.13807387300E+03  0.29266751581E+03  0.00000000000E+00 0. -1.
<mgrwt>
<rscale>  0 0.23224326E+04</rscale>
<asrwt>0</asrwt>
<pdfrwt beam="1">  1        2 0.18463896E+00 0.23224326E+04</pdfrwt>
<pdfrwt beam="2">  1       -1 0.17285271E+00 0.23224326E+04</pdfrwt>
<totfact> 0.45807744E+00</totfact>
</mgrwt>
</event>
<event>
12    7  0.1661464E-007  0.1133948E+04  0.7818608E-02  0.9172721E-01
          2   -1    0    0  501    0  0.00000000000E+00  0.00000000000E+00  0.11529320906E+04  0.11529320906E+04  0.00000000000E+00 0. -1.
         -1   -1    0    0    0  501 -0.00000000000E+00 -0.00000000000E+00 -0.27881924003E+03  0.27881924003E+03  0.00000000000E+00 0.  1.
         24    2    1    2    0    0  0.22365020971E+02 -0.19342442948E+03  0.15723140100E+03  0.26333300704E+03  0.81910652865E+02 0.  0.
        254    2    1    2    0    0 -0.22365020971E+02  0.19342442948E+03  0.71688144958E+03  0.11684183236E+04  0.90186981437E+03 0.  0.
         23    2    4    4    0    0  0.35103554734E+02  0.28896718218E+03  0.89178037164E+03  0.94252390881E+03  0.91349852217E+02 0.  0.
         23    2    4    4    0    0 -0.57468575704E+02 -0.95542752705E+02 -0.17489892206E+03  0.22589441479E+03  0.89485188188E+02 0.  0.
          4    1    3    3  502    0 -0.23823947948E+02 -0.67293352469E+02  0.84382691086E+02  0.11052788941E+03  0.00000000000E+00 0. -1.
         -3    1    3    3    0  502  0.46188968919E+02 -0.12613107701E+03  0.72848709918E+02  0.15280511763E+03  0.00000000000E+00 0.  1.
         13    1    5    5    0    0  0.51731342720E+01  0.26664708490E+03  0.75412511319E+03  0.79989506534E+03  0.00000000000E+00 0. -1.
        -13    1    5    5    0    0  0.29930420462E+02  0.22320097284E+02  0.13765525844E+03  0.14262884347E+03  0.00000000000E+00 0.  1.
          2    1    6    6  503    0 -0.80297452329E+02 -0.83340548268E+02 -0.12984717288E+03  0.17393566667E+03  0.00000000000E+00 0. -1.
         -2    1    6    6    0  503  0.22828876625E+02 -0.12202204438E+02 -0.45051749184E+02  0.51958748115E+02  0.00000000000E+00 0.  1.
<mgrwt>
<rscale>  0 0.11339482E+04</rscale>
<asrwt>0</asrwt>
<pdfrwt beam="1">  1        2 0.17737417E+00 0.11339482E+04</pdfrwt>
<pdfrwt beam="2">  1       -1 0.42895268E-01 0.11339482E+04</pdfrwt>
<totfact> 0.12221773E+02</totfact>
</mgrwt>
</event>
<event>
12    7  0.1661464E-007  0.1460250E+04  0.7818608E-02  0.8911325E-01
          2   -1    0    0  501    0  0.00000000000E+00  0.00000000000E+00  0.15808842679E+04  0.15808842679E+04  0.00000000000E+00 0. -1.
         -1   -1    0    0    0  501 -0.00000000000E+00 -0.00000000000E+00 -0.33720548332E+03  0.33720548332E+03  0.00000000000E+00 0.  1.
         24    2    1    2    0    0 -0.15716559084E+03  0.27251420207E+03 -0.36729567365E+02  0.32605762918E+03  0.77456459732E+02 0.  0.
        254    2    1    2    0    0  0.15716559084E+03 -0.27251420207E+03  0.12804083520E+04  0.15920321221E+04  0.89227558335E+03 0.  0.
         23    2    4    4    0    0  0.77409945458E+02 -0.59011210850E+03  0.88679885849E+03  0.10719995765E+04  0.92446072949E+02 0.  0.
         23    2    4    4    0    0  0.79755645384E+02  0.31759790643E+03  0.39360949347E+03  0.52003254553E+03  0.90972643823E+02 0.  0.
          4    1    3    3  502    0 -0.22288890867E+01  0.37805351098E+02  0.13822132908E+02  0.40314561591E+02  0.00000000000E+00 0. -1.
         -3    1    3    3    0  502 -0.15493670176E+03  0.23470885097E+03 -0.50551700272E+02  0.28574306759E+03  0.00000000000E+00 0.  1.
         13    1    5    5    0    0  0.12665338025E+02 -0.89632865336E+01  0.40193117297E+02  0.43084080249E+02  0.00000000000E+00 0. -1.
        -13    1    5    5    0    0  0.64744607432E+02 -0.58114882197E+03  0.84660574120E+03  0.10289154963E+04  0.00000000000E+00 0.  1.
          4    1    6    6  503    0  0.34848539930E+02  0.27998947637E+02  0.34184600692E+02  0.56275649516E+02  0.00000000000E+00 0. -1.
         -4    1    6    6    0  503  0.44907105454E+02  0.28959895879E+03  0.35942489277E+03  0.46375689601E+03  0.00000000000E+00 0.  1.
<mgrwt>
<rscale>  0 0.14602504E+04</rscale>
<asrwt>0</asrwt>
<pdfrwt beam="1">  1        2 0.24321296E+00 0.14602504E+04</pdfrwt>
<pdfrwt beam="2">  1       -1 0.51877768E-01 0.14602504E+04</pdfrwt>
<totfact> 0.47202116E+01</totfact>
</mgrwt>
</event>
<event>
12    7  0.1661464E-007  0.1120562E+04  0.7818608E-02  0.9185379E-01
         -1   -1    0    0    0  501 -0.00000000000E+00  0.00000000000E+00  0.76803010923E+02  0.76803010923E+02  0.00000000000E+00 0.  1.
          2   -1    0    0  501    0  0.00000000000E+00 -0.00000000000E+00 -0.40872722793E+04  0.40872722793E+04  0.00000000000E+00 0. -1.
         24    2    1    2    0    0 -0.33994773122E+02  0.96522472387E+02 -0.14606016593E+04  0.14664994018E+04  0.82407865011E+02 0.  0.
        254    2    1    2    0    0  0.33994773122E+02 -0.96522472387E+02 -0.25498676091E+04  0.26975758884E+04  0.87442473514E+03 0.  0.
         23    2    4    4    0    0 -0.29722050928E+03 -0.32819802746E+02 -0.21235716127E+04  0.21464359369E+04  0.90629279089E+02 0.  0.
         23    2    4    4    0    0  0.33121528240E+03 -0.63702669641E+02 -0.42629599639E+03  0.55113995151E+03  0.90914114398E+02 0.  0.
          4    1    3    3  502    0 -0.24144556792E+02  0.11115590675E+03 -0.12617002027E+04  0.12668172704E+04  0.00000000000E+00 0. -1.
         -3    1    3    3    0  502 -0.98502163296E+01 -0.14633434364E+02 -0.19890145657E+03  0.19968213137E+03  0.00000000000E+00 0.  1.
         13    1    5    5    0    0 -0.35521133039E+02  0.26065045116E+02 -0.32417509693E+03  0.32715536208E+03  0.00000000000E+00 0.  1.
        -13    1    5    5    0    0 -0.26169937624E+03 -0.58884847862E+02 -0.17993965158E+04  0.18192805748E+04  0.00000000000E+00 0. -1.
          1    1    6    6  503    0  0.21666042074E+03  0.10422367578E+01 -0.24394582248E+03  0.32627042232E+03  0.00000000000E+00 0. -1.
         -1    1    6    6    0  503  0.11455486166E+03 -0.64744906399E+02 -0.18235017391E+03  0.22486952919E+03  0.00000000000E+00 0.  1.
<mgrwt>
<rscale>  0 0.11205620E+04</rscale>
<asrwt>0</asrwt>
<pdfrwt beam="1">  1        2 0.62881133E+00 0.11205620E+04</pdfrwt>
<pdfrwt beam="2">  1       -1 0.11815844E-01 0.11205620E+04</pdfrwt>
<totfact> 0.16647555E+01</totfact>
</mgrwt>
</event>
<event>
12    7  0.1661464E-007  0.1842618E+04  0.7818608E-02  0.8683959E-01
          2   -1    0    0  501    0  0.00000000000E+00  0.00000000000E+00  0.14508434766E+04  0.14508434766E+04  0.00000000000E+00 0. -1.
         -1   -1    0    0    0  501 -0.00000000000E+00 -0.00000000000E+00 -0.58504585069E+03  0.58504585069E+03  0.00000000000E+00 0.  1.
         24    2    1    2    0    0  0.22112963923E+03 -0.46087021057E+03  0.85813508201E+03  0.10019524090E+04  0.78823489847E+02 0.  0.
        254    2    1    2    0    0 -0.22112963923E+03  0.46087021057E+03  0.76625438584E+01  0.10339369183E+04  0.89870304775E+03 0.  0.
         23    2    4    4    0    0  0.21249134782E+03 -0.13584991838E+03  0.95906441554E+02  0.28518814543E+03  0.92338830101E+02 0.  0.
         23    2    4    4    0    0 -0.43362098705E+03  0.59672012895E+03 -0.88243897695E+02  0.74874877283E+03  0.93464788208E+02 0.  0.
          4    1    3    3  502    0  0.14450158540E+03 -0.21076228153E+03  0.41462860547E+03  0.48705064210E+03  0.00000000000E+00 0. -1.
         -3    1    3    3    0  502  0.76628053831E+02 -0.25010792904E+03  0.44350647654E+03  0.51490176688E+03  0.00000000000E+00 0.  1.
         13    1    5    5    0    0  0.23754514445E+02  0.12754416377E+02  0.12434820651E+01  0.26990708425E+02  0.00000000000E+00 0.  1.
        -13    1    5    5    0    0  0.18873683337E+03 -0.14860433475E+03  0.94662959489E+02  0.25819743701E+03  0.00000000000E+00 0. -1.
          1    1    6    6  503    0 -0.40134831216E+03  0.58242644781E+03 -0.91894643210E+02  0.71326408870E+03  0.00000000000E+00 0. -1.
         -1    1    6    6    0  503 -0.32272674893E+02  0.14293681144E+02  0.36507455147E+01  0.35484684136E+02  0.00000000000E+00 0.  1.
<mgrwt>
<rscale>  0 0.18426177E+04</rscale>
<asrwt>0</asrwt>
<pdfrwt beam="1">  1        2 0.22320669E+00 0.18426177E+04</pdfrwt>
<pdfrwt beam="2">  1       -1 0.90007054E-01 0.18426177E+04</pdfrwt>
<totfact> 0.17526861E+01</totfact>
</mgrwt>
</event>
<event>
12    7  0.1661464E-007  0.1277090E+04  0.7818608E-02  0.9047933E-01
          2   -1    0    0  501    0  0.00000000000E+00  0.00000000000E+00  0.75631814048E+03  0.75631814048E+03  0.00000000000E+00 0. -1.
         -1   -1    0    0    0  501 -0.00000000000E+00 -0.00000000000E+00 -0.53911143059E+03  0.53911143059E+03  0.00000000000E+00 0.  1.
         24    2    1    2    0    0 -0.27775406703E+03 -0.14377132449E+03  0.84691096265E+02  0.33371787168E+03  0.79859380140E+02 0.  0.
        254    2    1    2    0    0  0.27775406703E+03  0.14377132449E+03  0.13251561362E+03  0.96171169939E+03  0.89972856428E+03 0.  0.
         23    2    4    4    0    0 -0.23757707784E+03  0.19150300008E+03  0.27166230538E+03  0.41762716796E+03  0.86578151395E+02 0.  0.
         23    2    4    4    0    0  0.51533114487E+03 -0.47731675595E+02 -0.13914669176E+03  0.54408453142E+03  0.93923765797E+02 0.  0.
          4    1    3    3  502    0 -0.27466178868E+02 -0.34129012960E+01  0.31395111000E+02  0.41853218174E+02  0.00000000000E+00 0. -1.
         -3    1    3    3    0  502 -0.25028788816E+03 -0.14035842319E+03  0.53295985265E+02  0.29186465351E+03  0.00000000000E+00 0.  1.
         13    1    5    5    0    0 -0.24157295658E+03  0.18245750523E+03  0.24585754557E+03  0.38999252208E+03  0.00000000000E+00 0.  1.
        -13    1    5    5    0    0  0.39958787402E+01  0.90454948569E+01  0.25804759813E+02  0.27634645883E+02  0.00000000000E+00 0. -1.
          4    1    6    6  503    0  0.37215730871E+02  0.16139340495E+02  0.44334122071E+01  0.40806176979E+02  0.00000000000E+00 0. -1.
         -4    1    6    6    0  503  0.47811541400E+03 -0.63871016089E+02 -0.14358010397E+03  0.50327835444E+03  0.00000000000E+00 0.  1.
<mgrwt>
<rscale>  0 0.12770901E+04</rscale>
<asrwt>0</asrwt>
<pdfrwt beam="1">  1        2 0.11635664E+00 0.12770901E+04</pdfrwt>
<pdfrwt beam="2">  1       -1 0.82940220E-01 0.12770901E+04</pdfrwt>
<totfact> 0.60060004E+01</totfact>
</mgrwt>
</event>
<event>
12    7  0.1661464E-007  0.1298734E+04  0.7818608E-02  0.9030569E-01
         -1   -1    0    0    0  501 -0.00000000000E+00  0.00000000000E+00  0.19516336329E+03  0.19516336329E+03  0.00000000000E+00 0.  1.
          2   -1    0    0  501    0  0.00000000000E+00 -0.00000000000E+00 -0.21606395416E+04  0.21606395416E+04  0.00000000000E+00 0. -1.
         24    2    1    2    0    0 -0.30572682495E+03 -0.84039511704E+02 -0.59678207942E+03  0.68231637571E+03  0.94208572998E+02 0.  0.
        254    2    1    2    0    0  0.30572682495E+03  0.84039511704E+02 -0.13686940989E+04  0.16734865292E+04  0.90923159643E+03 0.  0.
         23    2    4    4    0    0  0.59303208352E+03  0.20125470962E+03 -0.97451032977E+03  0.11618752540E+04  0.89962285639E+02 0.  0.
         23    2    4    4    0    0 -0.28730525857E+03 -0.11721519791E+03 -0.39418376911E+03  0.51161127514E+03  0.10040686631E+03 0.  0.
          2    1    3    3  502    0 -0.34800698496E+02 -0.15628828356E+02 -0.15464392811E+03  0.15927992150E+03  0.00000000000E+00 0. -1.
         -1    1    3    3    0  502 -0.27092612645E+03 -0.68410683347E+02 -0.44213815131E+03  0.52303645421E+03  0.00000000000E+00 0.  1.
         13    1    5    5    0    0  0.48151721379E+03  0.19928732125E+03 -0.79919976711E+03  0.95409356529E+03  0.00000000000E+00 0. -1.
        -13    1    5    5    0    0  0.11151486973E+03  0.19673883700E+01 -0.17531056267E+03  0.20778168873E+03  0.00000000000E+00 0.  1.
          2    1    6    6  503    0 -0.75217778945E+02 -0.39317722293E+02 -0.18571037787E+03  0.20418604753E+03  0.00000000000E+00 0.  1.
         -2    1    6    6    0  503 -0.21208747962E+03 -0.77897475619E+02 -0.20847339123E+03  0.30742522761E+03  0.00000000000E+00 0. -1.
<mgrwt>
<rscale>  0 0.12987343E+04</rscale>
<asrwt>0</asrwt>
<pdfrwt beam="1">  1        2 0.33240606E+00 0.12987343E+04</pdfrwt>
<pdfrwt beam="2">  1       -1 0.30025135E-01 0.12987343E+04</pdfrwt>
<totfact> 0.61931567E+01</totfact>
</mgrwt>
</event>
<event>
12    7  0.1661464E-007  0.1353565E+04  0.7818608E-02  0.8988134E-01
         -1   -1    0    0    0  501 -0.00000000000E+00  0.00000000000E+00  0.62365608034E+03  0.62365608034E+03  0.00000000000E+00 0.  1.
          2   -1    0    0  501    0  0.00000000000E+00 -0.00000000000E+00 -0.73443422679E+03  0.73443422679E+03  0.00000000000E+00 0. -1.
         24    2    1    2    0    0  0.14283569235E+03  0.59384444890E+02 -0.36233510142E+03  0.40362427556E+03  0.87734159822E+02 0.  0.
        254    2    1    2    0    0 -0.14283569235E+03 -0.59384444890E+02  0.25155695497E+03  0.95446603156E+03  0.90763206010E+03 0.  0.
         23    2    4    4    0    0  0.12133392841E+03  0.33630435740E+03  0.28872884804E+03  0.46855490795E+03  0.91415595361E+02 0.  0.
         23    2    4    4    0    0 -0.26416962076E+03 -0.39568880229E+03 -0.37171893074E+02  0.48591112362E+03  0.91502205607E+02 0.  0.
          4    1    3    3  502    0  0.53683652260E+02  0.39355633835E+02 -0.25057281537E+03  0.25926344948E+03  0.00000000000E+00 0. -1.
         -3    1    3    3    0  502  0.89152040087E+02  0.20028811055E+02 -0.11176228605E+03  0.14436082608E+03  0.00000000000E+00 0.  1.
         13    1    5    5    0    0  0.47436138999E+02  0.39090365898E+02  0.63605766738E+02  0.88453024547E+02  0.00000000000E+00 0.  1.
        -13    1    5    5    0    0  0.73897789410E+02  0.29721399151E+03  0.22512308131E+03  0.38010188340E+03  0.00000000000E+00 0. -1.
          1    1    6    6  503    0 -0.31753370116E+02 -0.11289112116E+03  0.53926272079E+01  0.11739575026E+03  0.00000000000E+00 0. -1.
         -1    1    6    6    0  503 -0.23241625064E+03 -0.28279768113E+03 -0.42564520282E+02  0.36851537336E+03  0.00000000000E+00 0.  1.
<mgrwt>
<rscale>  0 0.13535647E+04</rscale>
<asrwt>0</asrwt>
<pdfrwt beam="1">  1        2 0.11298988E+00 0.13535647E+04</pdfrwt>
<pdfrwt beam="2">  1       -1 0.95947090E-01 0.13535647E+04</pdfrwt>
<totfact> 0.45017183E+01</totfact>
</mgrwt>
</event>
<event>
12    7  0.1661464E-007  0.1433833E+04  0.7818608E-02  0.8929686E-01
          2   -1    0    0  501    0  0.00000000000E+00  0.00000000000E+00  0.33646627448E+04  0.33646627448E+04  0.00000000000E+00 0. -1.
         -1   -1    0    0    0  501 -0.00000000000E+00 -0.00000000000E+00 -0.15275502283E+03  0.15275502283E+03  0.00000000000E+00 0.  1.
         24    2    1    2    0    0 -0.65215462458E+02 -0.34701087331E+03  0.14404925669E+04  0.14852788260E+04  0.79779400805E+02 0.  0.
        254    2    1    2    0    0  0.65215462458E+02  0.34701087331E+03  0.17714151551E+04  0.20321389417E+04  0.93113233426E+03 0.  0.
         23    2    4    4    0    0  0.20928804082E+03  0.23615631045E+03  0.92866526408E+02  0.34135406759E+03  0.91253058774E+02 0.  0.
         23    2    4    4    0    0 -0.14407257836E+03  0.11085456287E+03  0.16785486287E+04  0.16907848741E+04  0.90456341439E+02 0.  0.
          4    1    3    3  502    0 -0.38361691998E+02 -0.29217680088E+03  0.10721556542E+04  0.11119157564E+04  0.00000000000E+00 0. -1.
         -3    1    3    3    0  502 -0.26853770461E+02 -0.54834072436E+02  0.36833691271E+03  0.37336306961E+03  0.00000000000E+00 0.  1.
         13    1    5    5    0    0  0.15828415165E+03  0.18045335416E+03  0.10979327565E+03  0.26395425564E+03  0.00000000000E+00 0. -1.
        -13    1    5    5    0    0  0.51003889169E+02  0.55702956284E+02 -0.16926749243E+02  0.77399811944E+02  0.00000000000E+00 0.  1.
          4    1    6    6  503    0 -0.66193546145E+02  0.97376012328E+02  0.78975555326E+03  0.79848450657E+03  0.00000000000E+00 0. -1.
         -4    1    6    6    0  503 -0.77879032218E+02  0.13478550541E+02  0.88879307542E+03  0.89230036753E+03  0.00000000000E+00 0.  1.
<mgrwt>
<rscale>  0 0.14338328E+04</rscale>
<asrwt>0</asrwt>
<pdfrwt beam="1">  1        2 0.51764037E+00 0.14338328E+04</pdfrwt>
<pdfrwt beam="2">  1       -1 0.23500775E-01 0.14338328E+04</pdfrwt>
<totfact> 0.17590822E+01</totfact>
</mgrwt>
</event>
<event>
12    7  0.1661464E-007  0.1395668E+04  0.7818608E-02  0.8956960E-01
          2   -1    0    0  501    0  0.00000000000E+00  0.00000000000E+00  0.94819435255E+03  0.94819435255E+03  0.00000000000E+00 0. -1.
         -1   -1    0    0    0  501 -0.00000000000E+00 -0.00000000000E+00 -0.51357848667E+03  0.51357848667E+03  0.00000000000E+00 0.  1.
         24    2    1    2    0    0 -0.82072457297E+02 -0.36843503162E+03  0.50611560063E+02  0.38872890302E+03  0.77899738541E+02 0.  0.
        254    2    1    2    0    0  0.82072457297E+02  0.36843503162E+03  0.38400430582E+03  0.10730439362E+04  0.92816147375E+03 0.  0.
         23    2    4    4    0    0  0.67180263685E+02  0.65347414158E+03  0.39352516926E+03  0.77108057117E+03  0.90341279942E+02 0.  0.
         23    2    4    4    0    0  0.14892193611E+02 -0.28503910996E+03 -0.95208634453E+01  0.30196336502E+03  0.98092585534E+02 0.  0.
          4    1    3    3  502    0 -0.12357308272E+02 -0.12150512734E+03  0.50462472992E+02  0.13214635908E+03  0.00000000000E+00 0. -1.
         -3    1    3    3    0  502 -0.69715149024E+02 -0.24692990427E+03  0.14908707053E+00  0.25658254394E+03  0.00000000000E+00 0.  1.
         13    1    5    5    0    0 -0.29923854835E+00  0.23608195293E+02 -0.29096229636E+01  0.23788701825E+02  0.00000000000E+00 0.  1.
        -13    1    5    5    0    0  0.67479502234E+02  0.62986594628E+03  0.39643479222E+03  0.74729186935E+03  0.00000000000E+00 0. -1.
          4    1    6    6  503    0 -0.15324686439E+02 -0.24562956795E+03  0.15029775129E+02  0.24656566023E+03  0.00000000000E+00 0. -1.
         -4    1    6    6    0  503  0.30216880051E+02 -0.39409542012E+02 -0.24550638574E+02  0.55397704790E+02  0.00000000000E+00 0.  1.
<mgrwt>
<rscale>  0 0.13956679E+04</rscale>
<asrwt>0</asrwt>
<pdfrwt beam="1">  1        2 0.14587605E+00 0.13956679E+04</pdfrwt>
<pdfrwt beam="2">  1       -1 0.79012075E-01 0.13956679E+04</pdfrwt>
<totfact> 0.48458662E+01</totfact>
</mgrwt>
</event>
<event>
12    7  0.1661464E-007  0.1192520E+04  0.7818608E-02  0.9119429E-01
          2   -1    0    0  501    0  0.00000000000E+00  0.00000000000E+00  0.14685954383E+04  0.14685954383E+04  0.00000000000E+00 0. -1.
         -1   -1    0    0    0  501 -0.00000000000E+00 -0.00000000000E+00 -0.24208572246E+03  0.24208572246E+03  0.00000000000E+00 0.  1.
         24    2    1    2    0    0 -0.54453342417E+02  0.22314100794E+03  0.41985376170E+03  0.48446082435E+03  0.75286341374E+02 0.  0.
        254    2    1    2    0    0  0.54453342417E+02 -0.22314100794E+03  0.80665595414E+03  0.12262203364E+04  0.89451965274E+03 0.  0.
         23    2    4    4    0    0  0.31214026908E+03 -0.68126954670E+02 -0.28769919926E+02  0.33361716551E+03  0.91650833600E+02 0.  0.
         23    2    4    4    0    0 -0.25768692666E+03 -0.15501405327E+03  0.83542587407E+03  0.89260317089E+03  0.91499293673E+02 0.  0.
          4    1    3    3  502    0 -0.27252668892E+02  0.10332136023E+03  0.27188625420E+03  0.29213035903E+03  0.00000000000E+00 0. -1.
         -3    1    3    3    0  502 -0.27200673526E+02  0.11981964772E+03  0.14796750749E+03  0.19233046533E+03  0.00000000000E+00 0.  1.
         13    1    5    5    0    0  0.55741260565E+02 -0.39601454143E+01  0.29166658536E+02  0.63035425367E+02  0.00000000000E+00 0. -1.
        -13    1    5    5    0    0  0.25639900851E+03 -0.64166809256E+02 -0.57936578461E+02  0.27058174014E+03  0.00000000000E+00 0.  1.
          3    1    6    6  503    0 -0.18232201300E+03 -0.12683147091E+03  0.49087172728E+03  0.53877879605E+03  0.00000000000E+00 0. -1.
         -3    1    6    6    0  503 -0.75364913657E+02 -0.28182582368E+02  0.34455414679E+03  0.35382437484E+03  0.00000000000E+00 0.  1.
<mgrwt>
<rscale>  0 0.11925200E+04</rscale>
<asrwt>0</asrwt>
<pdfrwt beam="1">  1        2 0.22593775E+00 0.11925200E+04</pdfrwt>
<pdfrwt beam="2">  1       -1 0.37243958E-01 0.11925200E+04</pdfrwt>
<totfact> 0.10314197E+02</totfact>
</mgrwt>
</event>
<event>
12    7  0.1661464E-007  0.1411510E+04  0.7818608E-02  0.8945529E-01
         -1   -1    0    0    0  501 -0.00000000000E+00  0.00000000000E+00  0.42460529610E+03  0.42460529610E+03  0.00000000000E+00 0.  1.
          2   -1    0    0  501    0  0.00000000000E+00 -0.00000000000E+00 -0.11730655993E+04  0.11730655993E+04  0.00000000000E+00 0. -1.
         24    2    1    2    0    0 -0.14411377016E+02 -0.36519423001E+03 -0.42922771323E+03  0.56950000835E+03  0.80742283131E+02 0.  0.
        254    2    1    2    0    0  0.14411377016E+02  0.36519423001E+03 -0.31923258996E+03  0.10281708870E+04  0.90644989550E+03 0.  0.
         23    2    4    4    0    0  0.12767900509E+03 -0.14751163466E+03  0.19374387114E+03  0.28846727340E+03  0.87264365685E+02 0.  0.
         23    2    4    4    0    0 -0.11326762807E+03  0.51270586467E+03 -0.51297646110E+03  0.73970361365E+03  0.91212538438E+02 0.  0.
          4    1    3    3  502    0 -0.46879016664E+01 -0.29343074411E+03 -0.38693425484E+03  0.48563535248E+03  0.00000000000E+00 0. -1.
         -3    1    3    3    0  502 -0.97234753498E+01 -0.71763485899E+02 -0.42293458392E+02  0.83864655869E+02  0.00000000000E+00 0.  1.
         13    1    5    5    0    0  0.43181772979E+02 -0.63562604114E+02  0.22866005987E+02  0.80173090181E+02  0.00000000000E+00 0.  1.
        -13    1    5    5    0    0  0.84497232106E+02 -0.83949030543E+02  0.17087786515E+03  0.20829418322E+03  0.00000000000E+00 0. -1.
          1    1    6    6  503    0 -0.47849597405E+02  0.75050528298E+02 -0.10690654525E+03  0.13910850149E+03  0.00000000000E+00 0. -1.
         -1    1    6    6    0  503 -0.65418030665E+02  0.43765533637E+03 -0.40606991585E+03  0.60059511216E+03  0.00000000000E+00 0.  1.
<mgrwt>
<rscale>  0 0.14115096E+04</rscale>
<asrwt>0</asrwt>
<pdfrwt beam="1">  1        2 0.18047163E+00 0.14115096E+04</pdfrwt>
<pdfrwt beam="2">  1       -1 0.65323892E-01 0.14115096E+04</pdfrwt>
<totfact> 0.51796707E+01</totfact>
</mgrwt>
</event>
<event>
12    7  0.1661464E-007  0.3071657E+04  0.7818608E-02  0.8223560E-01
         -1   -1    0    0    0  501 -0.00000000000E+00  0.00000000000E+00  0.76269980266E+03  0.76269980266E+03  0.00000000000E+00 0.  1.
          2   -1    0    0  501    0  0.00000000000E+00 -0.00000000000E+00 -0.30926570572E+04  0.30926570572E+04  0.00000000000E+00 0. -1.
         24    2    1    2    0    0 -0.60980445222E+03 -0.10779680830E+04 -0.19021363531E+04  0.22714736846E+04  0.87139750228E+02 0.  0.
        254    2    1    2    0    0  0.60980445222E+03  0.10779680830E+04 -0.42782090140E+03  0.15838831752E+04  0.88981938128E+03 0.  0.
         23    2    4    4    0    0  0.77740699138E+03  0.53341840384E+03 -0.23723912298E+03  0.97619596097E+03  0.88200504204E+02 0.  0.
         23    2    4    4    0    0 -0.16760253916E+03  0.54454967913E+03 -0.19058177842E+03  0.60768721428E+03  0.91309210718E+02 0.  0.
          4    1    3    3  502    0 -0.43586158138E+03 -0.77730114243E+03 -0.14380146644E+04  0.16917619688E+04  0.00000000000E+00 0. -1.
         -3    1    3    3    0  502 -0.17394287083E+03 -0.30066694054E+03 -0.46412168872E+03  0.57971171576E+03  0.00000000000E+00 0.  1.
         13    1    5    5    0    0  0.39863663903E+03  0.31793123208E+03 -0.10280581007E+03  0.52015427797E+03  0.00000000000E+00 0. -1.
        -13    1    5    5    0    0  0.37877035235E+03  0.21548717177E+03 -0.13443331291E+03  0.45604168300E+03  0.00000000000E+00 0.  1.
          3    1    6    6  503    0 -0.11096863769E+03  0.20908265085E+03 -0.72384718551E+02  0.24752604089E+03  0.00000000000E+00 0. -1.
         -3    1    6    6    0  503 -0.56633901464E+02  0.33546702828E+03 -0.11819705987E+03  0.36016117339E+03  0.00000000000E+00 0.  1.
<mgrwt>
<rscale>  0 0.30716568E+04</rscale>
<asrwt>0</asrwt>
<pdfrwt beam="1">  1        2 0.47579339E+00 0.30716568E+04</pdfrwt>
<pdfrwt beam="2">  1       -1 0.11733843E+00 0.30716568E+04</pdfrwt>
<totfact> 0.96091147E-01</totfact>
</mgrwt>
</event>
<event>
12    7  0.1661464E-007  0.1602168E+04  0.7818608E-02  0.8819217E-01
          2   -1    0    0  501    0  0.00000000000E+00  0.00000000000E+00  0.28714561177E+04  0.28714561177E+04  0.00000000000E+00 0. -1.
         -1   -1    0    0    0  501 -0.00000000000E+00 -0.00000000000E+00 -0.22348791545E+03  0.22348791545E+03  0.00000000000E+00 0.  1.
         24    2    1    2    0    0  0.17827574014E+03  0.17246256486E+03 -0.25040660436E+02  0.26173947692E+03  0.79717898241E+02 0.  0.
        254    2    1    2    0    0 -0.17827574014E+03 -0.17246256486E+03  0.26730088626E+04  0.28332045562E+04  0.90583999780E+03 0.  0.
         23    2    4    4    0    0 -0.75428589432E+02 -0.20602929304E+03  0.10523245785E+03  0.26136815023E+03  0.95403868233E+02 0.  0.
         23    2    4    4    0    0 -0.10284715071E+03  0.33566728174E+02  0.25677764048E+04  0.25718364060E+04  0.95721326524E+02 0.  0.
          2    1    3    3  502    0  0.75161658325E+02  0.28933190535E+02  0.11257558525E+02  0.81321196626E+02  0.00000000000E+00 0. -1.
         -1    1    3    3    0  502  0.10311408182E+03  0.14352937433E+03 -0.36298218961E+02  0.18041828029E+03  0.00000000000E+00 0.  1.
         13    1    5    5    0    0  0.70148034674E+01 -0.11271861083E+03  0.66056413039E+02  0.13083631911E+03  0.00000000000E+00 0. -1.
        -13    1    5    5    0    0 -0.82443392900E+02 -0.93310682208E+02  0.39176044810E+02  0.13053183111E+03  0.00000000000E+00 0.  1.
          3    1    6    6  503    0  0.50916972021E+01 -0.18656500670E+02  0.66783579775E+03  0.66811574083E+03  0.00000000000E+00 0. -1.
         -3    1    6    6    0  503 -0.10793884791E+03  0.52223228844E+02  0.18999406070E+04  0.19037206651E+04  0.00000000000E+00 0.  1.
<mgrwt>
<rscale>  0 0.16021682E+04</rscale>
<asrwt>0</asrwt>
<pdfrwt beam="1">  1        2 0.44176245E+00 0.16021682E+04</pdfrwt>
<pdfrwt beam="2">  1       -1 0.34382758E-01 0.16021682E+04</pdfrwt>
<totfact> 0.18383988E+01</totfact>
</mgrwt>
</event>
<event>
12    7  0.1661464E-007  0.1837854E+04  0.7818608E-02  0.8686424E-01
          2   -1    0    0  501    0  0.00000000000E+00  0.00000000000E+00  0.19255376296E+04  0.19255376296E+04  0.00000000000E+00 0. -1.
         -1   -1    0    0    0  501 -0.00000000000E+00 -0.00000000000E+00 -0.43854092109E+03  0.43854092109E+03  0.00000000000E+00 0.  1.
         24    2    1    2    0    0  0.76559924024E+02 -0.22578617152E+03 -0.27339546625E+03  0.37089647186E+03  0.77319432583E+02 0.  0.
        254    2    1    2    0    0 -0.76559924024E+02  0.22578617152E+03  0.17603921748E+04  0.19931820788E+04  0.90385473013E+03 0.  0.
         23    2    4    4    0    0 -0.19284611453E+03 -0.91016858904E-01  0.83132780410E+00  0.21306310997E+03  0.90584576770E+02 0.  0.
         23    2    4    4    0    0  0.11628619051E+03  0.22587718838E+03  0.17595608470E+04  0.17801189689E+04  0.90698328632E+02 0.  0.
          4    1    3    3  502    0  0.11373053479E+01  0.46186852508E+01 -0.18574998490E+02  0.19174365330E+02  0.00000000000E+00 0. -1.
         -3    1    3    3    0  502  0.75422618676E+02 -0.23040485677E+03 -0.25482046776E+03  0.35172210653E+03  0.00000000000E+00 0.  1.
         13    1    5    5    0    0 -0.10162216314E+03  0.34399407183E+02 -0.28890560653E+02  0.11110827040E+03  0.00000000000E+00 0.  1.
        -13    1    5    5    0    0 -0.91223951391E+02 -0.34490424042E+02  0.29721888457E+02  0.10195483957E+03  0.00000000000E+00 0. -1.
          1    1    6    6  503    0  0.90633118560E+02  0.17710836610E+03  0.10684749474E+04  0.10868396610E+04  0.00000000000E+00 0. -1.
         -1    1    6    6    0  503  0.25653071950E+02  0.48768822282E+02  0.69108589953E+03  0.69327930782E+03  0.00000000000E+00 0.  1.
<mgrwt>
<rscale>  0 0.18378542E+04</rscale>
<asrwt>0</asrwt>
<pdfrwt beam="1">  1        2 0.29623655E+00 0.18378542E+04</pdfrwt>
<pdfrwt beam="2">  1       -1 0.67467835E-01 0.18378542E+04</pdfrwt>
<totfact> 0.17526803E+01</totfact>
</mgrwt>
</event>
<event>
12    7  0.1766466E-007  0.2280612E+04  0.7818608E-02  0.8485605E-01
          2   -1    0    0  501    0  0.00000000000E+00  0.00000000000E+00  0.15839551473E+04  0.15839551473E+04  0.00000000000E+00 0. -1.
         -1   -1    0    0    0  501 -0.00000000000E+00 -0.00000000000E+00 -0.82091830057E+03  0.82091830057E+03  0.00000000000E+00 0.  1.
         24    2    1    2    0    0  0.55590332918E+03  0.72653759023E+03  0.52140385589E+03  0.10564066335E+04  0.85132912986E+02 0.  0.
        254    2    1    2    0    0 -0.55590332918E+03 -0.72653759023E+03  0.24163299084E+03  0.13484668144E+04  0.96077617886E+03 0.  0.
         23    2    4    4    0    0  0.12060989948E+02 -0.42450052690E+03 -0.27799087772E+03  0.51651035816E+03  0.95696693622E+02 0.  0.
         23    2    4    4    0    0 -0.56796431913E+03 -0.30203706333E+03  0.51962386856E+03  0.83195645624E+03  0.91283760230E+02 0.  0.
          2    1    3    3  502    0  0.52589633248E+03  0.68301111890E+03  0.51231051425E+03  0.10027627855E+04  0.00000000000E+00 0. -1.
         -1    1    3    3    0  502  0.30006996704E+02  0.43526471329E+02  0.90933416399E+01  0.53643847921E+02  0.00000000000E+00 0.  1.
         13    1    5    5    0    0 -0.28406881833E+02 -0.52576876728E+02 -0.24427662845E+02  0.64559969130E+02  0.00000000000E+00 0. -1.
        -13    1    5    5    0    0  0.40467871781E+02 -0.37192365017E+03 -0.25356321488E+03  0.45195038903E+03  0.00000000000E+00 0.  1.
          3    1    6    6  503    0 -0.45236459772E+02 -0.15287449395E+02  0.72073222080E+02  0.86455727067E+02  0.00000000000E+00 0. -1.
         -3    1    6    6    0  503 -0.52272785936E+03 -0.28674961393E+03  0.44755064648E+03  0.74550072918E+03  0.00000000000E+00 0.  1.
<mgrwt>
<rscale>  0 0.22806120E+04</rscale>
<asrwt>0</asrwt>
<pdfrwt beam="1">  1        2 0.24368541E+00 0.22806120E+04</pdfrwt>
<pdfrwt beam="2">  1       -1 0.12629512E+00 0.22806120E+04</pdfrwt>
<totfact> 0.64222275E+00</totfact>
</mgrwt>
</event>
<event>
12    7  0.1661464E-007  0.1284713E+04  0.7818608E-02  0.9041777E-01
         -1   -1    0    0    0  501 -0.00000000000E+00  0.00000000000E+00  0.99646552974E+02  0.99646552974E+02  0.00000000000E+00 0.  1.
          2   -1    0    0  501    0  0.00000000000E+00 -0.00000000000E+00 -0.41408514479E+04  0.41408514479E+04  0.00000000000E+00 0. -1.
         24    2    1    2    0    0  0.35263453871E+00  0.14226331826E+03 -0.89039579044E+02  0.18581048192E+03  0.79740281429E+02 0.  0.
        254    2    1    2    0    0 -0.35263453871E+00 -0.14226331826E+03 -0.39521653159E+04  0.40546875190E+04  0.89478556996E+03 0.  0.
         23    2    4    4    0    0  0.13984551326E+03 -0.21445702310E+03 -0.38209223045E+04  0.38305987813E+04  0.92147621701E+02 0.  0.
         23    2    4    4    0    0 -0.14019814780E+03  0.72193704841E+02 -0.13124301143E+03  0.22408873766E+03  0.90130919406E+02 0.  0.
          2    1    3    3  502    0 -0.18514436915E+02 -0.89818258313E+00 -0.12741736803E+02  0.22493175921E+02  0.00000000000E+00 0. -1.
         -1    1    3    3    0  502  0.18867071454E+02  0.14316150084E+03 -0.76297842241E+02  0.16331730600E+03  0.00000000000E+00 0.  1.
         13    1    5    5    0    0 -0.38898137013E+01  0.36094275341E+01 -0.19321319829E+02  0.20036766648E+02  0.00000000000E+00 0.  1.
        -13    1    5    5    0    0  0.14373532697E+03 -0.21806645064E+03 -0.38016009847E+04  0.38105620147E+04  0.00000000000E+00 0. -1.
          2    1    6    6  503    0 -0.10193753596E+03  0.56209558281E+01 -0.55365273928E+02  0.11613858075E+03  0.00000000000E+00 0. -1.
         -2    1    6    6    0  503 -0.38260611848E+02  0.66572749013E+02 -0.75877737500E+02  0.10795015692E+03  0.00000000000E+00 0.  1.
<mgrwt>
<rscale>  0 0.12847125E+04</rscale>
<asrwt>0</asrwt>
<pdfrwt beam="1">  1        2 0.63705417E+00 0.12847125E+04</pdfrwt>
<pdfrwt beam="2">  1       -1 0.15330236E-01 0.12847125E+04</pdfrwt>
<totfact> 0.96405330E+00</totfact>
</mgrwt>
</event>
<event>
12    7  0.1661464E-007  0.1877240E+04  0.7818608E-02  0.8666269E-01
          2   -1    0    0  501    0  0.00000000000E+00  0.00000000000E+00  0.66980443584E+03  0.66980443584E+03  0.00000000000E+00 0. -1.
         -1   -1    0    0    0  501 -0.00000000000E+00 -0.00000000000E+00 -0.13153211030E+04  0.13153211030E+04  0.00000000000E+00 0.  1.
         24    2    1    2    0    0 -0.20736139494E+03 -0.67765306517E+03 -0.37191393950E+03  0.80445380144E+03  0.81323523180E+02 0.  0.
        254    2    1    2    0    0  0.20736139494E+03  0.67765306517E+03 -0.27360272768E+03  0.11806717374E+04  0.90383343272E+03 0.  0.
         23    2    4    4    0    0 -0.98883214817E+02  0.56705215331E+03  0.18444844276E+03  0.61136543461E+03  0.91762911136E+02 0.  0.
         23    2    4    4    0    0  0.30624460975E+03  0.11060091186E+03 -0.45805117044E+03  0.56930630280E+03  0.90997082167E+02 0.  0.
          2    1    3    3  502    0 -0.13869114483E+03 -0.37384271703E+03 -0.24581986828E+03  0.46842397289E+03  0.00000000000E+00 0. -1.
         -1    1    3    3    0  502 -0.68670250105E+02 -0.30381034814E+03 -0.12609407122E+03  0.33602982856E+03  0.00000000000E+00 0.  1.
         13    1    5    5    0    0  0.77975429180E+01  0.36520698643E+02 -0.57064894370E+01  0.37777336150E+02  0.00000000000E+00 0.  1.
        -13    1    5    5    0    0 -0.10668075774E+03  0.53053145466E+03  0.19015493220E+03  0.57358809846E+03  0.00000000000E+00 0. -1.
          1    1    6    6  503    0  0.27236077513E+03  0.62840885936E+02 -0.37743079541E+03  0.46966304315E+03  0.00000000000E+00 0. -1.
         -1    1    6    6    0  503  0.33883834626E+02  0.47760025924E+02 -0.80620375029E+02  0.99643259657E+02  0.00000000000E+00 0.  1.
<mgrwt>
<rscale>  0 0.18772404E+04</rscale>
<asrwt>0</asrwt>
<pdfrwt beam="1">  1        2 0.10304684E+00 0.18772404E+04</pdfrwt>
<pdfrwt beam="2">  1       -1 0.20235709E+00 0.18772404E+04</pdfrwt>
<totfact> 0.67266705E+00</totfact>
</mgrwt>
</event>
<event>
12    7  0.1661464E-007  0.2867318E+04  0.7818608E-02  0.8282668E-01
         -1   -1    0    0    0  501 -0.00000000000E+00  0.00000000000E+00  0.89030512835E+03  0.89030512835E+03  0.00000000000E+00 0.  1.
          2   -1    0    0  501    0  0.00000000000E+00 -0.00000000000E+00 -0.23086213392E+04  0.23086213392E+04  0.00000000000E+00 0. -1.
         24    2    1    2    0    0 -0.53019039854E+03 -0.29712513560E+03  0.62982460352E+03  0.87882560215E+03  0.79184612693E+02 0.  0.
        254    2    1    2    0    0  0.53019039854E+03  0.29712513560E+03 -0.20481408143E+04  0.23201008654E+04  0.90476628212E+03 0.  0.
         23    2    4    4    0    0  0.79905408989E+02 -0.24397178917E+03 -0.19286488762E+03  0.33376912872E+03  0.91092579918E+02 0.  0.
         23    2    4    4    0    0  0.45028498955E+03  0.54109692476E+03 -0.18552759267E+04  0.19863317366E+04  0.89008707377E+02 0.  0.
          2    1    3    3  502    0 -0.15866706952E+03 -0.12854855806E+03  0.19023152458E+03  0.27908422326E+03  0.00000000000E+00 0. -1.
         -1    1    3    3    0  502 -0.37152332902E+03 -0.16857657754E+03  0.43959307894E+03  0.59974137889E+03  0.00000000000E+00 0.  1.
         13    1    5    5    0    0  0.70836683075E+02 -0.94417043381E+02 -0.55228460395E+02  0.13031729197E+03  0.00000000000E+00 0. -1.
        -13    1    5    5    0    0  0.90687259148E+01 -0.14955474579E+03 -0.13763642723E+03  0.20345183675E+03  0.00000000000E+00 0.  1.
          3    1    6    6  503    0  0.57170981069E+01  0.26319425438E+02 -0.10872922658E+03  0.11201536537E+03  0.00000000000E+00 0. -1.
         -3    1    6    6    0  503  0.44456789145E+03  0.51477749932E+03 -0.17465467001E+04  0.18743163713E+04  0.00000000000E+00 0.  1.
<mgrwt>
<rscale>  0 0.28673175E+04</rscale>
<asrwt>0</asrwt>
<pdfrwt beam="1">  1        2 0.35517250E+00 0.28673175E+04</pdfrwt>
<pdfrwt beam="2">  1       -1 0.13697002E+00 0.28673175E+04</pdfrwt>
<totfact> 0.19571037E+00</totfact>
</mgrwt>
</event>
<event>
12    7  0.1661464E-007  0.2424190E+04  0.7818608E-02  0.8430503E-01
         -1   -1    0    0    0  501 -0.00000000000E+00  0.00000000000E+00  0.18634848199E+04  0.18634848199E+04  0.00000000000E+00 0.  1.
          2   -1    0    0  501    0  0.00000000000E+00 -0.00000000000E+00 -0.78840125429E+03  0.78840125429E+03  0.00000000000E+00 0. -1.
         24    2    1    2    0    0  0.66852509726E+03 -0.66945586478E+03 -0.18757961103E+02  0.94956396702E+03  0.78885396649E+02 0.  0.
        254    2    1    2    0    0 -0.66852509726E+03  0.66945586478E+03  0.10938415267E+04  0.17023221072E+04  0.89795006013E+03 0.  0.
         23    2    4    4    0    0 -0.80240274992E+03  0.49664996122E+03  0.51780873743E+03  0.10806241890E+04  0.95453613367E+02 0.  0.
         23    2    4    4    0    0  0.13387765266E+03  0.17280590355E+03  0.57603278929E+03  0.62169791815E+03  0.83122926489E+02 0.  0.
          2    1    3    3  502    0  0.43522322122E+03 -0.42674485548E+03 -0.49301595413E+02  0.61152356560E+03  0.00000000000E+00 0. -1.
         -1    1    3    3    0  502  0.23330187604E+03 -0.24271100930E+03  0.30543634310E+02  0.33804040142E+03  0.00000000000E+00 0.  1.
         13    1    5    5    0    0 -0.39346163370E+01  0.48366615937E+01 -0.40351372700E+01  0.74267646980E+01  0.00000000000E+00 0.  1.
        -13    1    5    5    0    0 -0.79846813359E+03  0.49181329963E+03  0.52184387470E+03  0.10731974243E+04  0.00000000000E+00 0. -1.
          2    1    6    6  503    0  0.92713526650E+02  0.57828928680E+02  0.31738762358E+03  0.33567080096E+03  0.00000000000E+00 0. -1.
         -2    1    6    6    0  503  0.41164126011E+02  0.11497697487E+03  0.25864516571E+03  0.28602711719E+03  0.00000000000E+00 0.  1.
<mgrwt>
<rscale>  0 0.24241896E+04</rscale>
<asrwt>0</asrwt>
<pdfrwt beam="1">  1        2 0.12129250E+00 0.24241896E+04</pdfrwt>
<pdfrwt beam="2">  1       -1 0.28668997E+00 0.24241896E+04</pdfrwt>
<totfact> 0.14483939E+00</totfact>
</mgrwt>
</event>
<event>
12    7  0.1661464E-007  0.1492757E+04  0.7818608E-02  0.8889284E-01
          2   -1    0    0  501    0  0.00000000000E+00  0.00000000000E+00  0.32775595592E+03  0.32775595592E+03  0.00000000000E+00 0. -1.
         -1   -1    0    0    0  501 -0.00000000000E+00 -0.00000000000E+00 -0.16996815921E+04  0.16996815921E+04  0.00000000000E+00 0.  1.
         24    2    1    2    0    0 -0.77253056982E+01  0.29781556004E+02 -0.10781594166E+04  0.10815133401E+04  0.79352100530E+02 0.  0.
        254    2    1    2    0    0  0.77253056982E+01 -0.29781556004E+02 -0.29376621954E+03  0.94592420785E+03  0.89862527998E+03 0.  0.
         23    2    4    4    0    0 -0.81577422275E+02  0.15040676684E+03  0.27414065574E+03  0.33647399283E+03  0.93726076348E+02 0.  0.
         23    2    4    4    0    0  0.89302727973E+02 -0.18018832284E+03 -0.56790687527E+03  0.60945021501E+03  0.92024652591E+02 0.  0.
          2    1    3    3  502    0 -0.26934417878E+02  0.25824141186E+02 -0.22088304442E+03  0.22401265243E+03  0.00000000000E+00 0. -1.
         -1    1    3    3    0  502  0.19209112180E+02  0.39574148183E+01 -0.85727637218E+03  0.85750068771E+03  0.00000000000E+00 0.  1.
         13    1    5    5    0    0 -0.56035904267E+02  0.86897059469E+02  0.80346492320E+02  0.13094533340E+03  0.00000000000E+00 0. -1.
        -13    1    5    5    0    0 -0.25541518008E+02  0.63509707369E+02  0.19379416342E+03  0.20552865943E+03  0.00000000000E+00 0.  1.
          2    1    6    6  503    0  0.99778285941E+01 -0.18383129261E+02 -0.10041585502E+02  0.23201938373E+02  0.00000000000E+00 0. -1.
         -2    1    6    6    0  503  0.79324899379E+02 -0.16180519358E+03 -0.55786528977E+03  0.58624827664E+03  0.00000000000E+00 0.  1.
<mgrwt>
<rscale>  0 0.14927569E+04</rscale>
<asrwt>0</asrwt>
<pdfrwt beam="1">  1        2 0.50423994E-01 0.14927569E+04</pdfrwt>
<pdfrwt beam="2">  1       -1 0.26148947E+00 0.14927569E+04</pdfrwt>
<totfact> 0.64652389E+00</totfact>
</mgrwt>
</event>
<event>
12    7  0.1661464E-007  0.1435724E+04  0.7818608E-02  0.8928358E-01
          2   -1    0    0  501    0  0.00000000000E+00  0.00000000000E+00  0.47662562316E+03  0.47662562316E+03  0.00000000000E+00 0. -1.
         -1   -1    0    0    0  501 -0.00000000000E+00 -0.00000000000E+00 -0.10811956774E+04  0.10811956774E+04  0.00000000000E+00 0.  1.
         24    2    1    2    0    0 -0.11043500868E+03  0.70798327639E+02  0.25811008265E+03  0.30167850843E+03  0.84739679872E+02 0.  0.
        254    2    1    2    0    0  0.11043500868E+03 -0.70798327639E+02 -0.86268013692E+03  0.12561427922E+04  0.90358696390E+03 0.  0.
         23    2    4    4    0    0  0.18828691080E+03  0.27986085688E+03 -0.81028108808E+03  0.88226965721E+03  0.89834549764E+02 0.  0.
         23    2    4    4    0    0 -0.77851902119E+02 -0.35065918452E+03 -0.52399048839E+02  0.37387313496E+03  0.89513565293E+02 0.  0.
          2    1    3    3  502    0 -0.10085777510E+03  0.86137960279E+02  0.19356170513E+03  0.23464477981E+03  0.00000000000E+00 0. -1.
         -1    1    3    3    0  502 -0.95772335832E+01 -0.15339632639E+02  0.64548377516E+02  0.67033728619E+02  0.00000000000E+00 0.  1.
         13    1    5    5    0    0  0.14851003864E+03  0.15059789802E+03 -0.54252131234E+03  0.58229230873E+03  0.00000000000E+00 0. -1.
        -13    1    5    5    0    0  0.39776872163E+02  0.12926295886E+03 -0.26775977574E+03  0.29997734847E+03  0.00000000000E+00 0.  1.
          3    1    6    6  503    0  0.13691282528E+02 -0.28786007266E+02  0.10122660446E+02  0.33444785634E+02  0.00000000000E+00 0.  1.
         -3    1    6    6    0  503 -0.91543184647E+02 -0.32187317725E+03 -0.62521709285E+02  0.34042834932E+03  0.00000000000E+00 0. -1.
<mgrwt>
<rscale>  0 0.14357236E+04</rscale>
<asrwt>0</asrwt>
<pdfrwt beam="1">  1        2 0.73327020E-01 0.14357236E+04</pdfrwt>
<pdfrwt beam="2">  1       -1 0.16633779E+00 0.14357236E+04</pdfrwt>
<totfact> 0.18926011E+01</totfact>
</mgrwt>
</event>
<event>
12    7  0.1661464E-007  0.2535542E+04  0.7818608E-02  0.8390432E-01
          2   -1    0    0  501    0  0.00000000000E+00  0.00000000000E+00  0.22622661240E+04  0.22622661240E+04  0.00000000000E+00 0. -1.
         -1   -1    0    0    0  501 -0.00000000000E+00 -0.00000000000E+00 -0.71045727076E+03  0.71045727076E+03  0.00000000000E+00 0.  1.
         24    2    1    2    0    0  0.77272420968E+03  0.66803873082E+03  0.17762864665E+03  0.10398702283E+04  0.79998159401E+02 0.  0.
        254    2    1    2    0    0 -0.77272420968E+03 -0.66803873082E+03  0.13741802066E+04  0.19328531665E+04  0.89675619475E+03 0.  0.
         23    2    4    4    0    0 -0.24936742645E+02 -0.22895968472E+02  0.76083862606E+03  0.76692726201E+03  0.90310264136E+02 0.  0.
         23    2    4    4    0    0 -0.74778746704E+03 -0.64514276235E+03  0.61334158055E+03  0.11659259045E+04  0.88317838521E+02 0.  0.
          4    1    3    3  502    0  0.24593145964E+03  0.19137340964E+03  0.87975374822E+02  0.32379890570E+03  0.00000000000E+00 0. -1.
         -3    1    3    3    0  502  0.52679275004E+03  0.47666532118E+03  0.89653271833E+02  0.71607132261E+03  0.00000000000E+00 0.  1.
         13    1    5    5    0    0 -0.23827265417E+02 -0.14379319423E+02  0.61139826225E+02  0.67175752732E+02  0.00000000000E+00 0.  1.
        -13    1    5    5    0    0 -0.11094772282E+01 -0.85166490488E+01  0.69969879983E+03  0.69975150928E+03  0.00000000000E+00 0. -1.
          3    1    6    6  503    0 -0.71727428613E+03 -0.63822210738E+03  0.59017114018E+03  0.11269923844E+04  0.00000000000E+00 0. -1.
         -3    1    6    6    0  503 -0.30513180911E+02 -0.69206549681E+01  0.23170440366E+02  0.38933520021E+02  0.00000000000E+00 0.  1.
<mgrwt>
<rscale>  0 0.25355421E+04</rscale>
<asrwt>0</asrwt>
<pdfrwt beam="1">  1        2 0.34804094E+00 0.25355421E+04</pdfrwt>
<pdfrwt beam="2">  1       -1 0.10930112E+00 0.25355421E+04</pdfrwt>
<totfact> 0.37317903E+00</totfact>
</mgrwt>
</event>
<event>
12    7  0.1661464E-007  0.2190354E+04  0.7818608E-02  0.8522454E-01
         -1   -1    0    0    0  501 -0.00000000000E+00  0.00000000000E+00  0.22574368819E+04  0.22574368819E+04  0.00000000000E+00 0.  1.
          2   -1    0    0  501    0  0.00000000000E+00 -0.00000000000E+00 -0.53131630911E+03  0.53131630911E+03  0.00000000000E+00 0. -1.
         24    2    1    2    0    0  0.61140556081E+02 -0.85236344733E+03  0.33570413571E+03  0.92159010288E+03  0.79808753007E+02 0.  0.
        254    2    1    2    0    0 -0.61140556081E+02  0.85236344733E+03  0.13904164370E+04  0.18671630881E+04  0.90707139475E+03 0.  0.
         23    2    4    4    0    0 -0.87600809669E+02  0.10301529351E+04  0.12348686166E+04  0.16131550002E+04  0.92084650131E+02 0.  0.
         23    2    4    4    0    0  0.26460253589E+02 -0.17778948777E+03  0.15554782045E+03  0.25400808791E+03  0.89530650020E+02 0.  0.
          2    1    3    3  502    0  0.71931545008E+02 -0.75784571699E+03  0.27857246359E+03  0.81062130208E+03  0.00000000000E+00 0. -1.
         -1    1    3    3    0  502 -0.10790988927E+02 -0.94517730339E+02  0.57131672121E+02  0.11096880079E+03  0.00000000000E+00 0.  1.
         13    1    5    5    0    0 -0.94397545815E+02  0.89880466477E+03  0.10368142706E+04  0.13754070502E+04  0.00000000000E+00 0.  1.
        -13    1    5    5    0    0  0.67967361453E+01  0.13134827034E+03  0.19805434602E+03  0.23774794998E+03  0.00000000000E+00 0. -1.
          1    1    6    6  503    0 -0.22896023824E+02 -0.73443823270E+02  0.99270515137E+02  0.12559004045E+03  0.00000000000E+00 0. -1.
         -1    1    6    6    0  503  0.49356277413E+02 -0.10434566450E+03  0.56277305312E+02  0.12841804746E+03  0.00000000000E+00 0.  1.
<mgrwt>
<rscale>  0 0.21903543E+04</rscale>
<asrwt>0</asrwt>
<pdfrwt beam="1">  1        2 0.81740972E-01 0.21903543E+04</pdfrwt>
<pdfrwt beam="2">  1       -1 0.34729798E+00 0.21903543E+04</pdfrwt>
<totfact> 0.97079933E-01</totfact>
</mgrwt>
</event>
<event>
12    7  0.1661464E-007  0.1316970E+04  0.7818608E-02  0.9016215E-01
         -1   -1    0    0    0  501 -0.00000000000E+00  0.00000000000E+00  0.21111134801E+03  0.21111134801E+03  0.00000000000E+00 0.  1.
          2   -1    0    0  501    0  0.00000000000E+00 -0.00000000000E+00 -0.20539049483E+04  0.20539049483E+04  0.00000000000E+00 0. -1.
         24    2    1    2    0    0  0.53681117262E+02  0.12718942551E+03  0.27339605048E+02  0.16174371274E+03  0.79716762951E+02 0.  0.
        254    2    1    2    0    0 -0.53681117262E+02 -0.12718942551E+03 -0.18701332054E+04  0.21032725836E+04  0.95252220066E+03 0.  0.
         23    2    4    4    0    0 -0.34099372448E+03 -0.35699681892E+03 -0.14636837408E+04  0.15474580847E+04  0.92374141407E+02 0.  0.
         23    2    4    4    0    0  0.28731260722E+03  0.22980739341E+03 -0.40644946460E+03  0.55581449891E+03  0.91480148631E+02 0.  0.
          4    1    3    3  502    0 -0.16128276939E+02  0.31502949416E+01 -0.15538224655E+01  0.16506363606E+02  0.00000000000E+00 0. -1.
         -3    1    3    3    0  502  0.69809394200E+02  0.12403913057E+03  0.28893427514E+02  0.14523734914E+03  0.00000000000E+00 0.  1.
         13    1    5    5    0    0 -0.34284130888E+03 -0.33264528451E+03 -0.13844354301E+04  0.14645321807E+04  0.00000000000E+00 0.  1.
        -13    1    5    5    0    0  0.18475844016E+01 -0.24351534414E+02 -0.79248310703E+02  0.82925903949E+02  0.00000000000E+00 0. -1.
          3    1    6    6  503    0  0.12719109339E+02  0.33380198319E+02 -0.73094407005E+02  0.81356042908E+02  0.00000000000E+00 0. -1.
         -3    1    6    6    0  503  0.27459349788E+03  0.19642719509E+03 -0.33335505760E+03  0.47445845600E+03  0.00000000000E+00 0.  1.
<mgrwt>
<rscale>  0 0.13169702E+04</rscale>
<asrwt>0</asrwt>
<pdfrwt beam="1">  1        2 0.31598539E+00 0.13169702E+04</pdfrwt>
<pdfrwt beam="2">  1       -1 0.32478667E-01 0.13169702E+04</pdfrwt>
<totfact> 0.61730100E+01</totfact>
</mgrwt>
</event>
<event>
12    7  0.1661464E-007  0.1480643E+04  0.7818608E-02  0.8897428E-01
          2   -1    0    0  501    0  0.00000000000E+00  0.00000000000E+00  0.71932891246E+03  0.71932891246E+03  0.00000000000E+00 0. -1.
         -1   -1    0    0    0  501 -0.00000000000E+00 -0.00000000000E+00 -0.76192723384E+03  0.76192723384E+03  0.00000000000E+00 0.  1.
         24    2    1    2    0    0  0.31053905952E+02  0.43321144726E+02  0.44594120576E+03  0.45616609158E+03  0.79892912431E+02 0.  0.
        254    2    1    2    0    0 -0.31053905952E+02 -0.43321144726E+02 -0.48853952713E+03  0.10250900547E+04  0.89960973986E+03 0.  0.
         23    2    4    4    0    0 -0.26886219786E+02  0.41176190463E+03 -0.14518133469E+03  0.44776867468E+03  0.95647431546E+02 0.  0.
         23    2    4    4    0    0 -0.41676861654E+01 -0.45508304936E+03 -0.34335819244E+03  0.57732138003E+03  0.91033928315E+02 0.  0.
          2    1    3    3  502    0  0.36107164068E+02 -0.21116286085E+01  0.32268963116E+03  0.32471030832E+03  0.00000000000E+00 0. -1.
         -1    1    3    3    0  502 -0.50532581164E+01  0.45432773334E+02  0.12325157460E+03  0.13145578326E+03  0.00000000000E+00 0.  1.
         13    1    5    5    0    0  0.20249035009E+02  0.89424228591E+02 -0.64673084918E+02  0.11220215680E+03  0.00000000000E+00 0.  1.
        -13    1    5    5    0    0 -0.47135254795E+02  0.32233767604E+03 -0.80508249774E+02  0.33556651788E+03  0.00000000000E+00 0. -1.
          3    1    6    6  503    0 -0.23013822866E+02 -0.33666093863E+02 -0.44413162904E+02  0.60295696016E+02  0.00000000000E+00 0. -1.
         -3    1    6    6    0  503  0.18846136700E+02 -0.42141695550E+03 -0.29894502954E+03  0.51702568402E+03  0.00000000000E+00 0.  1.
<mgrwt>
<rscale>  0 0.14806435E+04</rscale>
<asrwt>0</asrwt>
<pdfrwt beam="1">  1        2 0.11066599E+00 0.14806435E+04</pdfrwt>
<pdfrwt beam="2">  1       -1 0.11721958E+00 0.14806435E+04</pdfrwt>
<totfact> 0.28675840E+01</totfact>
</mgrwt>
</event>
<event>
12    7  0.1661464E-007  0.1881858E+04  0.7818608E-02  0.8663940E-01
          2   -1    0    0  501    0  0.00000000000E+00  0.00000000000E+00  0.10271474779E+04  0.10271474779E+04  0.00000000000E+00 0. -1.
         -1   -1    0    0    0  501 -0.00000000000E+00 -0.00000000000E+00 -0.86194785288E+03  0.86194785288E+03  0.00000000000E+00 0.  1.
         24    2    1    2    0    0 -0.57930783083E+01  0.10216122533E+03 -0.65890003514E+03  0.67172439895E+03  0.81203054870E+02 0.  0.
        254    2    1    2    0    0  0.57930783083E+01 -0.10216122533E+03  0.82409966017E+03  0.12173709318E+04  0.89015799725E+03 0.  0.
         23    2    4    4    0    0  0.16627359583E+02 -0.29383928825E+03 -0.55048300584E+02  0.31302481224E+03  0.91302909442E+02 0.  0.
         23    2    4    4    0    0 -0.10834281275E+02  0.19167806292E+03  0.87914796075E+03  0.90434611960E+03  0.89904981410E+02 0.  0.
          2    1    3    3  502    0 -0.16978943905E+02  0.11352001039E+02 -0.30554280390E+02  0.36752095367E+02  0.00000000000E+00 0. -1.
         -1    1    3    3    0  502  0.11185865597E+02  0.90809224288E+02 -0.62834575475E+03  0.63497230358E+03  0.00000000000E+00 0.  1.
         13    1    5    5    0    0 -0.22597525134E+02 -0.23632117356E+03 -0.31236012848E+02  0.23944526246E+03  0.00000000000E+00 0. -1.
        -13    1    5    5    0    0  0.39224884717E+02 -0.57518114694E+02 -0.23812287736E+02  0.73579549783E+02  0.00000000000E+00 0.  1.
          1    1    6    6  503    0 -0.52461476896E+01  0.19964821095E+03  0.79781726212E+03  0.82243499070E+03  0.00000000000E+00 0. -1.
         -1    1    6    6    0  503 -0.55881335849E+01 -0.79701480261E+01  0.81330698636E+02  0.81911128896E+02  0.00000000000E+00 0.  1.
<mgrwt>
<rscale>  0 0.18818582E+04</rscale>
<asrwt>0</asrwt>
<pdfrwt beam="1">  1        2 0.15802269E+00 0.18818582E+04</pdfrwt>
<pdfrwt beam="2">  1       -1 0.13260736E+00 0.18818582E+04</pdfrwt>
<totfact> 0.12486988E+01</totfact>
</mgrwt>
</event>
<event>
12    7  0.1661464E-007  0.1903709E+04  0.7818608E-02  0.8653012E-01
         -1   -1    0    0    0  501 -0.00000000000E+00  0.00000000000E+00  0.10520987589E+04  0.10520987589E+04  0.00000000000E+00 0.  1.
          2   -1    0    0  501    0  0.00000000000E+00 -0.00000000000E+00 -0.86116162971E+03  0.86116162971E+03  0.00000000000E+00 0. -1.
         24    2    1    2    0    0 -0.37156290545E+03 -0.17352076409E+03 -0.53715325190E+03  0.68041179458E+03  0.79108443956E+02 0.  0.
        254    2    1    2    0    0  0.37156290545E+03  0.17352076409E+03  0.72809038109E+03  0.12328485940E+04  0.90643896898E+03 0.  0.
         23    2    4    4    0    0  0.59104051560E+03 -0.12859670119E+03  0.45622938930E+03  0.76363545264E+03  0.95539762566E+02 0.  0.
         23    2    4    4    0    0 -0.21947761015E+03  0.30211746528E+03  0.27186099179E+03  0.46921314139E+03  0.82505690739E+02 0.  0.
          4    1    3    3  502    0 -0.27041973825E+03 -0.13928777258E+03 -0.44690129336E+03  0.54060030007E+03  0.00000000000E+00 0. -1.
         -3    1    3    3    0  502 -0.10114316719E+03 -0.34232991506E+02 -0.90251958539E+02  0.13981149451E+03  0.00000000000E+00 0.  1.
         13    1    5    5    0    0  0.18119290724E+03 -0.70805518463E+02  0.18724069708E+03  0.27000624015E+03  0.00000000000E+00 0. -1.
        -13    1    5    5    0    0  0.40984760836E+03 -0.57791182732E+02  0.26898869223E+03  0.49362921249E+03  0.00000000000E+00 0.  1.
          1    1    6    6  503    0 -0.47765446131E+02  0.84658978276E+02  0.11586067635E+03  0.15123616225E+03  0.00000000000E+00 0.  1.
         -1    1    6    6    0  503 -0.17171216402E+03  0.21745848701E+03  0.15600031544E+03  0.31797697914E+03  0.00000000000E+00 0. -1.
<mgrwt>
<rscale>  0 0.19037091E+04</rscale>
<asrwt>0</asrwt>
<pdfrwt beam="1">  1        2 0.13248640E+00 0.19037091E+04</pdfrwt>
<pdfrwt beam="2">  1       -1 0.16186135E+00 0.19037091E+04</pdfrwt>
<totfact> 0.94243978E+00</totfact>
</mgrwt>
</event>
<event>
12    7  0.1661464E-007  0.2304863E+04  0.7818608E-02  0.8476006E-01
         -1   -1    0    0    0  501 -0.00000000000E+00  0.00000000000E+00  0.11977626837E+04  0.11977626837E+04  0.00000000000E+00 0.  1.
          2   -1    0    0  501    0  0.00000000000E+00 -0.00000000000E+00 -0.11088160018E+04  0.11088160018E+04  0.00000000000E+00 0. -1.
         24    2    1    2    0    0  0.33013656776E+03 -0.82076488345E+03  0.44286999039E+03  0.99225386762E+03  0.76083915172E+02 0.  0.
        254    2    1    2    0    0 -0.33013656776E+03  0.82076488345E+03 -0.35392330857E+03  0.13143248179E+04  0.90528607147E+03 0.  0.
         23    2    4    4    0    0 -0.60240747655E+03  0.70615731202E+03 -0.15199177539E+03  0.94440356462E+03  0.85109787730E+02 0.  0.
         23    2    4    4    0    0  0.27227090879E+03  0.11460757143E+03 -0.20193153317E+03  0.36992125323E+03  0.93803231821E+02 0.  0.
          2    1    3    3  502    0  0.11808883361E+03 -0.21865480665E+03  0.14625623692E+03  0.28835010653E+03  0.00000000000E+00 0. -1.
         -1    1    3    3    0  502  0.21204773416E+03 -0.60211007680E+03  0.29661375347E+03  0.70390376110E+03  0.00000000000E+00 0.  1.
         13    1    5    5    0    0 -0.54117847493E+03  0.61690032923E+03 -0.10859318734E+03  0.82778779785E+03  0.00000000000E+00 0.  1.
        -13    1    5    5    0    0 -0.61229001622E+02  0.89256982790E+02 -0.43398588047E+02  0.11661576678E+03  0.00000000000E+00 0. -1.
          2    1    6    6  503    0  0.12158317379E+03  0.84311758632E+02 -0.14161620938E+03  0.20480744995E+03  0.00000000000E+00 0.  1.
         -2    1    6    6    0  503  0.15068773500E+03  0.30295812802E+02 -0.60315323790E+02  0.16511380329E+03  0.00000000000E+00 0. -1.
<mgrwt>
<rscale>  0 0.23048631E+04</rscale>
<asrwt>0</asrwt>
<pdfrwt beam="1">  1        2 0.17058708E+00 0.23048631E+04</pdfrwt>
<pdfrwt beam="2">  1       -1 0.18427118E+00 0.23048631E+04</pdfrwt>
<totfact> 0.43119778E+00</totfact>
</mgrwt>
</event>
<event>
12    7  0.1661464E-007  0.2118555E+04  0.7818608E-02  0.8553114E-01
          2   -1    0    0  501    0  0.00000000000E+00  0.00000000000E+00  0.12737884466E+04  0.12737884466E+04  0.00000000000E+00 0. -1.
         -1   -1    0    0    0  501 -0.00000000000E+00 -0.00000000000E+00 -0.88089086200E+03  0.88089086200E+03  0.00000000000E+00 0.  1.
         24    2    1    2    0    0  0.14064516887E+03 -0.17971823957E+03 -0.68819110393E+03  0.72953143587E+03  0.80804772345E+02 0.  0.
        254    2    1    2    0    0 -0.14064516887E+03  0.17971823957E+03  0.10810886885E+04  0.14251478728E+04  0.90011887967E+03 0.  0.
         23    2    4    4    0    0  0.29440219684E+03 -0.12634482324E+03  0.19085216945E+03  0.38406288690E+03  0.91891689744E+02 0.  0.
         23    2    4    4    0    0 -0.43504736572E+03  0.30606306281E+03  0.89023651909E+03  0.10410849859E+04  0.91630120621E+02 0.  0.
          2    1    3    3  502    0  0.22011337626E+02 -0.10414934515E+02 -0.25140720514E+02  0.35000366755E+02  0.00000000000E+00 0. -1.
         -1    1    3    3    0  502  0.11863383125E+03 -0.16930330505E+03 -0.66305038341E+03  0.69453106911E+03  0.00000000000E+00 0.  1.
         13    1    5    5    0    0  0.45211883211E+02  0.10352864873E+02  0.44909114574E+02  0.64561015840E+02  0.00000000000E+00 0.  1.
        -13    1    5    5    0    0  0.24919031363E+03 -0.13669768811E+03  0.14594305488E+03  0.31950187106E+03  0.00000000000E+00 0. -1.
          3    1    6    6  503    0 -0.32363624497E+03  0.25926434802E+03  0.74013511218E+03  0.84838576456E+03  0.00000000000E+00 0. -1.
         -3    1    6    6    0  503 -0.11141112075E+03  0.46798714786E+02  0.15010140691E+03  0.19269922129E+03  0.00000000000E+00 0.  1.
<mgrwt>
<rscale>  0 0.21185548E+04</rscale>
<asrwt>0</asrwt>
<pdfrwt beam="1">  1        2 0.19596745E+00 0.21185548E+04</pdfrwt>
<pdfrwt beam="2">  1       -1 0.13552167E+00 0.21185548E+04</pdfrwt>
<totfact> 0.81934411E+00</totfact>
</mgrwt>
</event>
<event>
12    7  0.1661464E-007  0.1712109E+04  0.7818608E-02  0.8754488E-01
          2   -1    0    0  501    0  0.00000000000E+00  0.00000000000E+00  0.11917249030E+04  0.11917249030E+04  0.00000000000E+00 0. -1.
         -1   -1    0    0    0  501 -0.00000000000E+00 -0.00000000000E+00 -0.61493163127E+03  0.61493163127E+03  0.00000000000E+00 0.  1.
         24    2    1    2    0    0 -0.11393945654E+03 -0.40129862316E+03 -0.25813272403E+03  0.49770257229E+03  0.83979536471E+02 0.  0.
        254    2    1    2    0    0  0.11393945654E+03  0.40129862316E+03  0.83492599575E+03  0.13089539620E+04  0.91773431419E+03 0.  0.
         23    2    4    4    0    0  0.13021197091E+03 -0.25878123249E+03  0.44106331491E+03  0.53529900444E+03  0.89918255873E+02 0.  0.
         23    2    4    4    0    0 -0.16272514371E+02  0.66007985564E+03  0.39386268084E+03  0.77365495752E+03  0.86278452621E+02 0.  0.
          2    1    3    3  502    0 -0.82894278952E+01 -0.52164065420E+02 -0.36693059519E+01  0.52945898256E+02  0.00000000000E+00 0. -1.
         -1    1    3    3    0  502 -0.10565002864E+03 -0.34913455774E+03 -0.25446341808E+03  0.44475667404E+03  0.00000000000E+00 0.  1.
         13    1    5    5    0    0  0.69835615380E+01 -0.98890031390E+02  0.17753385242E+03  0.20333784005E+03  0.00000000000E+00 0.  1.
        -13    1    5    5    0    0  0.12322840937E+03 -0.15989120110E+03  0.26352946249E+03  0.33196116439E+03  0.00000000000E+00 0. -1.
          3    1    6    6  503    0 -0.46971978105E+02  0.52974979700E+03  0.32156143056E+03  0.62148448715E+03  0.00000000000E+00 0. -1.
         -3    1    6    6    0  503  0.30699463733E+02  0.13033005865E+03  0.72301250279E+02  0.15217047037E+03  0.00000000000E+00 0.  1.
<mgrwt>
<rscale>  0 0.17121090E+04</rscale>
<asrwt>0</asrwt>
<pdfrwt beam="1">  1        2 0.18334229E+00 0.17121090E+04</pdfrwt>
<pdfrwt beam="2">  1       -1 0.94604866E-01 0.17121090E+04</pdfrwt>
<totfact> 0.22449716E+01</totfact>
</mgrwt>
</event>
<event>
12    7  0.1661464E-007  0.1624932E+04  0.7818608E-02  0.8805376E-01
          2   -1    0    0  501    0  0.00000000000E+00  0.00000000000E+00  0.14867142163E+04  0.14867142163E+04  0.00000000000E+00 0. -1.
         -1   -1    0    0    0  501 -0.00000000000E+00 -0.00000000000E+00 -0.44399968923E+03  0.44399968923E+03  0.00000000000E+00 0.  1.
         24    2    1    2    0    0 -0.43805839803E+03 -0.28746086073E+03  0.57258931084E+03  0.78076771226E+03  0.84916400560E+02 0.  0.
        254    2    1    2    0    0  0.43805839803E+03  0.28746086073E+03  0.47012521621E+03  0.11499461933E+04  0.90930172216E+03 0.  0.
         23    2    4    4    0    0 -0.11982083325E+03  0.16363431279E+03 -0.17527874190E+03  0.28300114093E+03  0.90740222626E+02 0.  0.
         23    2    4    4    0    0  0.55787923128E+03  0.12382654795E+03  0.64540395811E+03  0.86694505233E+03  0.92115166700E+02 0.  0.
          4    1    3    3  502    0 -0.42771508983E+03 -0.28478131831E+03  0.57351973902E+03  0.77004252374E+03  0.00000000000E+00 0. -1.
         -3    1    3    3    0  502 -0.10343308201E+02 -0.26795424252E+01 -0.93042818253E+00  0.10725188519E+02  0.00000000000E+00 0.  1.
         13    1    5    5    0    0  0.56640136353E+01 -0.65719289606E+01 -0.55624321234E+00  0.86937165376E+01  0.00000000000E+00 0. -1.
        -13    1    5    5    0    0 -0.12548484688E+03  0.17020624175E+03 -0.17472249869E+03  0.27430742439E+03  0.00000000000E+00 0.  1.
          3    1    6    6  503    0  0.99740200238E+02  0.17621945052E+02  0.66832676909E+02  0.12134762953E+03  0.00000000000E+00 0. -1.
         -3    1    6    6    0  503  0.45813903104E+03  0.10620460289E+03  0.57857128120E+03  0.74559742279E+03  0.00000000000E+00 0.  1.
<mgrwt>
<rscale>  0 0.16249316E+04</rscale>
<asrwt>0</asrwt>
<pdfrwt beam="1">  1        2 0.22872526E+00 0.16249316E+04</pdfrwt>
<pdfrwt beam="2">  1       -1 0.68307645E-01 0.16249316E+04</pdfrwt>
<totfact> 0.30558754E+01</totfact>
</mgrwt>
</event>
<event>
12    7  0.1661464E-007  0.1485747E+04  0.7818608E-02  0.8893987E-01
         -1   -1    0    0    0  501 -0.00000000000E+00  0.00000000000E+00  0.30664615151E+03  0.30664615151E+03  0.00000000000E+00 0.  1.
          2   -1    0    0  501    0  0.00000000000E+00 -0.00000000000E+00 -0.17996674022E+04  0.17996674022E+04  0.00000000000E+00 0. -1.
         24    2    1    2    0    0 -0.40871478066E+03  0.19222353278E+03 -0.62282296017E+03  0.77356205698E+03  0.80573927532E+02 0.  0.
        254    2    1    2    0    0  0.40871478066E+03 -0.19222353278E+03 -0.87019829051E+03  0.13327514967E+04  0.90276454777E+03 0.  0.
         23    2    4    4    0    0  0.55494778988E+03 -0.14331475905E+03 -0.97047015237E+03  0.11307879327E+04  0.91448686947E+02 0.  0.
         23    2    4    4    0    0 -0.14623300922E+03 -0.48908773737E+02  0.10027186186E+03  0.20196356406E+03  0.83418665735E+02 0.  0.
          4    1    3    3  502    0 -0.30902433212E+03  0.13182359852E+03 -0.51424620678E+03  0.61426595230E+03  0.00000000000E+00 0. -1.
         -3    1    3    3    0  502 -0.99690448543E+02  0.60399934264E+02 -0.10857675340E+03  0.15929610469E+03  0.00000000000E+00 0.  1.
         13    1    5    5    0    0  0.89826292392E+02 -0.59087402192E+02 -0.19158917114E+03  0.21969636866E+03  0.00000000000E+00 0.  1.
        -13    1    5    5    0    0  0.46512149749E+03 -0.84227356854E+02 -0.77888098123E+03  0.91109156399E+03  0.00000000000E+00 0. -1.
          2    1    6    6  503    0 -0.15683433006E+03 -0.49707163211E+02  0.96166757626E+02  0.19056719139E+03  0.00000000000E+00 0. -1.
         -2    1    6    6    0  503  0.10601320842E+02  0.79838947438E+00  0.41051042341E+01  0.11396372674E+02  0.00000000000E+00 0.  1.
<mgrwt>
<rscale>  0 0.14857471E+04</rscale>
<asrwt>0</asrwt>
<pdfrwt beam="1">  1        2 0.27687191E+00 0.14857471E+04</pdfrwt>
<pdfrwt beam="2">  1       -1 0.47176331E-01 0.14857471E+04</pdfrwt>
<totfact> 0.42629759E+01</totfact>
</mgrwt>
</event>
<event>
12    7  0.1661464E-007  0.1079636E+04  0.7818608E-02  0.9225270E-01
         -1   -1    0    0    0  501 -0.00000000000E+00  0.00000000000E+00  0.12770492124E+04  0.12770492124E+04  0.00000000000E+00 0.  1.
          4   -1    0    0  501    0  0.00000000000E+00 -0.00000000000E+00 -0.22818497595E+03  0.22818497595E+03  0.00000000000E+00 0. -1.
         24    2    1    2    0    0  0.77423858187E+02  0.75274014121E+02  0.20892114080E+02  0.13568001360E+03  0.79447810797E+02 0.  0.
        254    2    1    2    0    0 -0.77423858187E+02 -0.75274014121E+02  0.10279721224E+04  0.13695541748E+04  0.89849391885E+03 0.  0.
         23    2    4    4    0    0 -0.65768699889E+02 -0.45507116513E+03  0.76980095310E+03  0.90117383760E+03  0.90030500117E+02 0.  0.
         23    2    4    4    0    0 -0.11655158299E+02  0.37979715101E+03  0.25817116931E+03  0.46838033720E+03  0.91356822296E+02 0.  0.
          2    1    3    3  502    0  0.87425468810E+02  0.43441995986E+02  0.26659845822E+01  0.97660263597E+02  0.00000000000E+00 0. -1.
         -1    1    3    3    0  502 -0.10001610623E+02  0.31832018135E+02  0.18226129498E+02  0.38019750000E+02  0.00000000000E+00 0.  1.
         13    1    5    5    0    0 -0.29885258298E+02 -0.10898716211E+03  0.12518207068E+03  0.16864720866E+03  0.00000000000E+00 0.  1.
        -13    1    5    5    0    0 -0.35883441590E+02 -0.34608400302E+03  0.64461888242E+03  0.73252662893E+03  0.00000000000E+00 0. -1.
          3    1    6    6  503    0  0.41473433255E+01  0.36891105078E+03  0.23159923399E+03  0.43560391301E+03  0.00000000000E+00 0. -1.
         -3    1    6    6    0  503 -0.15802501624E+02  0.10886100227E+02  0.26571935320E+02  0.32776424185E+02  0.00000000000E+00 0.  1.
<mgrwt>
<rscale>  0 0.10796359E+04</rscale>
<asrwt>0</asrwt>
<pdfrwt beam="1">  1        4 0.35105382E-01 0.10796359E+04</pdfrwt>
<pdfrwt beam="2">  1       -1 0.19646911E+00 0.10796359E+04</pdfrwt>
<totfact> 0.52931086E+00</totfact>
</mgrwt>
</event>
<event>
12    7  0.1661464E-007  0.2087523E+04  0.7818608E-02  0.8566760E-01
         -1   -1    0    0    0  501 -0.00000000000E+00  0.00000000000E+00  0.36008352646E+03  0.36008352646E+03  0.00000000000E+00 0.  1.
          2   -1    0    0  501    0  0.00000000000E+00 -0.00000000000E+00 -0.30255134905E+04  0.30255134905E+04  0.00000000000E+00 0. -1.
         24    2    1    2    0    0 -0.12032839809E+03  0.44319388614E+03  0.76155304253E+02  0.47232004152E+03  0.79917752459E+02 0.  0.
        254    2    1    2    0    0  0.12032839809E+03 -0.44319388614E+03 -0.27415852683E+04  0.29132769754E+04  0.87177589333E+03 0.  0.
         23    2    4    4    0    0 -0.11484206720E+03 -0.30924243964E+03 -0.30518758346E+03  0.46022062285E+03  0.99216801642E+02 0.  0.
         23    2    4    4    0    0  0.23517046529E+03 -0.13395144649E+03 -0.24363976848E+04  0.24530563526E+04  0.90574016713E+02 0.  0.
          4    1    3    3  502    0 -0.32183598608E+02  0.75302312896E+02  0.43189477094E+02  0.92582683470E+02  0.00000000000E+00 0. -1.
         -3    1    3    3    0  502 -0.88144799484E+02  0.36789157324E+03  0.32965827159E+02  0.37973735805E+03  0.00000000000E+00 0.  1.
         13    1    5    5    0    0 -0.12456205541E+03 -0.22712232480E+03 -0.25499306692E+03  0.36348551587E+03  0.00000000000E+00 0.  1.
        -13    1    5    5    0    0  0.97199882096E+01 -0.82120114844E+02 -0.50194516537E+02  0.96735106984E+02  0.00000000000E+00 0. -1.
          4    1    6    6  503    0  0.19916817550E+03 -0.12234546922E+03 -0.17397062297E+04  0.17553387541E+04  0.00000000000E+00 0.  1.
         -4    1    6    6    0  503  0.36002289793E+02 -0.11605977271E+02 -0.69669145510E+03  0.69771759845E+03  0.00000000000E+00 0. -1.
<mgrwt>
<rscale>  0 0.20875225E+04</rscale>
<asrwt>0</asrwt>
<pdfrwt beam="1">  1        2 0.46546363E+00 0.20875225E+04</pdfrwt>
<pdfrwt beam="2">  1       -1 0.55397464E-01 0.20875225E+04</pdfrwt>
<totfact> 0.58154298E+00</totfact>
</mgrwt>
</event>
<event>
12    7  0.1661464E-007  0.1323548E+04  0.7818608E-02  0.9011097E-01
          2   -1    0    0  501    0  0.00000000000E+00  0.00000000000E+00  0.19342858123E+04  0.19342858123E+04  0.00000000000E+00 0. -1.
         -1   -1    0    0    0  501 -0.00000000000E+00 -0.00000000000E+00 -0.22641172598E+03  0.22641172598E+03  0.00000000000E+00 0.  1.
         24    2    1    2    0    0  0.35512480448E+03  0.10909509424E+03  0.48087460837E+03  0.61269397570E+03  0.78346362610E+02 0.  0.
        254    2    1    2    0    0 -0.35512480448E+03 -0.10909509424E+03  0.12269994780E+04  0.15480035626E+04  0.86762431074E+03 0.  0.
         23    2    4    4    0    0  0.21254168661E+03  0.76603410193E+02  0.90596673518E+02  0.26020120337E+03  0.91950301695E+02 0.  0.
         23    2    4    4    0    0 -0.56766649109E+03 -0.18569850443E+03  0.11364028045E+04  0.12878023593E+04  0.10146133676E+03 0.  0.
          2    1    3    3  502    0  0.14975416523E+03  0.68881800900E+02  0.26462702339E+03  0.31176669804E+03  0.00000000000E+00 0. -1.
         -1    1    3    3    0  502  0.20537063925E+03  0.40213293342E+02  0.21624758498E+03  0.30092727766E+03  0.00000000000E+00 0.  1.
         13    1    5    5    0    0  0.94751078656E+01  0.23080475345E+02 -0.10576370401E+02  0.27098812189E+02  0.00000000000E+00 0.  1.
        -13    1    5    5    0    0  0.20306657874E+03  0.53522934848E+02  0.10117304392E+03  0.23310239118E+03  0.00000000000E+00 0. -1.
          2    1    6    6  503    0 -0.36883202132E+03 -0.97279646557E+02  0.62771690753E+03  0.73452631375E+03  0.00000000000E+00 0. -1.
         -2    1    6    6    0  503 -0.19883446977E+03 -0.88418857878E+02  0.50868589692E+03  0.55327604550E+03  0.00000000000E+00 0.  1.
<mgrwt>
<rscale>  0 0.13235482E+04</rscale>
<asrwt>0</asrwt>
<pdfrwt beam="1">  1        2 0.29758242E+00 0.13235482E+04</pdfrwt>
<pdfrwt beam="2">  1       -1 0.34832575E-01 0.13235482E+04</pdfrwt>
<totfact> 0.63445624E+01</totfact>
</mgrwt>
</event>
<event>
12    7  0.1661464E-007  0.2525895E+04  0.7818608E-02  0.8393818E-01
         -1   -1    0    0    0  501 -0.00000000000E+00  0.00000000000E+00  0.67458008141E+03  0.67458008141E+03  0.00000000000E+00 0.  1.
          2   -1    0    0  501    0  0.00000000000E+00 -0.00000000000E+00 -0.23644883508E+04  0.23644883508E+04  0.00000000000E+00 0. -1.
         24    2    1    2    0    0  0.23915338238E+03  0.27114387071E+03  0.51681933917E+03  0.63462002465E+03  0.70192645107E+02 0.  0.
        254    2    1    2    0    0 -0.23915338238E+03 -0.27114387071E+03 -0.22067276085E+04  0.24044484075E+04  0.88374887119E+03 0.  0.
         23    2    4    4    0    0 -0.55720418766E+03 -0.81949722410E+02 -0.14051407687E+04  0.15167288574E+04  0.94093482877E+02 0.  0.
         23    2    4    4    0    0  0.31805080528E+03 -0.18919414830E+03 -0.80158683989E+03  0.88771955010E+03  0.92486741020E+02 0.  0.
          4    1    3    3  502    0  0.17218550044E+02 -0.74289046605E+00  0.21297001960E+02  0.27396945895E+02  0.00000000000E+00 0. -1.
         -3    1    3    3    0  502  0.22193483233E+03  0.27188676117E+03  0.49552233721E+03  0.60722307876E+03  0.00000000000E+00 0.  1.
         13    1    5    5    0    0 -0.55748758779E+03 -0.74037336730E+02 -0.13929468100E+04  0.15021899857E+04  0.00000000000E+00 0.  1.
        -13    1    5    5    0    0  0.28340013007E+00 -0.79123856800E+01 -0.12193958669E+02  0.14538871717E+02  0.00000000000E+00 0. -1.
          1    1    6    6  503    0  0.11387972034E+02 -0.37708297577E+02 -0.79908805661E+02  0.89089948004E+02  0.00000000000E+00 0. -1.
         -1    1    6    6    0  503  0.30666283325E+03 -0.15148585072E+03 -0.72167803423E+03  0.79862960210E+03  0.00000000000E+00 0.  1.
<mgrwt>
<rscale>  0 0.25258953E+04</rscale>
<asrwt>0</asrwt>
<pdfrwt beam="1">  1        2 0.36376743E+00 0.25258953E+04</pdfrwt>
<pdfrwt beam="2">  1       -1 0.10378155E+00 0.25258953E+04</pdfrwt>
<totfact> 0.36885206E+00</totfact>
</mgrwt>
</event>
<event>
12    7  0.1661464E-007  0.1215782E+04  0.7818608E-02  0.9099153E-01
         -1   -1    0    0    0  501 -0.00000000000E+00  0.00000000000E+00  0.34476765085E+03  0.34476765085E+03  0.00000000000E+00 0.  1.
          2   -1    0    0  501    0  0.00000000000E+00 -0.00000000000E+00 -0.10718279019E+04  0.10718279019E+04  0.00000000000E+00 0. -1.
         24    2    1    2    0    0  0.49065460805E+02 -0.17024741221E+03  0.59614261851E+02  0.20500566217E+03  0.84153790759E+02 0.  0.
        254    2    1    2    0    0 -0.49065460805E+02  0.17024741221E+03 -0.78667451293E+03  0.12115898906E+04  0.90426858449E+03 0.  0.
         23    2    4    4    0    0  0.30208133429E+03  0.81687617436E+02 -0.77213326527E+03  0.83811513378E+03  0.91220604945E+02 0.  0.
         23    2    4    4    0    0 -0.35114679509E+03  0.88559794775E+02 -0.14541247661E+02  0.37347475682E+03  0.90138987917E+02 0.  0.
          2    1    3    3  502    0 -0.21933676858E+02 -0.50654683510E+02  0.44283048042E+01  0.55376827514E+02  0.00000000000E+00 0. -1.
         -1    1    3    3    0  502  0.70999137663E+02 -0.11959272870E+03  0.55185957047E+02  0.14962883466E+03  0.00000000000E+00 0.  1.
         13    1    5    5    0    0  0.30480286472E+03  0.82716915146E+02 -0.77303996937E+03  0.83506746352E+03  0.00000000000E+00 0. -1.
        -13    1    5    5    0    0 -0.27215304292E+01 -0.10292977098E+01  0.90670410229E+00  0.30476702547E+01  0.00000000000E+00 0.  1.
          2    1    6    6  503    0 -0.17084191016E+03 -0.31188889218E+01 -0.37046116752E+01  0.17091053180E+03  0.00000000000E+00 0. -1.
         -2    1    6    6    0  503 -0.18030488494E+03  0.91678683696E+02 -0.10836635986E+02  0.20256422502E+03  0.00000000000E+00 0.  1.
<mgrwt>
<rscale>  0 0.12157822E+04</rscale>
<asrwt>0</asrwt>
<pdfrwt beam="1">  1        2 0.16489660E+00 0.12157822E+04</pdfrwt>
<pdfrwt beam="2">  1       -1 0.53041177E-01 0.12157822E+04</pdfrwt>
<totfact> 0.91371006E+01</totfact>
</mgrwt>
</event>
<event>
12    7  0.1661464E-007  0.1785360E+04  0.7818608E-02  0.8714124E-01
          2   -1    0    0  501    0  0.00000000000E+00  0.00000000000E+00  0.14130765947E+04  0.14130765947E+04  0.00000000000E+00 0. -1.
         -1   -1    0    0    0  501 -0.00000000000E+00 -0.00000000000E+00 -0.56393070860E+03  0.56393070860E+03  0.00000000000E+00 0.  1.
         24    2    1    2    0    0 -0.78040252985E+01  0.60527443209E+03  0.29291928204E+02  0.61134325752E+03  0.80402241921E+02 0.  0.
        254    2    1    2    0    0  0.78040252985E+01 -0.60527443209E+03  0.81985395788E+03  0.13656640458E+04  0.90909830751E+03 0.  0.
         23    2    4    4    0    0  0.15495859736E+03 -0.44885740415E+03  0.97311861225E+03  0.10865893228E+04  0.90726990499E+02 0.  0.
         23    2    4    4    0    0 -0.14715457206E+03 -0.15641702794E+03 -0.15326465438E+03  0.27907472295E+03  0.90949942261E+02 0.  0.
          2    1    3    3  502    0  0.18990815997E+02  0.77904889966E+02  0.22370091380E+02  0.83248086832E+02  0.00000000000E+00 0. -1.
         -1    1    3    3    0  502 -0.26794841296E+02  0.52736954212E+03  0.69218368241E+01  0.52809517069E+03  0.00000000000E+00 0.  1.
         13    1    5    5    0    0  0.61608029008E+01 -0.30348801064E+02  0.25792534405E+02  0.40302109739E+02  0.00000000000E+00 0. -1.
        -13    1    5    5    0    0  0.14879779446E+03 -0.41850860308E+03  0.94732607785E+03  0.10462872131E+04  0.00000000000E+00 0.  1.
          4    1    6    6  503    0 -0.29517470403E+02 -0.61497147453E+01  0.57213730818E+01  0.30689316714E+02  0.00000000000E+00 0. -1.
         -4    1    6    6    0  503 -0.11763710166E+03 -0.15026731319E+03 -0.15898602746E+03  0.24838540623E+03  0.00000000000E+00 0.  1.
<mgrwt>
<rscale>  0 0.17853597E+04</rscale>
<asrwt>0</asrwt>
<pdfrwt beam="1">  1        2 0.21739640E+00 0.17853597E+04</pdfrwt>
<pdfrwt beam="2">  1       -1 0.86758571E-01 0.17853597E+04</pdfrwt>
<totfact> 0.20061464E+01</totfact>
</mgrwt>
</event>
<event>
12    7  0.1661464E-007  0.1982794E+04  0.7818608E-02  0.8614707E-01
         -1   -1    0    0    0  501 -0.00000000000E+00  0.00000000000E+00  0.26198938194E+03  0.26198938194E+03  0.00000000000E+00 0.  1.
          2   -1    0    0  501    0  0.00000000000E+00 -0.00000000000E+00 -0.37515572043E+04  0.37515572043E+04  0.00000000000E+00 0. -1.
         24    2    1    2    0    0 -0.14164308550E+03  0.76338519795E+03 -0.14332829818E+04  0.16320945888E+04  0.81319840868E+02 0.  0.
        254    2    1    2    0    0  0.14164308550E+03 -0.76338519795E+03 -0.20562848405E+04  0.23814519975E+04  0.91661690298E+03 0.  0.
         23    2    4    4    0    0  0.28743148697E+03 -0.15115906512E+02 -0.17422692942E+03  0.34885553430E+03  0.92194417096E+02 0.  0.
         23    2    4    4    0    0 -0.14578840147E+03 -0.74826929144E+03 -0.18820579111E+04  0.20325964632E+04  0.90250821978E+02 0.  0.
          2    1    3    3  502    0 -0.31720120842E+02  0.35044150018E+03 -0.69722570739E+03  0.78098597821E+03  0.00000000000E+00 0. -1.
         -1    1    3    3    0  502 -0.10992296466E+03  0.41294369777E+03 -0.73605727444E+03  0.85110861054E+03  0.00000000000E+00 0.  1.
         13    1    5    5    0    0  0.79082490953E+02 -0.14610508926E+02 -0.98524072324E+02  0.12717900838E+03  0.00000000000E+00 0. -1.
        -13    1    5    5    0    0  0.20834899602E+03 -0.50539758568E+00 -0.75702857094E+02  0.22167652592E+03  0.00000000000E+00 0.  1.
          3    1    6    6  503    0 -0.90850656095E+02 -0.37763827647E+03 -0.84705571575E+03  0.93186259457E+03  0.00000000000E+00 0. -1.
         -3    1    6    6    0  503 -0.54937745379E+02 -0.37063101497E+03 -0.10350021953E+04  0.11007338686E+04  0.00000000000E+00 0.  1.
<mgrwt>
<rscale>  0 0.19827941E+04</rscale>
<asrwt>0</asrwt>
<pdfrwt beam="1">  1        2 0.57716259E+00 0.19827941E+04</pdfrwt>
<pdfrwt beam="2">  1       -1 0.40306063E-01 0.19827941E+04</pdfrwt>
<totfact> 0.34261980E+00</totfact>
</mgrwt>
</event>
<event>
12    7  0.1661464E-007  0.1698543E+04  0.7818608E-02  0.8762196E-01
         -1   -1    0    0    0  501 -0.00000000000E+00  0.00000000000E+00  0.52963674443E+03  0.52963674443E+03  0.00000000000E+00 0.  1.
          2   -1    0    0  501    0  0.00000000000E+00 -0.00000000000E+00 -0.13618046614E+04  0.13618046614E+04  0.00000000000E+00 0. -1.
         24    2    1    2    0    0  0.24466391636E+03  0.13286183538E+03  0.30287188837E+03  0.41679870961E+03  0.66911017774E+02 0.  0.
        254    2    1    2    0    0 -0.24466391636E+03 -0.13286183538E+03 -0.11350398053E+04  0.14746426962E+04  0.89930140803E+03 0.  0.
         23    2    4    4    0    0 -0.28202546843E+02  0.16549193117E+03  0.76625377560E+02  0.20479098079E+03  0.88797153070E+02 0.  0.
         23    2    4    4    0    0 -0.21646136951E+03 -0.29835376655E+03 -0.12116651829E+04  0.12698517154E+04  0.92305845977E+02 0.  0.
          2    1    3    3  502    0  0.12008472425E+02  0.88537298076E+01 -0.43524821789E+00  0.14925862873E+02  0.00000000000E+00 0. -1.
         -1    1    3    3    0  502  0.23265544393E+03  0.12400810557E+03  0.30330713659E+03  0.40187284674E+03  0.00000000000E+00 0.  1.
         13    1    5    5    0    0  0.24448629438E+02  0.95848164224E+02  0.60663911171E+02  0.11603756368E+03  0.00000000000E+00 0. -1.
        -13    1    5    5    0    0 -0.52651176280E+02  0.69643766947E+02  0.15961466389E+02  0.88753417104E+02  0.00000000000E+00 0.  1.
          3    1    6    6  503    0 -0.18486875805E+03 -0.23286758648E+03 -0.83813808212E+03  0.88931390141E+03  0.00000000000E+00 0. -1.
         -3    1    6    6    0  503 -0.31592611467E+02 -0.65486180070E+02 -0.37352710074E+03  0.38053781398E+03  0.00000000000E+00 0.  1.
<mgrwt>
<rscale>  0 0.16985427E+04</rscale>
<asrwt>0</asrwt>
<pdfrwt beam="1">  1        2 0.20950841E+00 0.16985427E+04</pdfrwt>
<pdfrwt beam="2">  1       -1 0.81482577E-01 0.16985427E+04</pdfrwt>
<totfact> 0.24764251E+01</totfact>
</mgrwt>
</event>
<event>
12    7  0.1661464E-007  0.2520566E+04  0.7818608E-02  0.8395695E-01
         -1   -1    0    0    0  501 -0.00000000000E+00  0.00000000000E+00  0.73733377531E+03  0.73733377531E+03  0.00000000000E+00 0.  1.
          2   -1    0    0  501    0  0.00000000000E+00 -0.00000000000E+00 -0.21541308265E+04  0.21541308265E+04  0.00000000000E+00 0. -1.
         24    2    1    2    0    0 -0.10862996905E+03 -0.64896596686E+03 -0.16299620780E+04  0.17596064673E+04  0.80506195367E+02 0.  0.
        254    2    1    2    0    0  0.10862996905E+03  0.64896596686E+03  0.21316502682E+03  0.11318581346E+04  0.89593873217E+03 0.  0.
         23    2    4    4    0    0  0.45244952110E+03  0.58710937592E+03  0.18900547134E+03  0.77024628715E+03  0.90267858244E+02 0.  0.
         23    2    4    4    0    0 -0.34381955205E+03  0.61856590944E+02  0.24159555489E+02  0.36161184742E+03  0.90229273867E+02 0.  0.
          2    1    3    3  502    0 -0.94671472851E+01 -0.12201610137E+03 -0.38788232772E+03  0.40673118398E+03  0.00000000000E+00 0. -1.
         -3    1    3    3    0  502 -0.99162821767E+02 -0.52694986549E+03 -0.12420797503E+04  0.13528752833E+04  0.00000000000E+00 0.  1.
         13    1    5    5    0    0 -0.32283951825E+01  0.13251810354E+02  0.63898715438E+01  0.15061987633E+02  0.00000000000E+00 0.  1.
        -13    1    5    5    0    0  0.45567791628E+03  0.57385756557E+03  0.18261559979E+03  0.75518429951E+03  0.00000000000E+00 0. -1.
          1    1    6    6  503    0 -0.34006591522E+03  0.45085799944E+02  0.18585319259E+02  0.34354471346E+03  0.00000000000E+00 0. -1.
         -1    1    6    6    0  503 -0.37536368238E+01  0.16770791000E+02  0.55742362300E+01  0.18067133965E+02  0.00000000000E+00 0.  1.
<mgrwt>
<rscale>  0 0.25205661E+04</rscale>
<asrwt>0</asrwt>
<pdfrwt beam="1">  1        2 0.33140474E+00 0.25205661E+04</pdfrwt>
<pdfrwt beam="2">  1       -1 0.11343597E+00 0.25205661E+04</pdfrwt>
<totfact> 0.39364836E+00</totfact>
</mgrwt>
</event>
<event>
12    7  0.1661464E-007  0.1912954E+04  0.7818608E-02  0.8648435E-01
         -1   -1    0    0    0  501 -0.00000000000E+00  0.00000000000E+00  0.32682438353E+03  0.32682438353E+03  0.00000000000E+00 0.  1.
          2   -1    0    0  501    0  0.00000000000E+00 -0.00000000000E+00 -0.27992043606E+04  0.27992043606E+04  0.00000000000E+00 0. -1.
         24    2    1    2    0    0 -0.27305484242E+03 -0.66259856863E+03 -0.62760032269E+03  0.95589681116E+03  0.79124828186E+02 0.  0.
        254    2    1    2    0    0  0.27305484242E+03  0.66259856863E+03 -0.18447796544E+04  0.21701319330E+04  0.89031725988E+03 0.  0.
         23    2    4    4    0    0 -0.14416861263E+03  0.24579630255E+03 -0.13858889256E+04  0.14177066457E+04  0.89462886879E+02 0.  0.
         23    2    4    4    0    0  0.41722345505E+03  0.41680226608E+03 -0.45889072884E+03  0.75242528727E+03  0.88111131327E+02 0.  0.
          4    1    3    3  502    0 -0.61800105204E+02 -0.19730501035E+03 -0.14089727295E+03  0.25020104243E+03  0.00000000000E+00 0. -1.
         -3    1    3    3    0  502 -0.21125473721E+03 -0.46529355828E+03 -0.48670304974E+03  0.70569576873E+03  0.00000000000E+00 0.  1.
         13    1    5    5    0    0 -0.90522833359E+02  0.71640394286E+02 -0.59493548401E+03  0.60603214402E+03  0.00000000000E+00 0. -1.
        -13    1    5    5    0    0 -0.53645779272E+02  0.17415590826E+03 -0.79095344157E+03  0.81167450172E+03  0.00000000000E+00 0.  1.
          1    1    6    6  503    0  0.41191121863E+03  0.38837280196E+03 -0.42520920258E+03  0.70803047343E+03  0.00000000000E+00 0. -1.
         -1    1    6    6    0  503  0.53122364186E+01  0.28429464117E+02 -0.33681526257E+02  0.44394813849E+02  0.00000000000E+00 0.  1.
<mgrwt>
<rscale>  0 0.19129540E+04</rscale>
<asrwt>0</asrwt>
<pdfrwt beam="1">  1        2 0.43064683E+00 0.19129540E+04</pdfrwt>
<pdfrwt beam="2">  1       -1 0.50280674E-01 0.19129540E+04</pdfrwt>
<totfact> 0.98103409E+00</totfact>
</mgrwt>
</event>
<event>
12    7  0.1661464E-007  0.1653600E+04  0.7818608E-02  0.8788280E-01
          2   -1    0    0  501    0  0.00000000000E+00  0.00000000000E+00  0.27411924772E+04  0.27411924772E+04  0.00000000000E+00 0. -1.
         -1   -1    0    0    0  501 -0.00000000000E+00 -0.00000000000E+00 -0.24937984148E+03  0.24937984148E+03  0.00000000000E+00 0.  1.
         24    2    1    2    0    0  0.17253557667E+03  0.34507132043E+03  0.10088844398E+03  0.40688377028E+03  0.80828107677E+02 0.  0.
        254    2    1    2    0    0 -0.17253557667E+03 -0.34507132043E+03  0.23909241918E+04  0.25836885484E+04  0.90004737824E+03 0.  0.
         23    2    4    4    0    0  0.19336581948E+03  0.20358023912E+03  0.98826683896E+03  0.10314031744E+04  0.91026969667E+02 0.  0.
         23    2    4    4    0    0 -0.36590139615E+03 -0.54865155955E+03  0.14026573528E+04  0.15522853741E+04  0.85087411665E+02 0.  0.
          4    1    3    3  502    0  0.30458066802E+02  0.11244589063E+03  0.60676596184E+02  0.13135228007E+03  0.00000000000E+00 0. -1.
         -3    1    3    3    0  502  0.14207750987E+03  0.23262542979E+03  0.40211847792E+02  0.27553149021E+03  0.00000000000E+00 0.  1.
         13    1    5    5    0    0  0.66705724707E+02  0.20560558057E+02  0.30128628978E+03  0.30926658188E+03  0.00000000000E+00 0. -1.
        -13    1    5    5    0    0  0.12666009477E+03  0.18301968106E+03  0.68698054918E+03  0.72213659249E+03  0.00000000000E+00 0.  1.
          4    1    6    6  503    0 -0.29014069166E+03 -0.40633021399E+03  0.97855734774E+03  0.10985719579E+04  0.00000000000E+00 0. -1.
         -4    1    6    6    0  503 -0.75760704490E+02 -0.14232134555E+03  0.42410000509E+03  0.45371341622E+03  0.00000000000E+00 0.  1.
<mgrwt>
<rscale>  0 0.16535999E+04</rscale>
<asrwt>0</asrwt>
<pdfrwt beam="1">  1        2 0.42172190E+00 0.16535999E+04</pdfrwt>
<pdfrwt beam="2">  1       -1 0.38366131E-01 0.16535999E+04</pdfrwt>
<totfact> 0.17993731E+01</totfact>
</mgrwt>
</event>
<event>
12    7  0.1661464E-007  0.2211247E+04  0.7818608E-02  0.8513761E-01
         -1   -1    0    0    0  501 -0.00000000000E+00  0.00000000000E+00  0.13208797536E+04  0.13208797536E+04  0.00000000000E+00 0.  1.
          2   -1    0    0  501    0  0.00000000000E+00 -0.00000000000E+00 -0.92544625666E+03  0.92544625666E+03  0.00000000000E+00 0. -1.
         24    2    1    2    0    0 -0.56882472743E+03 -0.76739566514E+03  0.13603019114E+02  0.95855349943E+03  0.78626278877E+02 0.  0.
        254    2    1    2    0    0  0.56882472743E+03  0.76739566514E+03  0.38183047785E+03  0.12877725109E+04  0.77466499113E+03 0.  0.
         23    2    4    4    0    0 -0.99373785369E+02  0.18949138508E+03  0.32252915045E+03  0.39765998133E+03  0.91248417090E+02 0.  0.
         23    2    4    4    0    0  0.66819851280E+03  0.57790428006E+03  0.59301327405E+02  0.89011252953E+03  0.91219835434E+02 0.  0.
          2    1    3    3  502    0 -0.37204837329E+03 -0.44578060746E+03 -0.10666421075E+02  0.58073583891E+03  0.00000000000E+00 0. -1.
         -1    1    3    3    0  502 -0.19677635415E+03 -0.32161505768E+03  0.24269440188E+02  0.37781766053E+03  0.00000000000E+00 0.  1.
         13    1    5    5    0    0 -0.16494040828E+02  0.46252296190E+02  0.20394151399E+02  0.53171888220E+02  0.00000000000E+00 0. -1.
        -13    1    5    5    0    0 -0.82879744541E+02  0.14323908889E+03  0.30213499905E+03  0.34448809311E+03  0.00000000000E+00 0.  1.
          3    1    6    6  503    0  0.19904840577E+03  0.20918698025E+03  0.51788402545E+02  0.29336240247E+03  0.00000000000E+00 0. -1.
         -3    1    6    6    0  503  0.46915010703E+03  0.36871729981E+03  0.75129248594E+01  0.59675012706E+03  0.00000000000E+00 0.  1.
<mgrwt>
<rscale>  0 0.22112469E+04</rscale>
<asrwt>0</asrwt>
<pdfrwt beam="1">  1        2 0.14237635E+00 0.22112469E+04</pdfrwt>
<pdfrwt beam="2">  1       -1 0.20321227E+00 0.22112469E+04</pdfrwt>
<totfact> 0.41993429E+00</totfact>
</mgrwt>
</event>
<event>
12    7  0.1661464E-007  0.1813701E+04  0.7818608E-02  0.8699047E-01
          2   -1    0    0  501    0  0.00000000000E+00  0.00000000000E+00  0.25644637514E+04  0.25644637514E+04  0.00000000000E+00 0. -1.
         -1   -1    0    0    0  501 -0.00000000000E+00 -0.00000000000E+00 -0.32068210485E+03  0.32068210485E+03  0.00000000000E+00 0.  1.
         24    2    1    2    0    0 -0.18856369730E+03 -0.64514565826E+03  0.10310177102E+04  0.12334753216E+04  0.81820913697E+02 0.  0.
        254    2    1    2    0    0  0.18856369730E+03  0.64514565826E+03  0.12127639363E+04  0.16516705346E+04  0.89746866320E+03 0.  0.
         23    2    4    4    0    0 -0.33260840635E+03  0.35195962529E+03  0.71300265022E+03  0.86674017700E+03  0.91443017191E+02 0.  0.
         23    2    4    4    0    0  0.52117210365E+03  0.29318603297E+03  0.49976128612E+03  0.78493035765E+03  0.93679836160E+02 0.  0.
          2    1    3    3  502    0 -0.12584392719E+02 -0.67632833450E+01  0.30334760434E+02  0.33530681954E+02  0.00000000000E+00 0. -1.
         -1    1    3    3    0  502 -0.17597930458E+03 -0.63838237491E+03  0.10006829498E+04  0.11999446397E+04  0.00000000000E+00 0.  1.
         13    1    5    5    0    0 -0.78723780031E+02  0.38272186049E+02  0.15648571349E+03  0.17930413351E+03  0.00000000000E+00 0. -1.
        -13    1    5    5    0    0 -0.25388462632E+03  0.31368743924E+03  0.55651693673E+03  0.68743604349E+03  0.00000000000E+00 0.  1.
          2    1    6    6  503    0  0.14998286015E+03  0.13001177740E+03  0.14035145854E+03  0.24309761932E+03  0.00000000000E+00 0. -1.
         -2    1    6    6    0  503  0.37118924350E+03  0.16317425556E+03  0.35940982758E+03  0.54183273833E+03  0.00000000000E+00 0.  1.
<mgrwt>
<rscale>  0 0.18137008E+04</rscale>
<asrwt>0</asrwt>
<pdfrwt beam="1">  1        2 0.39453287E+00 0.18137008E+04</pdfrwt>
<pdfrwt beam="2">  1       -1 0.49335710E-01 0.18137008E+04</pdfrwt>
<totfact> 0.14134452E+01</totfact>
</mgrwt>
</event>
<event>
12    7  0.1661464E-007  0.2061010E+04  0.7818608E-02  0.8578616E-01
         -1   -1    0    0    0  501 -0.00000000000E+00  0.00000000000E+00  0.44287376624E+03  0.44287376624E+03  0.00000000000E+00 0.  1.
          2   -1    0    0  501    0  0.00000000000E+00 -0.00000000000E+00 -0.23978412567E+04  0.23978412567E+04  0.00000000000E+00 0. -1.
         24    2    1    2    0    0  0.50195188052E+03 -0.62111704283E+03 -0.47707194692E+03  0.93370560887E+03  0.80414241618E+02 0.  0.
        254    2    1    2    0    0 -0.50195188052E+03  0.62111704283E+03 -0.14778955435E+04  0.19070094141E+04  0.90264477868E+03 0.  0.
         23    2    4    4    0    0  0.94115926080E+02  0.17002893007E+03 -0.98381018809E+03  0.10069670232E+04  0.91282281964E+02 0.  0.
         23    2    4    4    0    0 -0.59606780660E+03  0.45108811276E+03 -0.49408535544E+03  0.90004239087E+03  0.84726922297E+02 0.  0.
          4    1    3    3  502    0  0.15065662908E+02 -0.41447888470E+02 -0.13918002004E+02  0.46245134201E+02  0.00000000000E+00 0. -1.
         -3    1    3    3    0  502  0.48688621761E+03 -0.57966915436E+03 -0.46315394492E+03  0.88746047467E+03  0.00000000000E+00 0.  1.
         13    1    5    5    0    0 -0.16458053009E+02  0.20975104287E+02 -0.18304242489E+03  0.18497392200E+03  0.00000000000E+00 0.  1.
        -13    1    5    5    0    0  0.11057397909E+03  0.14905382578E+03 -0.80076776320E+03  0.82199310120E+03  0.00000000000E+00 0. -1.
          1    1    6    6  503    0 -0.39802531829E+03  0.27242151635E+03 -0.35756597556E+03  0.60040908009E+03  0.00000000000E+00 0. -1.
         -1    1    6    6    0  503 -0.19804248831E+03  0.17866659641E+03 -0.13651937989E+03  0.29963331078E+03  0.00000000000E+00 0.  1.
<mgrwt>
<rscale>  0 0.20610104E+04</rscale>
<asrwt>0</asrwt>
<pdfrwt beam="1">  1        2 0.36889865E+00 0.20610104E+04</pdfrwt>
<pdfrwt beam="2">  1       -1 0.68134427E-01 0.20610104E+04</pdfrwt>
<totfact> 0.91508417E+00</totfact>
</mgrwt>
</event>
<event>
12    7  0.1661464E-007  0.2181413E+04  0.7818608E-02  0.8526205E-01
          2   -1    0    0  501    0  0.00000000000E+00  0.00000000000E+00  0.14050480843E+04  0.14050480843E+04  0.00000000000E+00 0. -1.
         -1   -1    0    0    0  501 -0.00000000000E+00 -0.00000000000E+00 -0.84669023609E+03  0.84669023609E+03  0.00000000000E+00 0.  1.
         24    2    1    2    0    0  0.77573071935E+03 -0.29852140907E+02 -0.24234222120E+03  0.81732842838E+03  0.81527347602E+02 0.  0.
        254    2    1    2    0    0 -0.77573071935E+03  0.29852140907E+02  0.80070006943E+03  0.14344098920E+04  0.90208748905E+03 0.  0.
         23    2    4    4    0    0 -0.17199664686E+02  0.24438879658E+03  0.53973037875E+03  0.60022337994E+03  0.94538414010E+02 0.  0.
         23    2    4    4    0    0 -0.75853105466E+03 -0.21453665567E+03  0.26096969068E+03  0.83418651208E+03  0.79791102087E+02 0.  0.
          2    1    3    3  502    0  0.34189380812E+03 -0.33339190840E+02 -0.14396780155E+03  0.37246423393E+03  0.00000000000E+00 0. -1.
         -1    1    3    3    0  502  0.43383691123E+03  0.34870499325E+01 -0.98374419660E+02  0.44486419445E+03  0.00000000000E+00 0.  1.
         13    1    5    5    0    0 -0.44338579577E+02  0.69532423232E+02  0.21742299403E+03  0.23253693439E+03  0.00000000000E+00 0. -1.
        -13    1    5    5    0    0  0.27138914891E+02  0.17485637335E+03  0.32230738472E+03  0.36768644556E+03  0.00000000000E+00 0.  1.
          3    1    6    6  503    0 -0.50896914759E+02 -0.10395165818E+01  0.18430536886E+01  0.50940881163E+02  0.00000000000E+00 0. -1.
         -3    1    6    6    0  503 -0.70763413990E+03 -0.21349713909E+03  0.25912663699E+03  0.78324563092E+03  0.00000000000E+00 0.  1.
<mgrwt>
<rscale>  0 0.21814128E+04</rscale>
<asrwt>0</asrwt>
<pdfrwt beam="1">  1        2 0.21616124E+00 0.21814128E+04</pdfrwt>
<pdfrwt beam="2">  1       -1 0.13026004E+00 0.21814128E+04</pdfrwt>
<totfact> 0.75663630E+00</totfact>
</mgrwt>
</event>
<event>
12    7  0.1661464E-007  0.1910708E+04  0.7818608E-02  0.8649544E-01
         -1   -1    0    0    0  501 -0.00000000000E+00  0.00000000000E+00  0.20316407798E+03  0.20316407798E+03  0.00000000000E+00 0.  1.
          2   -1    0    0  501    0  0.00000000000E+00 -0.00000000000E+00 -0.44924356010E+04  0.44924356010E+04  0.00000000000E+00 0. -1.
         24    2    1    2    0    0  0.37562688526E+03  0.58538055080E+03 -0.23171077832E+04  0.24205253598E+04  0.78667607051E+02 0.  0.
        254    2    1    2    0    0 -0.37562688526E+03 -0.58538055080E+03 -0.19721637399E+04  0.22750743192E+04  0.89597287621E+03 0.  0.
         23    2    4    4    0    0 -0.60227569217E+03 -0.59763196680E+03 -0.17389284272E+04  0.19372165244E+04  0.95056879847E+02 0.  0.
         23    2    4    4    0    0  0.22664880691E+03  0.12251416000E+02 -0.23323531270E+03  0.33785779483E+03  0.90716038094E+02 0.  0.
          2    1    3    3  502    0  0.51732510548E+02  0.70189822414E+02 -0.21223598586E+03  0.22944929181E+03  0.00000000000E+00 0. -1.
         -1    1    3    3    0  502  0.32389437471E+03  0.51519072839E+03 -0.21048717973E+04  0.21910760680E+04  0.00000000000E+00 0.  1.
         13    1    5    5    0    0 -0.58641014597E+03 -0.55570799513E+03 -0.16239356885E+04  0.18137958418E+04  0.00000000000E+00 0. -1.
        -13    1    5    5    0    0 -0.15865546205E+02 -0.41923971668E+02 -0.11499273863E+03  0.12342068260E+03  0.00000000000E+00 0.  1.
          1    1    6    6  503    0  0.21675636975E+03  0.40900739414E+01 -0.23994964641E+03  0.32338194962E+03  0.00000000000E+00 0. -1.
         -1    1    6    6    0  503  0.98924371651E+01  0.81613420586E+01  0.67143337083E+01  0.14475845205E+02  0.00000000000E+00 0.  1.
<mgrwt>
<rscale>  0 0.19107083E+04</rscale>
<asrwt>0</asrwt>
<pdfrwt beam="1">  1        2 0.69114397E+00 0.19107083E+04</pdfrwt>
<pdfrwt beam="2">  1       -1 0.31256011E-01 0.19107083E+04</pdfrwt>
<totfact> 0.12900788E+00</totfact>
</mgrwt>
</event>
<event>
12    7  0.1661464E-007  0.2844798E+04  0.7818608E-02  0.8289494E-01
         -1   -1    0    0    0  501 -0.00000000000E+00  0.00000000000E+00  0.11173279133E+04  0.11173279133E+04  0.00000000000E+00 0.  1.
          2   -1    0    0  501    0  0.00000000000E+00 -0.00000000000E+00 -0.18107655550E+04  0.18107655550E+04  0.00000000000E+00 0. -1.
         24    2    1    2    0    0  0.12345322779E+04 -0.49402564029E+01  0.35748818985E+02  0.12376504487E+04  0.80039388596E+02 0.  0.
        254    2    1    2    0    0 -0.12345322779E+04  0.49402564029E+01 -0.72918646068E+03  0.16904430197E+04  0.89542747171E+03 0.  0.
         23    2    4    4    0    0 -0.10989880939E+04  0.24131498298E+03 -0.81284534712E+03  0.13911667015E+04  0.92841163564E+02 0.  0.
         23    2    4    4    0    0 -0.13554418405E+03 -0.23637472657E+03  0.83658886432E+02  0.29927631818E+03  0.91226466295E+02 0.  0.
          4    1    3    3  502    0  0.42306610667E+02 -0.58637207119E+01  0.14921563813E+02  0.45242519750E+02  0.00000000000E+00 0. -1.
         -1    1    3    3    0  502  0.11922256672E+04  0.92346430906E+00  0.20827255172E+02  0.11924079289E+04  0.00000000000E+00 0.  1.
         13    1    5    5    0    0 -0.94417651335E+03  0.23989040512E+03 -0.70198049056E+03  0.12007469775E+04  0.00000000000E+00 0.  1.
        -13    1    5    5    0    0 -0.15481158051E+03  0.14245778586E+01 -0.11086485656E+03  0.19041972403E+03  0.00000000000E+00 0. -1.
          2    1    6    6  503    0 -0.41004989552E+02 -0.15144903683E+02  0.29313665943E+02  0.52631438198E+02  0.00000000000E+00 0. -1.
         -2    1    6    6    0  503 -0.94539194502E+02 -0.22122982289E+03  0.54345220489E+02  0.24664487998E+03  0.00000000000E+00 0.  1.
<mgrwt>
<rscale>  0 0.28447980E+04</rscale>
<asrwt>0</asrwt>
<pdfrwt beam="1">  1        2 0.27857932E+00 0.28447980E+04</pdfrwt>
<pdfrwt beam="2">  1       -1 0.17189660E+00 0.28447980E+04</pdfrwt>
<totfact> 0.20011163E+00</totfact>
</mgrwt>
</event>
<event>
12    7  0.1661464E-007  0.2754077E+04  0.7818608E-02  0.8317669E-01
          2   -1    0    0  501    0  0.00000000000E+00  0.00000000000E+00  0.20051839453E+04  0.20051839453E+04  0.00000000000E+00 0. -1.
         -1   -1    0    0    0  501 -0.00000000000E+00 -0.00000000000E+00 -0.94566631356E+03  0.94566631356E+03  0.00000000000E+00 0.  1.
         24    2    1    2    0    0 -0.41743721385E+03 -0.40835657941E+02  0.17310732109E+04  0.17829411560E+04  0.79644999038E+02 0.  0.
        254    2    1    2    0    0  0.41743721385E+03  0.40835657941E+02 -0.67155557912E+03  0.11679091029E+04  0.85854726035E+03 0.  0.
         23    2    4    4    0    0 -0.11952002871E+02  0.34389308006E+03 -0.48767705282E+03  0.60388254975E+03  0.91869065259E+02 0.  0.
         23    2    4    4    0    0  0.42938921672E+03 -0.30305742212E+03 -0.18387852629E+03  0.56402655312E+03  0.89976328326E+02 0.  0.
          4    1    3    3  502    0 -0.39779755687E+02 -0.59838314170E+01  0.29082989559E+03  0.29359881364E+03  0.00000000000E+00 0. -1.
         -1    1    3    3    0  502 -0.37765745816E+03 -0.34851826524E+02  0.14402433153E+04  0.14893423423E+04  0.00000000000E+00 0.  1.
         13    1    5    5    0    0  0.48190523222E+01  0.23260460973E+01 -0.40890836182E+02  0.41239474286E+02  0.00000000000E+00 0. -1.
        -13    1    5    5    0    0 -0.16771055193E+02  0.34156703396E+03 -0.44678621664E+03  0.56264307546E+03  0.00000000000E+00 0.  1.
          2    1    6    6  503    0  0.58729771590E+02 -0.67752561776E+02 -0.45658954417E+01  0.89779970480E+02  0.00000000000E+00 0. -1.
         -2    1    6    6    0  503  0.37065944513E+03 -0.23530486034E+03 -0.17931263085E+03  0.47424658264E+03  0.00000000000E+00 0.  1.
<mgrwt>
<rscale>  0 0.27540769E+04</rscale>
<asrwt>0</asrwt>
<pdfrwt beam="1">  1        2 0.30848984E+00 0.27540769E+04</pdfrwt>
<pdfrwt beam="2">  1       -1 0.14548713E+00 0.27540769E+04</pdfrwt>
<totfact> 0.24973236E+00</totfact>
</mgrwt>
</event>
<event>
12    7  0.1661464E-007  0.1468772E+04  0.7818608E-02  0.8905489E-01
          2   -1    0    0  501    0  0.00000000000E+00  0.00000000000E+00  0.20439513224E+04  0.20439513224E+04  0.00000000000E+00 0. -1.
         -1   -1    0    0    0  501 -0.00000000000E+00 -0.00000000000E+00 -0.26386268951E+03  0.26386268951E+03  0.00000000000E+00 0.  1.
         24    2    1    2    0    0 -0.20314250450E+03  0.37066586106E+03  0.33506053472E+03  0.54508827964E+03  0.78712216251E+02 0.  0.
        254    2    1    2    0    0  0.20314250450E+03 -0.37066586106E+03  0.14450280982E+04  0.17627257323E+04  0.91675282659E+03 0.  0.
         23    2    4    4    0    0 -0.13320015365E+03 -0.55816327451E+03  0.63188229710E+03  0.85831302532E+03  0.90208037881E+02 0.  0.
         23    2    4    4    0    0  0.33634265814E+03  0.18749741345E+03  0.81314580110E+03  0.90441270698E+03  0.92057519913E+02 0.  0.
          2    1    3    3  502    0 -0.55534150617E+02  0.59539265184E+02  0.36126810423E+02  0.89073634790E+02  0.00000000000E+00 0. -1.
         -1    1    3    3    0  502 -0.14760835388E+03  0.31112659587E+03  0.29893372430E+03  0.45601464485E+03  0.00000000000E+00 0.  1.
         13    1    5    5    0    0 -0.61596903346E+02 -0.10248007447E+03  0.12592984590E+03  0.17365100130E+03  0.00000000000E+00 0. -1.
        -13    1    5    5    0    0 -0.71603250303E+02 -0.45568320004E+03  0.50595245119E+03  0.68466202401E+03  0.00000000000E+00 0.  1.
          2    1    6    6  503    0  0.28418253248E+03  0.11824867825E+03  0.60099253503E+03  0.67522921207E+03  0.00000000000E+00 0. -1.
         -2    1    6    6    0  503  0.52160125666E+02  0.69248735209E+02  0.21215326607E+03  0.22918349491E+03  0.00000000000E+00 0.  1.
<mgrwt>
<rscale>  0 0.14687716E+04</rscale>
<asrwt>0</asrwt>
<pdfrwt beam="1">  1        2 0.31445404E+00 0.14687716E+04</pdfrwt>
<pdfrwt beam="2">  1       -1 0.40594261E-01 0.14687716E+04</pdfrwt>
<totfact> 0.41321359E+01</totfact>
</mgrwt>
</event>
<event>
12    7  0.1661464E-007  0.1735244E+04  0.7818608E-02  0.8741515E-01
         -1   -1    0    0    0  501 -0.00000000000E+00  0.00000000000E+00  0.65308597166E+03  0.65308597166E+03  0.00000000000E+00 0.  1.
          2   -1    0    0  501    0  0.00000000000E+00 -0.00000000000E+00 -0.11526323689E+04  0.11526323689E+04  0.00000000000E+00 0. -1.
         24    2    1    2    0    0  0.46032278074E+03 -0.43119253826E+03 -0.15021550792E+03  0.65298157568E+03  0.77434952266E+02 0.  0.
        254    2    1    2    0    0 -0.46032278074E+03  0.43119253826E+03 -0.34933088936E+03  0.11527367649E+04  0.89941420460E+03 0.  0.
         23    2    4    4    0    0 -0.67089849853E+03  0.86282760926E+02 -0.18448972334E+03  0.70701252523E+03  0.90998585927E+02 0.  0.
         23    2    4    4    0    0  0.21057571779E+03  0.34490977733E+03 -0.16484116602E+03  0.44572423971E+03  0.90512984828E+02 0.  0.
          2    1    3    3  502    0  0.19462624249E+03 -0.15405160947E+03 -0.26575309571E+02  0.24963477266E+03  0.00000000000E+00 0. -1.
         -1    1    3    3    0  502  0.26569653826E+03 -0.27714092879E+03 -0.12364019835E+03  0.40334680301E+03  0.00000000000E+00 0.  1.
         13    1    5    5    0    0 -0.58836900255E+03  0.46717237543E+02 -0.17105498860E+03  0.61450825265E+03  0.00000000000E+00 0.  1.
        -13    1    5    5    0    0 -0.82529495985E+02  0.39565523383E+02 -0.13434734734E+02  0.92504272580E+02  0.00000000000E+00 0. -1.
          2    1    6    6  503    0  0.99918411413E+02  0.13835185645E+03 -0.11601547792E+03  0.20636016147E+03  0.00000000000E+00 0. -1.
         -2    1    6    6    0  503  0.11065730638E+03  0.20655792088E+03 -0.48825688105E+02  0.23936407824E+03  0.00000000000E+00 0.  1.
<mgrwt>
<rscale>  0 0.17352441E+04</rscale>
<asrwt>0</asrwt>
<pdfrwt beam="1">  1        2 0.17732805E+00 0.17352441E+04</pdfrwt>
<pdfrwt beam="2">  1       -1 0.10047477E+00 0.17352441E+04</pdfrwt>
<totfact> 0.20640798E+01</totfact>
</mgrwt>
</event>
<event>
12    7  0.1661464E-007  0.2485800E+04  0.7818608E-02  0.8408062E-01
          2   -1    0    0  501    0  0.00000000000E+00  0.00000000000E+00  0.16210950244E+04  0.16210950244E+04  0.00000000000E+00 0. -1.
         -1   -1    0    0    0  501 -0.00000000000E+00 -0.00000000000E+00 -0.95293659726E+03  0.95293659726E+03  0.00000000000E+00 0.  1.
         24    2    1    2    0    0 -0.62167269362E+03 -0.86116128763E+03  0.47410986734E+03  0.11658715021E+04  0.80003073704E+02 0.  0.
        254    2    1    2    0    0  0.62167269362E+03  0.86116128763E+03  0.19404855979E+03  0.14081601196E+04  0.90398250948E+03 0.  0.
         23    2    4    4    0    0  0.59774965166E+02  0.77634542100E+03 -0.42915120196E+02  0.78563616372E+03  0.95379321827E+02 0.  0.
         23    2    4    4    0    0  0.56189772846E+03  0.84815866630E+02  0.23696367999E+03  0.62252395584E+03  0.91986420087E+02 0.  0.
          4    1    3    3  502    0 -0.33955929529E+02 -0.72991632714E+02  0.20314912146E+02  0.83026979061E+02  0.00000000000E+00 0. -1.
         -3    1    3    3    0  502 -0.58771676409E+03 -0.78816965491E+03  0.45379495519E+03  0.10828445230E+04  0.00000000000E+00 0.  1.
         13    1    5    5    0    0 -0.43185635812E+01  0.32013996671E+03  0.19392868661E+02  0.32075587545E+03  0.00000000000E+00 0.  1.
        -13    1    5    5    0    0  0.64093528747E+02  0.45620545429E+03 -0.62307988857E+02  0.46488028827E+03  0.00000000000E+00 0. -1.
          3    1    6    6  503    0  0.20751796332E+03  0.10434739139E+02  0.12941868309E+03  0.24478926532E+03  0.00000000000E+00 0. -1.
         -3    1    6    6    0  503  0.35437976514E+03  0.74381127491E+02  0.10754499690E+03  0.37773469052E+03  0.00000000000E+00 0.  1.
<mgrwt>
<rscale>  0 0.24858003E+04</rscale>
<asrwt>0</asrwt>
<pdfrwt beam="1">  1        2 0.24939923E+00 0.24858003E+04</pdfrwt>
<pdfrwt beam="2">  1       -1 0.14660563E+00 0.24858003E+04</pdfrwt>
<totfact> 0.40944032E+00</totfact>
</mgrwt>
</event>
<event>
12    7  0.1661464E-007  0.3288198E+04  0.7818608E-02  0.8165905E-01
          2   -1    0    0  501    0  0.00000000000E+00  0.00000000000E+00  0.31156253269E+04  0.31156253269E+04  0.00000000000E+00 0. -1.
         -1   -1    0    0    0  501 -0.00000000000E+00 -0.00000000000E+00 -0.86758223032E+03  0.86758223032E+03  0.00000000000E+00 0.  1.
         24    2    1    2    0    0  0.37045376825E+03  0.30879224103E+03  0.27899272767E+04  0.28323924268E+04  0.78511194410E+02 0.  0.
        254    2    1    2    0    0 -0.37045376825E+03 -0.30879224103E+03 -0.54188418009E+03  0.11508151304E+04  0.89339149161E+03 0.  0.
         23    2    4    4    0    0 -0.47198022177E+03 -0.33195361448E+03 -0.71829271955E+03  0.92530582652E+03  0.85369255123E+02 0.  0.
         23    2    4    4    0    0  0.10152645352E+03  0.23161373446E+02  0.17640853946E+03  0.22550930392E+03  0.94288935587E+02 0.  0.
          2    1    3    3  502    0  0.35358092621E+03  0.27155121059E+03  0.26165671636E+04  0.26542764086E+04  0.00000000000E+00 0. -1.
         -1    1    3    3    0  502  0.16872842034E+02  0.37241030441E+02  0.17336011303E+03  0.17811601820E+03  0.00000000000E+00 0.  1.
         13    1    5    5    0    0 -0.13197655113E+03 -0.67941818273E+02 -0.13716955863E+03  0.20211231663E+03  0.00000000000E+00 0. -1.
        -13    1    5    5    0    0 -0.34000367063E+03 -0.26401179621E+03 -0.58112316093E+03  0.72319350989E+03  0.00000000000E+00 0.  1.
          4    1    6    6  503    0 -0.22284334466E+01 -0.16995689038E+02  0.22972191691E+00  0.17142699135E+02  0.00000000000E+00 0. -1.
         -4    1    6    6    0  503  0.10375488697E+03  0.40157062484E+02  0.17617881755E+03  0.20836660478E+03  0.00000000000E+00 0.  1.
<mgrwt>
<rscale>  0 0.32881978E+04</rscale>
<asrwt>0</asrwt>
<pdfrwt beam="1">  1        2 0.47932697E+00 0.32881978E+04</pdfrwt>
<pdfrwt beam="2">  1       -1 0.13347419E+00 0.32881978E+04</pdfrwt>
<totfact> 0.66156856E-01</totfact>
</mgrwt>
</event>
<event>
12    7  0.1661464E-007  0.2734504E+04  0.7818608E-02  0.8323896E-01
         -1   -1    0    0    0  501 -0.00000000000E+00  0.00000000000E+00  0.66452336514E+03  0.66452336514E+03  0.00000000000E+00 0.  1.
          2   -1    0    0  501    0  0.00000000000E+00 -0.00000000000E+00 -0.28131102767E+04  0.28131102767E+04  0.00000000000E+00 0. -1.
         24    2    1    2    0    0 -0.59137767227E+03 -0.16512817487E+03  0.38026567909E+03  0.72672619284E+03  0.80833825053E+02 0.  0.
        254    2    1    2    0    0  0.59137767227E+03  0.16512817487E+03 -0.25288525906E+04  0.27509074490E+04  0.89185284789E+03 0.  0.
         23    2    4    4    0    0  0.18565145503E+03  0.24050048838E+03 -0.21795469028E+04  0.22025120265E+04  0.91255561753E+02 0.  0.
         23    2    4    4    0    0  0.40572621724E+03 -0.75372313510E+02 -0.34930568781E+03  0.54839542249E+03  0.91805919586E+02 0.  0.
          4    1    3    3  502    0 -0.28545339934E+00 -0.50818990062E+00  0.10124089795E+02  0.10140854737E+02  0.00000000000E+00 0. -1.
         -3    1    3    3    0  502 -0.59109221887E+03 -0.16461998497E+03  0.37014158930E+03  0.71658533811E+03  0.00000000000E+00 0.  1.
         13    1    5    5    0    0  0.10131805575E+03  0.59412732136E+02 -0.81712586160E+03  0.82552401228E+03  0.00000000000E+00 0. -1.
        -13    1    5    5    0    0  0.84333399288E+02  0.18108775624E+03 -0.13624210412E+04  0.13769880142E+04  0.00000000000E+00 0.  1.
          3    1    6    6  503    0  0.27085976307E+03 -0.90328844890E+01 -0.20262882534E+03  0.33838594106E+03  0.00000000000E+00 0. -1.
         -3    1    6    6    0  503  0.13486645417E+03 -0.66339429021E+02 -0.14667686247E+03  0.21000948142E+03  0.00000000000E+00 0.  1.
<mgrwt>
<rscale>  0 0.27345036E+04</rscale>
<asrwt>0</asrwt>
<pdfrwt beam="1">  1        2 0.43278620E+00 0.27345036E+04</pdfrwt>
<pdfrwt beam="2">  1       -1 0.10223436E+00 0.27345036E+04</pdfrwt>
<totfact> 0.20445502E+00</totfact>
</mgrwt>
</event>
<event>
12    7  0.1661464E-007  0.1322481E+04  0.7818608E-02  0.9011925E-01
          2   -1    0    0  501    0  0.00000000000E+00  0.00000000000E+00  0.61897716361E+03  0.61897716361E+03  0.00000000000E+00 0. -1.
         -1   -1    0    0    0  501 -0.00000000000E+00 -0.00000000000E+00 -0.70638994813E+03  0.70638994813E+03  0.00000000000E+00 0.  1.
         24    2    1    2    0    0 -0.22093691868E+03  0.17888358880E+03 -0.23402566284E+03  0.37694599984E+03  0.80671032895E+02 0.  0.
        254    2    1    2    0    0  0.22093691868E+03 -0.17888358880E+03  0.14661287832E+03  0.94842111189E+03  0.89285766447E+03 0.  0.
         23    2    4    4    0    0  0.43149307199E+03 -0.10435660388E+03 -0.22467229412E+03  0.50564750109E+03  0.90139800668E+02 0.  0.
         23    2    4    4    0    0 -0.21055615331E+03 -0.74526984925E+02  0.37128517244E+03  0.44277361080E+03  0.91146179120E+02 0.  0.
          2    1    3    3  502    0 -0.10979774092E+03  0.39003996546E+02 -0.83814089644E+02  0.14353277424E+03  0.00000000000E+00 0. -1.
         -1    1    3    3    0  502 -0.11113917776E+03  0.13987959226E+03 -0.15021157320E+03  0.23341322560E+03  0.00000000000E+00 0.  1.
         13    1    5    5    0    0  0.43253467221E+03 -0.10458596019E+03 -0.22950637813E+03  0.50069715731E+03  0.00000000000E+00 0. -1.
        -13    1    5    5    0    0 -0.10416002130E+01  0.22935631052E+00  0.48340840165E+01  0.49503437860E+01  0.00000000000E+00 0.  1.
          2    1    6    6  503    0 -0.17947746400E+03 -0.22837675260E+02  0.27876911460E+03  0.33233407703E+03  0.00000000000E+00 0. -1.
         -2    1    6    6    0  503 -0.31078689310E+02 -0.51689309665E+02  0.92516057836E+02  0.11043953378E+03  0.00000000000E+00 0.  1.
<mgrwt>
<rscale>  0 0.13224814E+04</rscale>
<asrwt>0</asrwt>
<pdfrwt beam="1">  1        2 0.95227256E-01 0.13224814E+04</pdfrwt>
<pdfrwt beam="2">  1       -1 0.10867538E+00 0.13224814E+04</pdfrwt>
<totfact> 0.41958275E+01</totfact>
</mgrwt>
</event>
<event>
12    7  0.1661464E-007  0.1664897E+04  0.7818608E-02  0.8781642E-01
          2   -1    0    0  501    0  0.00000000000E+00  0.00000000000E+00  0.79379001156E+03  0.79379001156E+03  0.00000000000E+00 0. -1.
         -1   -1    0    0    0  501 -0.00000000000E+00 -0.00000000000E+00 -0.87299000942E+03  0.87299000942E+03  0.00000000000E+00 0.  1.
         24    2    1    2    0    0 -0.41052956239E+03  0.59859589449E+02 -0.45552826320E+03  0.62135651611E+03  0.80375552869E+02 0.  0.
        254    2    1    2    0    0  0.41052956239E+03 -0.59859589449E+02  0.37632826534E+03  0.10454235049E+04  0.88270586787E+03 0.  0.
         23    2    4    4    0    0 -0.39277772373E+02 -0.32234747290E+03 -0.79948229745E+02  0.34706732700E+03  0.92808261202E+02 0.  0.
         23    2    4    4    0    0  0.44980733476E+03  0.26248788345E+03  0.45627649509E+03  0.69835617785E+03  0.91030675124E+02 0.  0.
          2    1    3    3  502    0 -0.82839846502E+01 -0.36204795964E+01 -0.34289200519E+02  0.35460986258E+02  0.00000000000E+00 0. -1.
         -1    1    3    3    0  502 -0.40224557774E+03  0.63480069045E+02 -0.42123906268E+03  0.58589552986E+03  0.00000000000E+00 0.  1.
         13    1    5    5    0    0  0.29217120819E+02 -0.85474041761E+02 -0.32280570026E+02  0.95924382537E+02  0.00000000000E+00 0. -1.
        -13    1    5    5    0    0 -0.68494893191E+02 -0.23687343114E+03 -0.47667659719E+02  0.25114294447E+03  0.00000000000E+00 0.  1.
          4    1    6    6  503    0  0.38685858742E+03  0.24862617474E+03  0.42709120493E+03  0.62759974407E+03  0.00000000000E+00 0. -1.
         -4    1    6    6    0  503  0.62948747342E+02  0.13861708707E+02  0.29185290156E+02  0.70756433783E+02  0.00000000000E+00 0.  1.
<mgrwt>
<rscale>  0 0.16648973E+04</rscale>
<asrwt>0</asrwt>
<pdfrwt beam="1">  1        2 0.12212154E+00 0.16648973E+04</pdfrwt>
<pdfrwt beam="2">  1       -1 0.13430616E+00 0.16648973E+04</pdfrwt>
<totfact> 0.17699791E+01</totfact>
</mgrwt>
</event>
<event>
12    7  0.1661464E-007  0.1640501E+04  0.7818608E-02  0.8796046E-01
          2   -1    0    0  501    0  0.00000000000E+00  0.00000000000E+00  0.14808388177E+04  0.14808388177E+04  0.00000000000E+00 0. -1.
         -1   -1    0    0    0  501 -0.00000000000E+00 -0.00000000000E+00 -0.45434469154E+03  0.45434469154E+03  0.00000000000E+00 0.  1.
         24    2    1    2    0    0  0.37961414562E+03 -0.32831558970E+03  0.68492799408E+03  0.85249029572E+03  0.75599743535E+02 0.  0.
        254    2    1    2    0    0 -0.37961414562E+03  0.32831558970E+03  0.34156613202E+03  0.10826932135E+04  0.89647038209E+03 0.  0.
         23    2    4    4    0    0 -0.53103945071E+03  0.27981283781E+03  0.54180352015E+03  0.81366165791E+03  0.90532406814E+02 0.  0.
         23    2    4    4    0    0  0.15142530509E+03  0.48502751894E+02 -0.20023738813E+03  0.26903155557E+03  0.83670940739E+02 0.  0.
          4    1    3    3  502    0  0.13172608772E+02 -0.37379484435E+02  0.50979854857E+02  0.64573129703E+02  0.00000000000E+00 0. -1.
         -3    1    3    3    0  502  0.36644153685E+03 -0.29093610527E+03  0.63394813923E+03  0.78791716602E+03  0.00000000000E+00 0.  1.
         13    1    5    5    0    0 -0.50713034246E+03  0.25519331262E+03  0.48210597231E+03  0.74480264472E+03  0.00000000000E+00 0.  1.
        -13    1    5    5    0    0 -0.23909108246E+02  0.24619525190E+02  0.59697547846E+02  0.68859013183E+02  0.00000000000E+00 0. -1.
          1    1    6    6  503    0  0.43675629634E+02 -0.16475548517E+02 -0.24004766601E+02  0.52490314749E+02  0.00000000000E+00 0. -1.
         -1    1    6    6    0  503  0.10774967545E+03  0.64978300412E+02 -0.17623262153E+03  0.21654124082E+03  0.00000000000E+00 0.  1.
<mgrwt>
<rscale>  0 0.16405015E+04</rscale>
<asrwt>0</asrwt>
<pdfrwt beam="1">  1        2 0.22782135E+00 0.16405015E+04</pdfrwt>
<pdfrwt beam="2">  1       -1 0.69899184E-01 0.16405015E+04</pdfrwt>
<totfact> 0.29338446E+01</totfact>
</mgrwt>
</event>
<event>
12    7  0.1661464E-007  0.1714513E+04  0.7818608E-02  0.8753130E-01
          2   -1    0    0  501    0  0.00000000000E+00  0.00000000000E+00  0.15238464166E+04  0.15238464166E+04  0.00000000000E+00 0. -1.
         -1   -1    0    0    0  501 -0.00000000000E+00 -0.00000000000E+00 -0.48225905760E+03  0.48225905760E+03  0.00000000000E+00 0.  1.
         24    2    1    2    0    0  0.30521691831E+03  0.45352444406E+03  0.72337136584E+03  0.91003876964E+03  0.77862961283E+02 0.  0.
        254    2    1    2    0    0 -0.30521691831E+03 -0.45352444406E+03  0.31821599318E+03  0.10960667046E+04  0.89513072454E+03 0.  0.
         23    2    4    4    0    0  0.42969282530E+02 -0.21398756616E+03  0.55517253183E+03  0.60290191978E+03  0.87390772231E+02 0.  0.
         23    2    4    4    0    0 -0.34818620084E+03 -0.23953687790E+03 -0.23695653865E+03  0.49316478481E+03  0.91932352483E+02 0.  0.
          2    1    3    3  502    0  0.14901387523E+03  0.26230950543E+03  0.44890957720E+03  0.54086155359E+03  0.00000000000E+00 0. -1.
         -1    1    3    3    0  502  0.15620304309E+03  0.19121493864E+03  0.27446178864E+03  0.36917721605E+03  0.00000000000E+00 0.  1.
         13    1    5    5    0    0 -0.16678138962E+02 -0.56893635429E+02  0.22162231603E+03  0.22941555535E+03  0.00000000000E+00 0. -1.
        -13    1    5    5    0    0  0.59647421492E+02 -0.15709393073E+03  0.33355021579E+03  0.37348636444E+03  0.00000000000E+00 0.  1.
          1    1    6    6  503    0 -0.87690615466E-01  0.21218304248E+01  0.48321741903E+01  0.52782346861E+01  0.00000000000E+00 0. -1.
         -1    1    6    6    0  503 -0.34809851023E+03 -0.24165870833E+03 -0.24178871284E+03  0.48788655012E+03  0.00000000000E+00 0.  1.
<mgrwt>
<rscale>  0 0.17145130E+04</rscale>
<asrwt>0</asrwt>
<pdfrwt beam="1">  1        2 0.23443791E+00 0.17145130E+04</pdfrwt>
<pdfrwt beam="2">  1       -1 0.74193702E-01 0.17145130E+04</pdfrwt>
<totfact> 0.24373719E+01</totfact>
</mgrwt>
</event>
<event>
12    7  0.1661464E-007  0.2957032E+04  0.7818608E-02  0.8256108E-01
          2   -1    0    0  501    0  0.00000000000E+00  0.00000000000E+00  0.16959438264E+04  0.16959438264E+04  0.00000000000E+00 0. -1.
         -1   -1    0    0    0  501 -0.00000000000E+00 -0.00000000000E+00 -0.12889631449E+04  0.12889631449E+04  0.00000000000E+00 0.  1.
         24    2    1    2    0    0 -0.64505106849E+03  0.38767929878E+03  0.13057719320E+04  0.15094199012E+04  0.83198438448E+02 0.  0.
        254    2    1    2    0    0  0.64505106849E+03 -0.38767929878E+03 -0.89879125054E+03  0.14754870701E+04  0.89601911938E+03 0.  0.
         23    2    4    4    0    0 -0.12974423016E+03  0.39730491962E+02  0.49163052799E+02  0.17498808987E+03  0.98953264653E+02 0.  0.
         23    2    4    4    0    0  0.77479529865E+03 -0.42740979074E+03 -0.94795430334E+03  0.13004989802E+04  0.98454823639E+02 0.  0.
          4    1    3    3  502    0 -0.61433457312E+03  0.37241963514E+03  0.12041934142E+04  0.14022072354E+04  0.00000000000E+00 0. -1.
         -3    1    3    3    0  502 -0.30716495373E+02  0.15259663640E+02  0.10157851784E+03  0.10721266581E+03  0.00000000000E+00 0.  1.
         13    1    5    5    0    0 -0.50654062536E+02 -0.17946643101E+02 -0.17546131297E+02  0.56531254837E+02  0.00000000000E+00 0. -1.
        -13    1    5    5    0    0 -0.79090167623E+02  0.57677135063E+02  0.66709184097E+02  0.11845683504E+03  0.00000000000E+00 0.  1.
          3    1    6    6  503    0  0.67251279499E+02 -0.31886746970E+02 -0.12428091385E+03  0.14486284815E+03  0.00000000000E+00 0. -1.
         -3    1    6    6    0  503  0.70754401915E+03 -0.39552304377E+03 -0.82367338949E+03  0.11556361321E+04  0.00000000000E+00 0.  1.
<mgrwt>
<rscale>  0 0.29570317E+04</rscale>
<asrwt>0</asrwt>
<pdfrwt beam="1">  1        2 0.26091444E+00 0.29570317E+04</pdfrwt>
<pdfrwt beam="2">  1       -1 0.19830202E+00 0.29570317E+04</pdfrwt>
<totfact> 0.14905377E+00</totfact>
</mgrwt>
</event>
<event>
12    7  0.1661464E-007  0.1796801E+04  0.7818608E-02  0.8708003E-01
          2   -1    0    0  501    0  0.00000000000E+00  0.00000000000E+00  0.20967155344E+04  0.20967155344E+04  0.00000000000E+00 0. -1.
         -1   -1    0    0    0  501 -0.00000000000E+00 -0.00000000000E+00 -0.38494656917E+03  0.38494656917E+03  0.00000000000E+00 0.  1.
         24    2    1    2    0    0  0.36843028879E+03  0.37280020486E+03  0.12384596840E+04  0.13472721230E+04  0.81479532781E+02 0.  0.
        254    2    1    2    0    0 -0.36843028879E+03 -0.37280020486E+03  0.47330928127E+03  0.11343899805E+04  0.88774888442E+03 0.  0.
         23    2    4    4    0    0 -0.64824578417E+02  0.22402781488E+03 -0.78103919926E+02  0.26208295417E+03  0.90534881412E+02 0.  0.
         23    2    4    4    0    0 -0.30360571038E+03 -0.59682801974E+03  0.55141320120E+03  0.87230702638E+03  0.92102753995E+02 0.  0.
          4    1    3    3  502    0  0.21391371301E+03  0.25630644777E+03  0.85200059220E+03  0.91507217250E+03  0.00000000000E+00 0. -1.
         -3    1    3    3    0  502  0.15451657579E+03  0.11649375709E+03  0.38645909178E+03  0.43219995054E+03  0.00000000000E+00 0.  1.
         13    1    5    5    0    0 -0.10953465805E+02  0.11207678238E+03  0.48178560863E+01  0.11271377600E+03  0.00000000000E+00 0. -1.
        -13    1    5    5    0    0 -0.53871112612E+02  0.11195103250E+03 -0.82921776012E+02  0.14936917818E+03  0.00000000000E+00 0.  1.
          2    1    6    6  503    0 -0.29921291751E+03 -0.57203364866E+03  0.54820379834E+03  0.84692282395E+03  0.00000000000E+00 0. -1.
         -2    1    6    6    0  503 -0.43927928650E+01 -0.24794371080E+02  0.32094028560E+01  0.25384202432E+02  0.00000000000E+00 0.  1.
<mgrwt>
<rscale>  0 0.17968010E+04</rscale>
<asrwt>0</asrwt>
<pdfrwt beam="1">  1        2 0.32257161E+00 0.17968010E+04</pdfrwt>
<pdfrwt beam="2">  1       -1 0.59222550E-01 0.17968010E+04</pdfrwt>
<totfact> 0.18341989E+01</totfact>
</mgrwt>
</event>
<event>
12    7  0.1661464E-007  0.2988957E+04  0.7818608E-02  0.8246891E-01
          2   -1    0    0  501    0  0.00000000000E+00  0.00000000000E+00  0.19425936153E+04  0.19425936153E+04  0.00000000000E+00 0. -1.
         -1   -1    0    0    0  501 -0.00000000000E+00 -0.00000000000E+00 -0.11497339996E+04  0.11497339996E+04  0.00000000000E+00 0.  1.
         24    2    1    2    0    0 -0.69288385319E+03  0.56208910414E+03  0.14751056797E+04  0.17258139070E+04  0.80403236546E+02 0.  0.
        254    2    1    2    0    0  0.69288385319E+03 -0.56208910414E+03 -0.68224606390E+03  0.13665137079E+04  0.77837511977E+03 0.  0.
         23    2    4    4    0    0  0.16919672530E+02 -0.46745256145E+03 -0.40072513108E+03  0.62254125210E+03  0.90436758873E+02 0.  0.
         23    2    4    4    0    0  0.67596418066E+03 -0.94636542693E+02 -0.28152093281E+03  0.74397245577E+03  0.91418436770E+02 0.  0.
          2    1    3    3  502    0 -0.62692263699E+03  0.48536142597E+03  0.12712209643E+04  0.14982024051E+04  0.00000000000E+00 0. -1.
         -1    1    3    3    0  502 -0.65961216206E+02  0.76727678176E+02  0.20388471537E+03  0.22761150191E+03  0.00000000000E+00 0.  1.
         13    1    5    5    0    0  0.14335331526E+02 -0.40952272450E+03 -0.38546091315E+03  0.56257842047E+03  0.00000000000E+00 0. -1.
        -13    1    5    5    0    0  0.25843410048E+01 -0.57929836950E+02 -0.15264217931E+02  0.59962831625E+02  0.00000000000E+00 0.  1.
          1    1    6    6  503    0  0.51108104894E+03 -0.10348189645E+03 -0.23809181805E+03  0.57323647416E+03  0.00000000000E+00 0. -1.
         -1    1    6    6    0  503  0.16488313172E+03  0.88453537529E+01 -0.43429114764E+02  0.17073598162E+03  0.00000000000E+00 0.  1.
<mgrwt>
<rscale>  0 0.29889570E+04</rscale>
<asrwt>0</asrwt>
<pdfrwt beam="1">  1        2 0.29886056E+00 0.29889570E+04</pdfrwt>
<pdfrwt beam="2">  1       -1 0.17688215E+00 0.29889570E+04</pdfrwt>
<totfact> 0.15362983E+00</totfact>
</mgrwt>
</event>
<event>
12    7  0.1661464E-007  0.1417908E+04  0.7818608E-02  0.8940957E-01
          2   -1    0    0  501    0  0.00000000000E+00  0.00000000000E+00  0.27549900695E+04  0.27549900695E+04  0.00000000000E+00 0. -1.
         -1   -1    0    0    0  501 -0.00000000000E+00 -0.00000000000E+00 -0.18243832241E+03  0.18243832241E+03  0.00000000000E+00 0.  1.
         24    2    1    2    0    0  0.11844567255E+03  0.31452209280E+03  0.12919184129E+04  0.13373202911E+04  0.80117733235E+02 0.  0.
        254    2    1    2    0    0 -0.11844567255E+03 -0.31452209280E+03  0.12806333342E+04  0.16001081008E+04  0.89853807567E+03 0.  0.
         23    2    4    4    0    0  0.35347790483E+03 -0.28536996872E+03  0.75440767247E+03  0.88653950307E+03  0.10216998572E+03 0.  0.
         23    2    4    4    0    0 -0.47192357737E+03 -0.29152124080E+02  0.52622566170E+03  0.71356859772E+03  0.93300521972E+02 0.  0.
          4    1    3    3  502    0  0.12457164184E+03  0.30585196751E+03  0.11940596903E+04  0.12388874299E+04  0.00000000000E+00 0. -1.
         -3    1    3    3    0  502 -0.61259692993E+01  0.86701252856E+01  0.97858722623E+02  0.98432861209E+02  0.00000000000E+00 0.  1.
         13    1    5    5    0    0  0.66878316316E+02 -0.20701881554E+02  0.17038146748E+03  0.18420402154E+03  0.00000000000E+00 0.  1.
        -13    1    5    5    0    0  0.28659958851E+03 -0.26466808716E+03  0.58402620499E+03  0.70233548153E+03  0.00000000000E+00 0. -1.
          3    1    6    6  503    0 -0.30644790398E+03 -0.22461757087E+02  0.27318449199E+03  0.41115035577E+03  0.00000000000E+00 0. -1.
         -3    1    6    6    0  503 -0.16547567339E+03 -0.66903669927E+01  0.25304116971E+03  0.30241824195E+03  0.00000000000E+00 0.  1.
<mgrwt>
<rscale>  0 0.14179080E+04</rscale>
<asrwt>0</asrwt>
<pdfrwt beam="1">  1        2 0.42384459E+00 0.14179080E+04</pdfrwt>
<pdfrwt beam="2">  1       -1 0.28067436E-01 0.14179080E+04</pdfrwt>
<totfact> 0.31429085E+01</totfact>
</mgrwt>
</event>
<event>
12    7  0.1661464E-007  0.1600905E+04  0.7818608E-02  0.8819992E-01
          2   -1    0    0  501    0  0.00000000000E+00  0.00000000000E+00  0.11701682161E+04  0.11701682161E+04  0.00000000000E+00 0. -1.
         -1   -1    0    0    0  501 -0.00000000000E+00 -0.00000000000E+00 -0.54754912174E+03  0.54754912174E+03  0.00000000000E+00 0.  1.
         24    2    1    2    0    0 -0.13182833196E+03  0.21300618037E+03  0.74197036244E+03  0.78677900379E+03  0.75834293635E+02 0.  0.
        254    2    1    2    0    0  0.13182833196E+03 -0.21300618037E+03 -0.11935126811E+03  0.93093833402E+03  0.88862315667E+03 0.  0.
         23    2    4    4    0    0  0.32839286419E+03 -0.21185215067E+03 -0.40563497880E+03  0.57167423036E+03  0.97716337594E+02 0.  0.
         23    2    4    4    0    0 -0.19656453223E+03 -0.11540297003E+01  0.28628371069E+03  0.35926410367E+03  0.92050997059E+02 0.  0.
          4    1    3    3  502    0 -0.71441985019E+02  0.61153044908E+02  0.34246427052E+03  0.35514142071E+03  0.00000000000E+00 0. -1.
         -3    1    3    3    0  502 -0.60386346942E+02  0.15185313546E+03  0.39950609192E+03  0.43163758308E+03  0.00000000000E+00 0.  1.
         13    1    5    5    0    0 -0.57746004813E+00 -0.23351656205E+02 -0.29184072323E+02  0.37381056499E+02  0.00000000000E+00 0.  1.
        -13    1    5    5    0    0  0.32897032424E+03 -0.18850049446E+03 -0.37645090648E+03  0.53429317386E+03  0.00000000000E+00 0. -1.
          3    1    6    6  503    0 -0.17500703542E+03 -0.14872144373E+02  0.28358447757E+03  0.33356978137E+03  0.00000000000E+00 0. -1.
         -3    1    6    6    0  503 -0.21557496804E+02  0.13718114673E+02  0.26992331230E+01  0.25694322293E+02  0.00000000000E+00 0.  1.
<mgrwt>
<rscale>  0 0.16009055E+04</rscale>
<asrwt>0</asrwt>
<pdfrwt beam="1">  1        2 0.18002588E+00 0.16009055E+04</pdfrwt>
<pdfrwt beam="2">  1       -1 0.84238327E-01 0.16009055E+04</pdfrwt>
<totfact> 0.30137234E+01</totfact>
</mgrwt>
</event>
<event>
12    7  0.1661464E-007  0.1744436E+04  0.7818608E-02  0.8736419E-01
          2   -1    0    0  501    0  0.00000000000E+00  0.00000000000E+00  0.12885584216E+04  0.12885584216E+04  0.00000000000E+00 0. -1.
         -1   -1    0    0    0  501 -0.00000000000E+00 -0.00000000000E+00 -0.59039933015E+03  0.59039933015E+03  0.00000000000E+00 0.  1.
         24    2    1    2    0    0 -0.54595771714E+03 -0.48362762476E+02  0.66326872009E+03  0.86412308146E+03  0.79840585932E+02 0.  0.
        254    2    1    2    0    0  0.54595771714E+03  0.48362762476E+02  0.34890371385E+02  0.10148346703E+04  0.85338343338E+03 0.  0.
         23    2    4    4    0    0  0.36651482208E+03 -0.22934939414E+03 -0.30074912718E+03  0.53481748323E+03  0.92980876927E+02 0.  0.
         23    2    4    4    0    0  0.17944289506E+03  0.27771215662E+03  0.33563949856E+03  0.48001718709E+03  0.91863117633E+02 0.  0.
          4    1    3    3  502    0 -0.45515686959E+03 -0.19478789781E+02  0.58041567054E+03  0.73785469423E+03  0.00000000000E+00 0. -1.
         -3    1    3    3    0  502 -0.90800847544E+02 -0.28883972694E+02  0.82853049553E+02  0.12626838723E+03  0.00000000000E+00 0.  1.
         13    1    5    5    0    0  0.26317931743E+03 -0.16321106587E+03 -0.26346290149E+03  0.40658812772E+03  0.00000000000E+00 0. -1.
        -13    1    5    5    0    0  0.10333550465E+03 -0.66138328273E+02 -0.37286225690E+02  0.12822935551E+03  0.00000000000E+00 0.  1.
          4    1    6    6  503    0  0.15731267544E+03  0.16459842548E+03  0.21458037132E+03  0.31286523502E+03  0.00000000000E+00 0. -1.
         -4    1    6    6    0  503  0.22130219620E+02  0.11311373114E+03  0.12105912724E+03  0.16715195207E+03  0.00000000000E+00 0.  1.
<mgrwt>
<rscale>  0 0.17444358E+04</rscale>
<asrwt>0</asrwt>
<pdfrwt beam="1">  1        2 0.19823976E+00 0.17444358E+04</pdfrwt>
<pdfrwt beam="2">  1       -1 0.90830667E-01 0.17444358E+04</pdfrwt>
<totfact> 0.21482006E+01</totfact>
</mgrwt>
</event>
<event>
12    7  0.1661464E-007  0.1259885E+04  0.7818608E-02  0.9061996E-01
          2   -1    0    0  501    0  0.00000000000E+00  0.00000000000E+00  0.14750290808E+04  0.14750290808E+04  0.00000000000E+00 0. -1.
         -1   -1    0    0    0  501 -0.00000000000E+00 -0.00000000000E+00 -0.26903025424E+03  0.26903025424E+03  0.00000000000E+00 0.  1.
         24    2    1    2    0    0 -0.86451485750E+02  0.13566935775E+03  0.65615135063E+03  0.68039605469E+03  0.80772286568E+02 0.  0.
        254    2    1    2    0    0  0.86451485750E+02 -0.13566935775E+03  0.54984747592E+03  0.10636632803E+04  0.89619601269E+03 0.  0.
         23    2    4    4    0    0 -0.25258734679E+03  0.23730126775E+03  0.77863506907E+02  0.36655298814E+03  0.90477112955E+02 0.  0.
         23    2    4    4    0    0  0.33903883254E+03 -0.37297062551E+03  0.47198396901E+03  0.69711029221E+03  0.95600601672E+02 0.  0.
          2    1    3    3  502    0 -0.45996522306E+02  0.97018733067E+02  0.55020263944E+03  0.56058117974E+03  0.00000000000E+00 0. -1.
         -1    1    3    3    0  502 -0.40454963445E+02  0.38650624688E+02  0.10594871119E+03  0.11981487495E+03  0.00000000000E+00 0.  1.
         13    1    5    5    0    0  0.30673554707E+01  0.19687828158E+01 -0.78543033974E+01  0.86588022970E+01  0.00000000000E+00 0.  1.
        -13    1    5    5    0    0 -0.25565470226E+03  0.23533248493E+03  0.85717810304E+02  0.35789418584E+03  0.00000000000E+00 0. -1.
          1    1    6    6  503    0  0.24219238384E+03 -0.32203869634E+03  0.35640066487E+03  0.53794749432E+03  0.00000000000E+00 0. -1.
         -1    1    6    6    0  503  0.96846448701E+02 -0.50931929169E+02  0.11558330415E+03  0.15916279789E+03  0.00000000000E+00 0.  1.
<mgrwt>
<rscale>  0 0.12598848E+04</rscale>
<asrwt>0</asrwt>
<pdfrwt beam="1">  1        2 0.22692755E+00 0.12598848E+04</pdfrwt>
<pdfrwt beam="2">  1       -1 0.41389271E-01 0.12598848E+04</pdfrwt>
<totfact> 0.83980212E+01</totfact>
</mgrwt>
</event>
<event>
12    7  0.1661464E-007  0.1691605E+04  0.7818608E-02  0.8766167E-01
         -1   -1    0    0    0  501 -0.00000000000E+00  0.00000000000E+00  0.57539802863E+03  0.57539802863E+03  0.00000000000E+00 0.  1.
          2   -1    0    0  501    0  0.00000000000E+00 -0.00000000000E+00 -0.12432820724E+04  0.12432820724E+04  0.00000000000E+00 0. -1.
         24    2    1    2    0    0  0.19986651005E+02 -0.41276591624E+03  0.23177048509E+03  0.48043607680E+03  0.79536773321E+02 0.  0.
        254    2    1    2    0    0 -0.19986651005E+02  0.41276591624E+03 -0.89965452882E+03  0.13382440242E+04  0.90041303256E+03 0.  0.
         23    2    4    4    0    0  0.71402141311E+02  0.64476761358E+03 -0.84554216874E+03  0.10691403983E+04  0.85417157568E+02 0.  0.
         23    2    4    4    0    0 -0.91388792316E+02 -0.23200169735E+03 -0.54112360084E+02  0.26910362590E+03  0.85509736453E+02 0.  0.
          2    1    3    3  502    0  0.27549878802E+02 -0.91153904285E+02  0.26575403951E+02  0.98864969446E+02  0.00000000000E+00 0. -1.
         -1    1    3    3    0  502 -0.75632277972E+01 -0.32161201195E+03  0.20519508114E+03  0.38157110736E+03  0.00000000000E+00 0.  1.
         13    1    5    5    0    0  0.63092461403E+02  0.42655440830E+03 -0.49853879185E+03  0.65914357230E+03  0.00000000000E+00 0.  1.
        -13    1    5    5    0    0  0.83096799076E+01  0.21821320528E+03 -0.34700337689E+03  0.40999682598E+03  0.00000000000E+00 0. -1.
          3    1    6    6  503    0 -0.38291029201E+02 -0.19465623270E+03 -0.46315383062E+02  0.20372129627E+03  0.00000000000E+00 0. -1.
         -3    1    6    6    0  503 -0.53097763115E+02 -0.37345464645E+02 -0.77969770228E+01  0.65382329632E+02  0.00000000000E+00 0.  1.
<mgrwt>
<rscale>  0 0.16916052E+04</rscale>
<asrwt>0</asrwt>
<pdfrwt beam="1">  1        2 0.19127417E+00 0.16916052E+04</pdfrwt>
<pdfrwt beam="2">  1       -1 0.88522774E-01 0.16916052E+04</pdfrwt>
<totfact> 0.24280453E+01</totfact>
</mgrwt>
</event>
<event>
12    7  0.1661464E-007  0.1647230E+04  0.7818608E-02  0.8792047E-01
          2   -1    0    0  501    0  0.00000000000E+00  0.00000000000E+00  0.10607678633E+04  0.10607678633E+04  0.00000000000E+00 0. -1.
         -1   -1    0    0    0  501 -0.00000000000E+00 -0.00000000000E+00 -0.63948206255E+03  0.63948206255E+03  0.00000000000E+00 0.  1.
         24    2    1    2    0    0  0.42285171675E+03  0.25858908010E+03  0.44751173546E+03  0.67171461993E+03  0.72538889916E+02 0.  0.
        254    2    1    2    0    0 -0.42285171675E+03 -0.25858908010E+03 -0.26225934693E+02  0.10285353059E+04  0.90084692884E+03 0.  0.
         23    2    4    4    0    0 -0.28624460020E+03 -0.58644972326E+03 -0.50733882178E+02  0.66087330300E+03  0.91215934824E+02 0.  0.
         23    2    4    4    0    0 -0.13660711655E+03  0.32786064316E+03  0.24507947485E+02  0.36766200293E+03  0.91763845211E+02 0.  0.
          2    1    3    3  502    0  0.28040468065E+03  0.15511074531E+03  0.33031210484E+03  0.46020888176E+03  0.00000000000E+00 0. -1.
         -1    1    3    3    0  502  0.14244703609E+03  0.10347833479E+03  0.11719963062E+03  0.21150573817E+03  0.00000000000E+00 0.  1.
         13    1    5    5    0    0 -0.24075007585E+02 -0.51815357969E+02  0.21513296863E+02  0.61051283800E+02  0.00000000000E+00 0.  1.
        -13    1    5    5    0    0 -0.26216959261E+03 -0.53463436529E+03 -0.72247179041E+02  0.59982201920E+03  0.00000000000E+00 0. -1.
          1    1    6    6  503    0 -0.95048997165E+02  0.28742157534E+03  0.45218003758E+02  0.30608845404E+03  0.00000000000E+00 0. -1.
         -1    1    6    6    0  503 -0.41558119383E+02  0.40439067822E+02 -0.20710056273E+02  0.61573548897E+02  0.00000000000E+00 0.  1.
<mgrwt>
<rscale>  0 0.16472304E+04</rscale>
<asrwt>0</asrwt>
<pdfrwt beam="1">  1        2 0.16319506E+00 0.16472304E+04</pdfrwt>
<pdfrwt beam="2">  1       -1 0.98381856E-01 0.16472304E+04</pdfrwt>
<totfact> 0.24853976E+01</totfact>
</mgrwt>
</event>
<event>
12    7  0.1661464E-007  0.3528769E+04  0.7818608E-02  0.8107006E-01
          2   -1    0    0  501    0  0.00000000000E+00  0.00000000000E+00  0.27268566377E+04  0.27268566377E+04  0.00000000000E+00 0. -1.
         -1   -1    0    0    0  501 -0.00000000000E+00 -0.00000000000E+00 -0.11416270702E+04  0.11416270702E+04  0.00000000000E+00 0.  1.
         24    2    1    2    0    0 -0.42848847038E+03  0.56462641805E+03 -0.88538197673E+03  0.11369330927E+04  0.79437090037E+02 0.  0.
        254    2    1    2    0    0  0.42848847038E+03 -0.56462641805E+03  0.24706115442E+04  0.27315506152E+04  0.92468481109E+03 0.  0.
         23    2    4    4    0    0 -0.81721790295E+02  0.20454968280E+03  0.49535793580E+03  0.54977245878E+03  0.91385163670E+02 0.  0.
         23    2    4    4    0    0  0.51021026068E+03 -0.76917610085E+03  0.19752536084E+04  0.21817781565E+04  0.81133976215E+02 0.  0.
          4    1    3    3  502    0 -0.84661969584E+02  0.16942916050E+03 -0.23255971994E+03  0.29992984656E+03  0.00000000000E+00 0. -1.
         -1    1    3    3    0  502 -0.34382650080E+03  0.39519725755E+03 -0.65282225679E+03  0.83700324610E+03  0.00000000000E+00 0.  1.
         13    1    5    5    0    0 -0.28703632025E+02  0.28589884284E+02  0.18241115545E+03  0.18685585248E+03  0.00000000000E+00 0. -1.
        -13    1    5    5    0    0 -0.53018158270E+02  0.17595979852E+03  0.31294678035E+03  0.36291660630E+03  0.00000000000E+00 0.  1.
          1    1    6    6  503    0  0.12663294147E+03 -0.25857684770E+03  0.62086104274E+03  0.68437294104E+03  0.00000000000E+00 0. -1.
         -1    1    6    6    0  503  0.38357731921E+03 -0.51059925314E+03  0.13543925657E+04  0.14974052154E+04  0.00000000000E+00 0.  1.
<mgrwt>
<rscale>  0 0.35287694E+04</rscale>
<asrwt>0</asrwt>
<pdfrwt beam="1">  1        2 0.41951641E+00 0.35287694E+04</pdfrwt>
<pdfrwt beam="2">  1       -1 0.17563493E+00 0.35287694E+04</pdfrwt>
<totfact> 0.53320643E-01</totfact>
</mgrwt>
</event>
<event>
12    7  0.1661464E-007  0.1218927E+04  0.7818608E-02  0.9096449E-01
          2   -1    0    0  501    0  0.00000000000E+00  0.00000000000E+00  0.18597922364E+04  0.18597922364E+04  0.00000000000E+00 0. -1.
         -1   -1    0    0    0  501 -0.00000000000E+00 -0.00000000000E+00 -0.19972432006E+03  0.19972432006E+03  0.00000000000E+00 0.  1.
         24    2    1    2    0    0  0.51049005878E+02 -0.16221836656E+03  0.74977571848E+03  0.77154576672E+03  0.64795390743E+02 0.  0.
        254    2    1    2    0    0 -0.51049005878E+02  0.16221836656E+03  0.91029219786E+03  0.12879707897E+04  0.89516259433E+03 0.  0.
         23    2    4    4    0    0 -0.24591541807E+03 -0.27535543254E+03  0.20853212814E+03  0.43339405229E+03  0.89720393570E+02 0.  0.
         23    2    4    4    0    0  0.19486641219E+03  0.43757379910E+03  0.70176006972E+03  0.85457673745E+03  0.91599434918E+02 0.  0.
          4    1    3    3  502    0  0.66173504959E+02 -0.14207218326E+03  0.65303395623E+03  0.67157783317E+03  0.00000000000E+00 0. -1.
         -3    1    3    3    0  502 -0.15124499081E+02 -0.20146183306E+02  0.96741762251E+02  0.99967933547E+02  0.00000000000E+00 0.  1.
         13    1    5    5    0    0 -0.50172228558E+02 -0.11975659526E+03  0.68581017539E+02  0.14684090231E+03  0.00000000000E+00 0.  1.
        -13    1    5    5    0    0 -0.19574318951E+03 -0.15559883728E+03  0.13995111060E+03  0.28655314998E+03  0.00000000000E+00 0. -1.
          1    1    6    6  503    0  0.15782612879E+03  0.24472335990E+03  0.41038910103E+03  0.50320753577E+03  0.00000000000E+00 0. -1.
         -1    1    6    6    0  503  0.37040283395E+02  0.19285043920E+03  0.29137096869E+03  0.35136920168E+03  0.00000000000E+00 0.  1.
<mgrwt>
<rscale>  0 0.12189270E+04</rscale>
<asrwt>0</asrwt>
<pdfrwt beam="1">  1        2 0.28612187E+00 0.12189270E+04</pdfrwt>
<pdfrwt beam="2">  1       -1 0.30726820E-01 0.12189270E+04</pdfrwt>
<totfact> 0.87840124E+01</totfact>
</mgrwt>
</event>
<event>
12    7  0.1661464E-007  0.2522476E+04  0.7818608E-02  0.8395022E-01
         -1   -1    0    0    0  501 -0.00000000000E+00  0.00000000000E+00  0.79866245094E+03  0.79866245094E+03  0.00000000000E+00 0.  1.
          2   -1    0    0  501    0  0.00000000000E+00 -0.00000000000E+00 -0.19917311222E+04  0.19917311222E+04  0.00000000000E+00 0. -1.
         24    2    1    2    0    0 -0.21634563107E+03 -0.23370224501E+03 -0.16810723036E+04  0.17129321336E+04  0.81916011099E+02 0.  0.
        254    2    1    2    0    0  0.21634563107E+03  0.23370224501E+03  0.48800363237E+03  0.10774614396E+04  0.90628551633E+03 0.  0.
         23    2    4    4    0    0  0.31822251866E+03  0.51501470823E+03  0.17713398843E+03  0.63659172046E+03  0.85830342042E+02 0.  0.
         23    2    4    4    0    0 -0.10187688760E+03 -0.28131246322E+03  0.31086964394E+03  0.44086971910E+03  0.90612203912E+02 0.  0.
          2    1    3    3  502    0 -0.22166769319E+03 -0.21985468058E+03 -0.15583671396E+04  0.15893334416E+04  0.00000000000E+00 0. -1.
         -1    1    3    3    0  502  0.53220621220E+01 -0.13847564435E+02 -0.12270516405E+03  0.12359869202E+03  0.00000000000E+00 0.  1.
         13    1    5    5    0    0  0.29544346766E+03  0.50670361622E+03  0.17572579266E+03  0.61230298994E+03  0.00000000000E+00 0. -1.
        -13    1    5    5    0    0  0.22779050999E+02  0.83110920088E+01  0.14081957628E+01  0.24288730517E+02  0.00000000000E+00 0.  1.
          3    1    6    6  503    0 -0.10831714508E+03 -0.25914587162E+03  0.25092092947E+03  0.37663045488E+03  0.00000000000E+00 0. -1.
         -3    1    6    6    0  503  0.64402574867E+01 -0.22166591603E+02  0.59948714475E+02  0.64239264216E+02  0.00000000000E+00 0.  1.
<mgrwt>
<rscale>  0 0.25224757E+04</rscale>
<asrwt>0</asrwt>
<pdfrwt beam="1">  1        2 0.30642017E+00 0.25224757E+04</pdfrwt>
<pdfrwt beam="2">  1       -1 0.12287115E+00 0.25224757E+04</pdfrwt>
<totfact> 0.39945501E+00</totfact>
</mgrwt>
</event>
<event>
12    7  0.1661464E-007  0.1325697E+04  0.7818608E-02  0.9009432E-01
          4   -1    0    0  501    0  0.00000000000E+00  0.00000000000E+00  0.16672099000E+04  0.16672099000E+04  0.00000000000E+00 0. -1.
         -3   -1    0    0    0  501 -0.00000000000E+00 -0.00000000000E+00 -0.26353485612E+03  0.26353485612E+03  0.00000000000E+00 0.  1.
         24    2    1    2    0    0  0.18602562081E+02  0.25054461716E+03  0.24256749371E+02  0.26031118060E+03  0.63677785381E+02 0.  0.
        254    2    1    2    0    0 -0.18602562081E+02 -0.25054461716E+03  0.13794182945E+04  0.16704335755E+04  0.90798394174E+03 0.  0.
         23    2    4    4    0    0 -0.41800444753E+03 -0.13600529299E+03  0.39435565736E+03  0.59749842919E+03  0.90900112815E+02 0.  0.
         23    2    4    4    0    0  0.39940188545E+03 -0.11453932417E+03  0.98506263713E+03  0.10729351463E+04  0.90555542222E+02 0.  0.
          4    1    3    3  502    0  0.17242756596E+01  0.52811942183E+02  0.31881413399E+02  0.61713036580E+02  0.00000000000E+00 0. -1.
         -3    1    3    3    0  502  0.16878286421E+02  0.19773267498E+03 -0.76246640280E+01  0.19859814402E+03  0.00000000000E+00 0.  1.
         13    1    5    5    0    0 -0.19571002355E+03 -0.21055522936E+02  0.20018409356E+03  0.28074796469E+03  0.00000000000E+00 0. -1.
        -13    1    5    5    0    0 -0.22229442398E+03 -0.11494977005E+03  0.19417156380E+03  0.31675046449E+03  0.00000000000E+00 0.  1.
          4    1    6    6  503    0  0.12465835317E+03 -0.77101357715E+02  0.30030234799E+03  0.33416436761E+03  0.00000000000E+00 0. -1.
         -4    1    6    6    0  503  0.27474353229E+03 -0.37437966458E+02  0.68476028914E+03  0.73877077870E+03  0.00000000000E+00 0.  1.
<mgrwt>
<rscale>  0 0.13256967E+04</rscale>
<asrwt>0</asrwt>
<pdfrwt beam="1">  1        4 0.25649382E+00 0.13256967E+04</pdfrwt>
<pdfrwt beam="2">  1       -3 0.40543825E-01 0.13256967E+04</pdfrwt>
<totfact> 0.78222271E-01</totfact>
</mgrwt>
</event>
<event>
12    7  0.1661464E-007  0.2206421E+04  0.7818608E-02  0.8515760E-01
          2   -1    0    0  501    0  0.00000000000E+00  0.00000000000E+00  0.36505274146E+04  0.36505274146E+04  0.00000000000E+00 0. -1.
         -1   -1    0    0    0  501 -0.00000000000E+00 -0.00000000000E+00 -0.33339665731E+03  0.33339665731E+03  0.00000000000E+00 0.  1.
         24    2    1    2    0    0  0.84193715404E+03  0.35584429519E+02  0.72957680174E+03  0.11173613329E+04  0.78035989190E+02 0.  0.
        254    2    1    2    0    0 -0.84193715404E+03 -0.35584429519E+02  0.25875539555E+04  0.28665627390E+04  0.90090068311E+03 0.  0.
         23    2    4    4    0    0 -0.41540742568E+03  0.14597146673E+03  0.22260875718E+04  0.22713807572E+04  0.99164854171E+02 0.  0.
         23    2    4    4    0    0 -0.42652972837E+03 -0.18155589625E+03  0.36146638373E+03  0.59518198182E+03  0.93238898970E+02 0.  0.
          4    1    3    3  502    0  0.16499151695E+03 -0.13695559713E+02  0.11359832704E+03  0.20078433437E+03  0.00000000000E+00 0. -1.
         -3    1    3    3    0  502  0.67694563710E+03  0.49279989232E+02  0.61597847470E+03  0.91657699852E+03  0.00000000000E+00 0.  1.
         13    1    5    5    0    0 -0.76020507815E+02  0.88566315058E+01  0.58382172226E+03  0.58881691629E+03  0.00000000000E+00 0. -1.
        -13    1    5    5    0    0 -0.33938691786E+03  0.13711483522E+03  0.16422658496E+04  0.16825638409E+04  0.00000000000E+00 0.  1.
          3    1    6    6  503    0 -0.31534715810E+03 -0.11874533159E+03  0.20989630111E+03  0.39698959825E+03  0.00000000000E+00 0. -1.
         -3    1    6    6    0  503 -0.11118257026E+03 -0.62810564654E+02  0.15157008262E+03  0.19819238357E+03  0.00000000000E+00 0.  1.
<mgrwt>
<rscale>  0 0.22064212E+04</rscale>
<asrwt>0</asrwt>
<pdfrwt beam="1">  1        2 0.56161957E+00 0.22064212E+04</pdfrwt>
<pdfrwt beam="2">  1       -1 0.51291796E-01 0.22064212E+04</pdfrwt>
<totfact> 0.25329423E+00</totfact>
</mgrwt>
</event>
<event>
12    7  0.1661464E-007  0.2238991E+04  0.7818608E-02  0.8502372E-01
         -3   -1    0    0    0  501 -0.00000000000E+00  0.00000000000E+00  0.71398501527E+03  0.71398501527E+03  0.00000000000E+00 0.  1.
          2   -1    0    0  501    0  0.00000000000E+00 -0.00000000000E+00 -0.17553167256E+04  0.17553167256E+04  0.00000000000E+00 0. -1.
         24    2    1    2    0    0 -0.73893991865E+03 -0.10991420794E+03  0.18612112713E+03  0.77405423545E+03  0.80034673584E+02 0.  0.
        254    2    1    2    0    0  0.73893991865E+03  0.10991420794E+03 -0.12274528375E+04  0.16952475055E+04  0.89950558641E+03 0.  0.
         23    2    4    4    0    0  0.66362635186E+03  0.24242779354E+03 -0.13169087281E+04  0.14971609131E+04  0.89838920755E+02 0.  0.
         23    2    4    4    0    0  0.75313566795E+02 -0.13251358560E+03  0.89455890599E+02  0.19808659233E+03  0.89464842183E+02 0.  0.
          4    1    3    3  502    0 -0.24919862492E+03 -0.75197488792E+02  0.69776045550E+02  0.26948713052E+03  0.00000000000E+00 0. -1.
         -3    1    3    3    0  502 -0.48974129373E+03 -0.34716719145E+02  0.11634508158E+03  0.50456710494E+03  0.00000000000E+00 0.  1.
         13    1    5    5    0    0  0.19452507682E+03  0.65777331037E+02 -0.30177489560E+03  0.36501335647E+03  0.00000000000E+00 0. -1.
        -13    1    5    5    0    0  0.46910127504E+03  0.17665046250E+03 -0.10151338325E+04  0.11321475566E+04  0.00000000000E+00 0.  1.
          3    1    6    6  503    0  0.53596882787E+02 -0.10262375956E+03  0.10658050057E+03  0.15736475136E+03  0.00000000000E+00 0. -1.
         -3    1    6    6    0  503  0.21716684008E+02 -0.29889826046E+02 -0.17124609971E+02  0.40721840970E+02  0.00000000000E+00 0.  1.
<mgrwt>
<rscale>  0 0.22389907E+04</rscale>
<asrwt>0</asrwt>
<pdfrwt beam="1">  1        2 0.27004873E+00 0.22389907E+04</pdfrwt>
<pdfrwt beam="2">  1       -3 0.10984385E+00 0.22389907E+04</pdfrwt>
<totfact> 0.37072208E+00</totfact>
</mgrwt>
</event>
<event>
12    7  0.1661464E-007  0.1609206E+04  0.7818608E-02  0.8814912E-01
          2   -1    0    0  501    0  0.00000000000E+00  0.00000000000E+00  0.72947151920E+03  0.72947151920E+03  0.00000000000E+00 0. -1.
         -1   -1    0    0    0  501 -0.00000000000E+00 -0.00000000000E+00 -0.88747300325E+03  0.88747300325E+03  0.00000000000E+00 0.  1.
         24    2    1    2    0    0 -0.27064013690E+03 -0.44271458869E+03 -0.23683885139E+03  0.57677942132E+03  0.85671282151E+02 0.  0.
        254    2    1    2    0    0  0.27064013690E+03  0.44271458869E+03  0.78837367344E+02  0.10401651011E+04  0.89804555363E+03 0.  0.
         23    2    4    4    0    0  0.50799443614E+03  0.42476193943E+03  0.27051988137E+03  0.72108258477E+03  0.91093553602E+02 0.  0.
         23    2    4    4    0    0 -0.23735429924E+03  0.17952649263E+02 -0.19168251403E+03  0.31908251637E+03  0.91717528772E+02 0.  0.
          2    1    3    3  502    0 -0.18299648667E+01 -0.47616440579E+02 -0.27980890863E+02  0.55259428502E+02  0.00000000000E+00 0. -1.
         -1    1    3    3    0  502 -0.26881017204E+03 -0.39509814811E+03 -0.20885796052E+03  0.52151999281E+03  0.00000000000E+00 0.  1.
         13    1    5    5    0    0  0.34959804798E+03  0.23967365875E+03  0.19006078580E+03  0.46452702843E+03  0.00000000000E+00 0.  1.
        -13    1    5    5    0    0  0.15839638816E+03  0.18508828067E+03  0.80459095575E+02  0.25655555634E+03  0.00000000000E+00 0. -1.
          4    1    6    6  503    0 -0.17627749993E+02  0.22316913389E+02 -0.15503202943E+01  0.28481321705E+02  0.00000000000E+00 0.  1.
         -4    1    6    6    0  503 -0.21972654925E+03 -0.43642641269E+01 -0.19013219373E+03  0.29060119466E+03  0.00000000000E+00 0. -1.
<mgrwt>
<rscale>  0 0.16092064E+04</rscale>
<asrwt>0</asrwt>
<pdfrwt beam="1">  1        2 0.11222639E+00 0.16092064E+04</pdfrwt>
<pdfrwt beam="2">  1       -1 0.13653431E+00 0.16092064E+04</pdfrwt>
<totfact> 0.19034758E+01</totfact>
</mgrwt>
</event>
<event>
12    7  0.1661464E-007  0.3588589E+04  0.7818608E-02  0.8093111E-01
         -1   -1    0    0    0  501 -0.00000000000E+00  0.00000000000E+00  0.13520747701E+04  0.13520747701E+04  0.00000000000E+00 0.  1.
          2   -1    0    0  501    0  0.00000000000E+00 -0.00000000000E+00 -0.23811493591E+04  0.23811493591E+04  0.00000000000E+00 0. -1.
         24    2    1    2    0    0  0.73285360803E+03 -0.63034472089E+03  0.94706526034E+03  0.13555329912E+04  0.78282851640E+02 0.  0.
        254    2    1    2    0    0 -0.73285360803E+03  0.63034472089E+03 -0.19761398494E+04  0.23776911380E+04  0.90215163122E+03 0.  0.
         23    2    4    4    0    0 -0.35401917135E+03  0.66827820070E+03 -0.17877473525E+04  0.19432890599E+04  0.91686677475E+02 0.  0.
         23    2    4    4    0    0 -0.37883443668E+03 -0.37933479801E+02 -0.18839249689E+03  0.43440207814E+03  0.90878783584E+02 0.  0.
          4    1    3    3  502    0  0.16755034952E+02 -0.89691698197E+01  0.35638414347E+02  0.40389030450E+02  0.00000000000E+00 0. -1.
         -3    1    3    3    0  502  0.71609857308E+03 -0.62137555107E+03  0.91142684600E+03  0.13151439607E+04  0.00000000000E+00 0.  1.
         13    1    5    5    0    0 -0.35490683857E+03  0.64829612088E+03 -0.17616550722E+04  0.19104123423E+04  0.00000000000E+00 0.  1.
        -13    1    5    5    0    0  0.88766721633E+00  0.19982079820E+02 -0.26092280326E+02  0.32876717592E+02  0.00000000000E+00 0. -1.
          3    1    6    6  503    0 -0.13411454213E+03  0.27397760742E+02 -0.82833061341E+02  0.15999582419E+03  0.00000000000E+00 0. -1.
         -3    1    6    6    0  503 -0.24471989455E+03 -0.65331240544E+02 -0.10555943555E+03  0.27440625396E+03  0.00000000000E+00 0.  1.
<mgrwt>
<rscale>  0 0.35885886E+04</rscale>
<asrwt>0</asrwt>
<pdfrwt beam="1">  1        2 0.36633067E+00 0.35885886E+04</pdfrwt>
<pdfrwt beam="2">  1       -1 0.20801151E+00 0.35885886E+04</pdfrwt>
<totfact> 0.50120074E-01</totfact>
</mgrwt>
</event>
<event>
12    7  0.1661464E-007  0.1579816E+04  0.7818608E-02  0.8833044E-01
          2   -1    0    0  501    0  0.00000000000E+00  0.00000000000E+00  0.45467790903E+04  0.45467790903E+04  0.00000000000E+00 0. -1.
         -1   -1    0    0    0  501 -0.00000000000E+00 -0.00000000000E+00 -0.13723010846E+03  0.13723010846E+03  0.00000000000E+00 0.  1.
         24    2    1    2    0    0 -0.50787905771E+03  0.21782706433E+03  0.20212837997E+04  0.20970037333E+04  0.80291290863E+02 0.  0.
        254    2    1    2    0    0  0.50787905771E+03 -0.21782706433E+03  0.23882651821E+04  0.25870054654E+04  0.82667825106E+03 0.  0.
         23    2    4    4    0    0  0.35876530983E+03 -0.18857501049E+03  0.23662664424E+04  0.24026016603E+04  0.94893517137E+02 0.  0.
         23    2    4    4    0    0  0.14911374788E+03 -0.29252053836E+02  0.21998739775E+02  0.18440380516E+03  0.10212847960E+03 0.  0.
          2    1    3    3  502    0 -0.33519087841E+03  0.12653621148E+03  0.14343471119E+04  0.14784167123E+04  0.00000000000E+00 0. -1.
         -1    1    3    3    0  502 -0.17268817931E+03  0.91290852851E+02  0.58693668780E+03  0.61858702102E+03  0.00000000000E+00 0.  1.
         13    1    5    5    0    0  0.10092249653E+03 -0.78398969515E+02  0.53873964990E+03  0.55368958732E+03  0.00000000000E+00 0. -1.
        -13    1    5    5    0    0  0.25784281330E+03 -0.11017604098E+03  0.18275267925E+04  0.18489120730E+04  0.00000000000E+00 0.  1.
          3    1    6    6  503    0  0.41995141117E+02 -0.27310386307E+02  0.52944984835E+02  0.72887725282E+02  0.00000000000E+00 0. -1.
         -3    1    6    6    0  503  0.10711860676E+03 -0.19416675286E+01 -0.30946245060E+02  0.11151607988E+03  0.00000000000E+00 0.  1.
<mgrwt>
<rscale>  0 0.15798164E+04</rscale>
<asrwt>0</asrwt>
<pdfrwt beam="1">  1        2 0.69950436E+00 0.15798164E+04</pdfrwt>
<pdfrwt beam="2">  1       -1 0.21112328E-01 0.15798164E+04</pdfrwt>
<totfact> 0.23347504E+00</totfact>
</mgrwt>
</event>
<event>
12    7  0.1661464E-007  0.1307312E+04  0.7818608E-02  0.9023787E-01
          2   -1    0    0  501    0  0.00000000000E+00  0.00000000000E+00  0.11860894322E+04  0.11860894322E+04  0.00000000000E+00 0. -1.
         -1   -1    0    0    0  501 -0.00000000000E+00 -0.00000000000E+00 -0.36023100123E+03  0.36023100123E+03  0.00000000000E+00 0.  1.
         24    2    1    2    0    0  0.31268878425E+03 -0.10602148504E+03  0.14080887295E+03  0.36775342781E+03  0.80003836645E+02 0.  0.
        254    2    1    2    0    0 -0.31268878425E+03  0.10602148504E+03  0.68504955804E+03  0.11785670057E+04  0.90039572342E+03 0.  0.
         23    2    4    4    0    0 -0.22393538336E+03 -0.62840598832E+02 -0.16694409278E+03  0.30065343290E+03  0.91794116491E+02 0.  0.
         23    2    4    4    0    0 -0.88753400895E+02  0.16886208387E+03  0.85199365082E+03  0.87791357275E+03  0.91910231383E+02 0.  0.
          4    1    3    3  502    0  0.30285151277E+03 -0.83036676042E+02  0.12398640690E+03  0.33761924923E+03  0.00000000000E+00 0. -1.
         -3    1    3    3    0  502  0.98372714854E+01 -0.22984808995E+02  0.16822466049E+02  0.30134178582E+02  0.00000000000E+00 0.  1.
         13    1    5    5    0    0 -0.51264357592E+02 -0.32407639117E+02 -0.31731722568E+01  0.60731856999E+02  0.00000000000E+00 0. -1.
        -13    1    5    5    0    0 -0.17267102576E+03 -0.30432959715E+02 -0.16377092052E+03  0.23992157591E+03  0.00000000000E+00 0.  1.
          2    1    6    6  503    0  0.14296540365E+02  0.53819114900E+02  0.18090875338E+03  0.18928514270E+03  0.00000000000E+00 0. -1.
         -2    1    6    6    0  503 -0.10304994126E+03  0.11504296897E+03  0.67108489744E+03  0.68862843005E+03  0.00000000000E+00 0.  1.
<mgrwt>
<rscale>  0 0.13073120E+04</rscale>
<asrwt>0</asrwt>
<pdfrwt beam="1">  1        2 0.18247530E+00 0.13073120E+04</pdfrwt>
<pdfrwt beam="2">  1       -1 0.55420155E-01 0.13073120E+04</pdfrwt>
<totfact> 0.70990985E+01</totfact>
</mgrwt>
</event>
<event>
12    7  0.3183057E-007  0.2505745E+04  0.7818608E-02  0.8400942E-01
          2   -1    0    0  501    0  0.00000000000E+00  0.00000000000E+00  0.14526552016E+04  0.14526552016E+04  0.00000000000E+00 0. -1.
         -1   -1    0    0    0  501 -0.00000000000E+00 -0.00000000000E+00 -0.10805660571E+04  0.10805660571E+04  0.00000000000E+00 0.  1.
         24    2    1    2    0    0  0.82223275122E+03 -0.24307444080E+02  0.88765597280E+03  0.12127590823E+04  0.78701439420E+02 0.  0.
        254    2    1    2    0    0 -0.82223275122E+03  0.24307444080E+02 -0.51556682835E+03  0.13204621764E+04  0.89507187191E+03 0.  0.
         23    2    4    4    0    0 -0.76832455091E+03 -0.28822176973E+03 -0.17072798445E+03  0.84326683346E+03  0.92501371146E+02 0.  0.
         23    2    4    4    0    0 -0.53908200311E+02  0.31252921381E+03 -0.34483884390E+03  0.47719534297E+03  0.90669529286E+02 0.  0.
          2    1    3    3  502    0  0.81212834058E+03 -0.33107675916E+02  0.87599509643E+03  0.11949962212E+04  0.00000000000E+00 0. -1.
         -1    1    3    3    0  502  0.10104410644E+02  0.88002318365E+01  0.11660876370E+02  0.17762861046E+02  0.00000000000E+00 0.  1.
         13    1    5    5    0    0 -0.33009233850E+03 -0.10515055040E+03 -0.29052653675E+02  0.34765161710E+03  0.00000000000E+00 0. -1.
        -13    1    5    5    0    0 -0.43823221242E+03 -0.18307121933E+03 -0.14167533077E+03  0.49561521637E+03  0.00000000000E+00 0.  1.
          2    1    6    6  503    0 -0.27542972617E+02  0.20950675292E+03 -0.28620402555E+03  0.35575896208E+03  0.00000000000E+00 0. -1.
         -2    1    6    6    0  503 -0.26365227693E+02  0.10302246090E+03 -0.58634818349E+02  0.12143638089E+03  0.00000000000E+00 0.  1.
<mgrwt>
<rscale>  0 0.25057453E+04</rscale>
<asrwt>0</asrwt>
<pdfrwt beam="1">  1        2 0.22348542E+00 0.25057453E+04</pdfrwt>
<pdfrwt beam="2">  1       -1 0.16624093E+00 0.25057453E+04</pdfrwt>
<totfact> 0.35973150E+00</totfact>
</mgrwt>
</event>
<event>
12    7  0.1661464E-007  0.1934076E+04  0.7818608E-02  0.8638078E-01
         -3   -1    0    0    0  501 -0.00000000000E+00  0.00000000000E+00  0.63029629934E+03  0.63029629934E+03  0.00000000000E+00 0.  1.
          4   -1    0    0  501    0  0.00000000000E+00 -0.00000000000E+00 -0.14836865040E+04  0.14836865040E+04  0.00000000000E+00 0. -1.
         24    2    1    2    0    0  0.24692359968E+02  0.71983231924E+03 -0.79604876755E+02  0.72911348811E+03  0.80630401640E+02 0.  0.
        254    2    1    2    0    0 -0.24692359968E+02 -0.71983231924E+03 -0.77378532788E+03  0.13848693152E+04  0.89462338786E+03 0.  0.
         23    2    4    4    0    0 -0.86218022946E+02  0.60961890456E+02 -0.54643490066E+03  0.56413804657E+03  0.92253646835E+02 0.  0.
         23    2    4    4    0    0  0.61525662979E+02 -0.78079420970E+03 -0.22735042722E+03  0.82073126864E+03  0.92122708744E+02 0.  0.
          2    1    3    3  502    0 -0.14412234666E+02  0.15224921394E+03  0.96141384164E+01  0.15323174381E+03  0.00000000000E+00 0. -1.
         -1    1    3    3    0  502  0.39104594633E+02  0.56758310530E+03 -0.89219015171E+02  0.57588174430E+03  0.00000000000E+00 0.  1.
         13    1    5    5    0    0 -0.92567745476E+02  0.73648153201E+02 -0.40296935604E+03  0.41997278469E+03  0.00000000000E+00 0. -1.
        -13    1    5    5    0    0  0.63497225295E+01 -0.12686262745E+02 -0.14346554462E+03  0.14416526188E+03  0.00000000000E+00 0.  1.
          3    1    6    6  503    0  0.58620079458E+02 -0.75263571748E+03 -0.19907900991E+03  0.78072356768E+03  0.00000000000E+00 0. -1.
         -3    1    6    6    0  503  0.29055835201E+01 -0.28158492215E+02 -0.28271417309E+02  0.40007700960E+02  0.00000000000E+00 0.  1.
<mgrwt>
<rscale>  0 0.19340756E+04</rscale>
<asrwt>0</asrwt>
<pdfrwt beam="1">  1        4 0.22825946E+00 0.19340756E+04</pdfrwt>
<pdfrwt beam="2">  1       -3 0.96968663E-01 0.19340756E+04</pdfrwt>
<totfact> 0.17305436E-01</totfact>
</mgrwt>
</event>
<event>
12    7  0.1661464E-007  0.1724645E+04  0.7818608E-02  0.8747432E-01
         -1   -1    0    0    0  501 -0.00000000000E+00  0.00000000000E+00  0.23752404338E+03  0.23752404338E+03  0.00000000000E+00 0.  1.
          2   -1    0    0  501    0  0.00000000000E+00 -0.00000000000E+00 -0.31306310145E+04  0.31306310145E+04  0.00000000000E+00 0. -1.
         24    2    1    2    0    0  0.37293459499E+03  0.39935953964E+03 -0.46836578436E+03  0.72415090645E+03  0.80372714995E+02 0.  0.
        254    2    1    2    0    0 -0.37293459499E+03 -0.39935953964E+03 -0.24247411867E+04  0.26440041514E+04  0.90156523666E+03 0.  0.
         23    2    4    4    0    0 -0.42322270148E+03  0.16833637301E+03 -0.88483034819E+03  0.99942128964E+03  0.91997715111E+02 0.  0.
         23    2    4    4    0    0  0.50288106487E+02 -0.56769591265E+03 -0.15399108386E+04  0.16445828618E+04  0.92303064093E+02 0.  0.
          2    1    3    3  502    0  0.35041958872E+03  0.38610148619E+03 -0.46336196301E+03  0.69754752853E+03  0.00000000000E+00 0. -1.
         -1    1    3    3    0  502  0.22515006270E+02  0.13258053453E+02 -0.50038213467E+01  0.26603377920E+02  0.00000000000E+00 0.  1.
         13    1    5    5    0    0 -0.13491123683E+02 -0.99618333440E+01 -0.21127150375E+02  0.26974154755E+02  0.00000000000E+00 0. -1.
        -13    1    5    5    0    0 -0.40973157779E+03  0.17829820636E+03 -0.86370319781E+03  0.97244713488E+03  0.00000000000E+00 0.  1.
          3    1    6    6  503    0  0.48132242099E+01 -0.21916430013E+03 -0.71665474602E+03  0.74943324090E+03  0.00000000000E+00 0. -1.
         -3    1    6    6    0  503  0.45474882277E+02 -0.34853161252E+03 -0.82325609254E+03  0.89514962087E+03  0.00000000000E+00 0.  1.
<mgrwt>
<rscale>  0 0.17246450E+04</rscale>
<asrwt>0</asrwt>
<pdfrwt beam="1">  1        2 0.48163554E+00 0.17246450E+04</pdfrwt>
<pdfrwt beam="2">  1       -1 0.36542161E-01 0.17246450E+04</pdfrwt>
<totfact> 0.11230003E+01</totfact>
</mgrwt>
</event>
<event>
12    7  0.1661464E-007  0.1835353E+04  0.7818608E-02  0.8687722E-01
          2   -1    0    0  501    0  0.00000000000E+00  0.00000000000E+00  0.19173140779E+04  0.19173140779E+04  0.00000000000E+00 0. -1.
         -1   -1    0    0    0  501 -0.00000000000E+00 -0.00000000000E+00 -0.43922384654E+03  0.43922384654E+03  0.00000000000E+00 0.  1.
         24    2    1    2    0    0 -0.33272504161E+03 -0.79994521587E+01  0.13463769348E+04  0.13894061551E+04  0.83358675957E+02 0.  0.
        254    2    1    2    0    0  0.33272504161E+03  0.79994521587E+01  0.13171329656E+03  0.96713176929E+03  0.89845730123E+03 0.  0.
         23    2    4    4    0    0  0.23536257828E+02  0.25935353399E+03  0.39335963403E+03  0.48036112030E+03  0.90536142981E+02 0.  0.
         23    2    4    4    0    0  0.30918878378E+03 -0.25135408183E+03 -0.26164633747E+03  0.48677064900E+03  0.98540754742E+02 0.  0.
          2    1    3    3  502    0 -0.17502075747E+03 -0.27014690731E+02  0.84924098398E+03  0.86750925525E+03  0.00000000000E+00 0. -1.
         -1    1    3    3    0  502 -0.15770428414E+03  0.19015238572E+02  0.49713595077E+03  0.52189689986E+03  0.00000000000E+00 0.  1.
         13    1    5    5    0    0  0.99330082584E+01  0.24215974948E+03  0.30633018330E+03  0.39061258316E+03  0.00000000000E+00 0. -1.
        -13    1    5    5    0    0  0.13603249570E+02  0.17193784507E+02  0.87029450725E+02  0.89748537136E+02  0.00000000000E+00 0.  1.
          3    1    6    6  503    0  0.24959196926E+03 -0.24579966707E+03 -0.23002089228E+03  0.41907426351E+03  0.00000000000E+00 0. -1.
         -3    1    6    6    0  503  0.59596814520E+02 -0.55544147557E+01 -0.31625445191E+02  0.67696385485E+02  0.00000000000E+00 0.  1.
<mgrwt>
<rscale>  0 0.18353529E+04</rscale>
<asrwt>0</asrwt>
<pdfrwt beam="1">  1        2 0.29497139E+00 0.18353529E+04</pdfrwt>
<pdfrwt beam="2">  1       -1 0.67572901E-01 0.18353529E+04</pdfrwt>
<totfact> 0.17659671E+01</totfact>
</mgrwt>
</event>
<event>
12    7  0.1661464E-007  0.2268794E+04  0.7818608E-02  0.8490328E-01
          2   -1    0    0  501    0  0.00000000000E+00  0.00000000000E+00  0.17739048286E+04  0.17739048286E+04  0.00000000000E+00 0. -1.
         -1   -1    0    0    0  501 -0.00000000000E+00 -0.00000000000E+00 -0.72543738690E+03  0.72543738690E+03  0.00000000000E+00 0.  1.
         24    2    1    2    0    0  0.40786400152E+03  0.11150271425E+03 -0.50020383149E+03  0.66107660813E+03  0.89624269979E+02 0.  0.
        254    2    1    2    0    0 -0.40786400152E+03 -0.11150271425E+03  0.15486712731E+04  0.18382656073E+04  0.89557346533E+03 0.  0.
         23    2    4    4    0    0  0.10838824018E+03 -0.37762492676E+03  0.63994102027E+03  0.75633936305E+03  0.90421937374E+02 0.  0.
         23    2    4    4    0    0 -0.51625224170E+03  0.26612221251E+03  0.90873025287E+03  0.10819262443E+04  0.86234079739E+02 0.  0.
          2    1    3    3  502    0  0.10799725311E+03  0.46751211830E+01 -0.17723901659E+03  0.20760282377E+03  0.00000000000E+00 0. -1.
         -1    1    3    3    0  502  0.29986674841E+03  0.10682759307E+03 -0.32296481490E+03  0.45347378436E+03  0.00000000000E+00 0.  1.
         13    1    5    5    0    0  0.98000662113E+02 -0.37465064940E+03  0.59356923145E+03  0.70872538504E+03  0.00000000000E+00 0.  1.
        -13    1    5    5    0    0  0.10387578070E+02 -0.29742773534E+01  0.46371788816E+02  0.47613978010E+02  0.00000000000E+00 0. -1.
          1    1    6    6  503    0 -0.24317856558E+02 -0.33278427850E+00  0.18759018971E+02  0.30714323787E+02  0.00000000000E+00 0. -1.
         -1    1    6    6    0  503 -0.49193438515E+03  0.26645499679E+03  0.88997123390E+03  0.10512119205E+04  0.00000000000E+00 0.  1.
<mgrwt>
<rscale>  0 0.22687943E+04</rscale>
<asrwt>0</asrwt>
<pdfrwt beam="1">  1        2 0.27290843E+00 0.22687943E+04</pdfrwt>
<pdfrwt beam="2">  1       -1 0.11160575E+00 0.22687943E+04</pdfrwt>
<totfact> 0.68075917E+00</totfact>
</mgrwt>
</event>
<event>
12    7  0.1661464E-007  0.1379917E+04  0.7818608E-02  0.8968485E-01
          2   -1    0    0  501    0  0.00000000000E+00  0.00000000000E+00  0.26701581782E+04  0.26701581782E+04  0.00000000000E+00 0. -1.
         -1   -1    0    0    0  501 -0.00000000000E+00 -0.00000000000E+00 -0.17828269146E+03  0.17828269146E+03  0.00000000000E+00 0.  1.
         24    2    1    2    0    0  0.15885773596E+03 -0.14066935754E+03  0.12989299563E+04  0.13189367993E+04  0.85741475992E+02 0.  0.
        254    2    1    2    0    0 -0.15885773596E+03  0.14066935754E+03  0.11929455305E+04  0.15295040704E+04  0.93340238605E+03 0.  0.
         23    2    4    4    0    0 -0.27413523188E+03  0.27554358271E+03  0.12548789652E+04  0.13167947630E+04  0.90293073354E+02 0.  0.
         23    2    4    4    0    0  0.11527749592E+03 -0.13487422517E+03 -0.61933434753E+02  0.21270930744E+03  0.99647084488E+02 0.  0.
          4    1    3    3  502    0  0.16175795665E+02 -0.58683002745E+02  0.25828454059E+03  0.26536061329E+03  0.00000000000E+00 0. -1.
         -3    1    3    3    0  502  0.14268194030E+03 -0.81986354792E+02  0.10406454157E+04  0.10535761860E+04  0.00000000000E+00 0.  1.
         13    1    5    5    0    0 -0.19114408025E+03  0.23284846751E+03  0.86706037280E+03  0.91790422067E+03  0.00000000000E+00 0.  1.
        -13    1    5    5    0    0 -0.82991151639E+02  0.42695115200E+02  0.38781859242E+03  0.39889054230E+03  0.00000000000E+00 0. -1.
          3    1    6    6  503    0 -0.17532266297E+02 -0.23281317679E+02 -0.21336885973E+01  0.29222469803E+02  0.00000000000E+00 0. -1.
         -3    1    6    6    0  503  0.13280976222E+03 -0.11159290749E+03 -0.59799746156E+02  0.18348683763E+03  0.00000000000E+00 0.  1.
<mgrwt>
<rscale>  0 0.13799174E+04</rscale>
<asrwt>0</asrwt>
<pdfrwt beam="1">  1        2 0.41079354E+00 0.13799174E+04</pdfrwt>
<pdfrwt beam="2">  1       -1 0.27428108E-01 0.13799174E+04</pdfrwt>
<totfact> 0.36852096E+01</totfact>
</mgrwt>
</event>
<event>
12    7  0.1661464E-007  0.2198814E+04  0.7818608E-02  0.8518922E-01
         -1   -1    0    0    0  501 -0.00000000000E+00  0.00000000000E+00  0.12858435950E+04  0.12858435950E+04  0.00000000000E+00 0.  1.
          2   -1    0    0  501    0  0.00000000000E+00 -0.00000000000E+00 -0.94000230560E+03  0.94000230560E+03  0.00000000000E+00 0. -1.
         24    2    1    2    0    0  0.13128907090E+01  0.32531276040E+03  0.10135915231E+04  0.10675332616E+04  0.80183372481E+02 0.  0.
        254    2    1    2    0    0 -0.13128907090E+01 -0.32531276040E+03 -0.66775023367E+03  0.11583126390E+04  0.88880125976E+03 0.  0.
         23    2    4    4    0    0  0.17805923450E+03 -0.45933714713E+03 -0.61436998960E+02  0.50544444771E+03  0.94888772520E+02 0.  0.
         23    2    4    4    0    0 -0.17937212521E+03  0.13402438673E+03 -0.60631323471E+03  0.65286819130E+03  0.92109940205E+02 0.  0.
          2    1    3    3  502    0  0.80761327761E+01  0.74562781592E+02  0.14232576699E+03  0.16087714651E+03  0.00000000000E+00 0. -1.
         -1    1    3    3    0  502 -0.67632420671E+01  0.25074997881E+03  0.87126575609E+03  0.90665611510E+03  0.00000000000E+00 0.  1.
         13    1    5    5    0    0  0.15719182162E+03 -0.42973862050E+03 -0.80352762584E+02  0.46458703941E+03  0.00000000000E+00 0. -1.
        -13    1    5    5    0    0  0.20867412885E+02 -0.29598526628E+02  0.18915763624E+02  0.40857408294E+02  0.00000000000E+00 0.  1.
          1    1    6    6  503    0 -0.13988122121E+03  0.13589915684E+03 -0.42974753181E+03  0.47193037407E+03  0.00000000000E+00 0. -1.
         -1    1    6    6    0  503 -0.39490903999E+02 -0.18747701062E+01 -0.17656570290E+03  0.18093781723E+03  0.00000000000E+00 0.  1.
<mgrwt>
<rscale>  0 0.21988142E+04</rscale>
<asrwt>0</asrwt>
<pdfrwt beam="1">  1        2 0.14461574E+00 0.21988142E+04</pdfrwt>
<pdfrwt beam="2">  1       -1 0.19782209E+00 0.21988142E+04</pdfrwt>
<totfact> 0.44783587E+00</totfact>
</mgrwt>
</event>
<event>
12    7  0.1661464E-007  0.1880760E+04  0.7818608E-02  0.8664493E-01
          2   -1    0    0  501    0  0.00000000000E+00  0.00000000000E+00  0.23340975447E+04  0.23340975447E+04  0.00000000000E+00 0. -1.
         -1   -1    0    0    0  501 -0.00000000000E+00 -0.00000000000E+00 -0.37886783226E+03  0.37886783226E+03  0.00000000000E+00 0.  1.
         24    2    1    2    0    0  0.65044035376E+03 -0.30361378640E+03  0.90221405060E+03  0.11558029868E+04  0.81463893951E+02 0.  0.
        254    2    1    2    0    0 -0.65044035376E+03  0.30361378640E+03  0.10530156618E+04  0.15571623902E+04  0.89479536223E+03 0.  0.
         23    2    4    4    0    0 -0.23074297187E+03 -0.27153709015E+03  0.61382677234E+03  0.71539234407E+03  0.89600162462E+02 0.  0.
         23    2    4    4    0    0 -0.41969738189E+03  0.57515087654E+03  0.43918888948E+03  0.84177004611E+03  0.93517414083E+02 0.  0.
          4    1    3    3  502    0  0.53120311372E+03 -0.28085657490E+03  0.74165043904E+03  0.95451691311E+03  0.00000000000E+00 0. -1.
         -3    1    3    3    0  502  0.11923724004E+03 -0.22757211493E+02  0.16056361156E+03  0.20128607365E+03  0.00000000000E+00 0.  1.
         13    1    5    5    0    0 -0.19511137619E+03 -0.24733863706E+03  0.58215856102E+03  0.66193159818E+03  0.00000000000E+00 0. -1.
        -13    1    5    5    0    0 -0.35631595680E+02 -0.24198453092E+02  0.31668211328E+02  0.53460745893E+02  0.00000000000E+00 0.  1.
          1    1    6    6  503    0 -0.37242781998E+03  0.44928647783E+03  0.36216429864E+03  0.68682151937E+03  0.00000000000E+00 0. -1.
         -1    1    6    6    0  503 -0.47269561905E+02  0.12586439871E+03  0.77024590844E+02  0.15494852674E+03  0.00000000000E+00 0.  1.
<mgrwt>
<rscale>  0 0.18807599E+04</rscale>
<asrwt>0</asrwt>
<pdfrwt beam="1">  1        2 0.35909192E+00 0.18807599E+04</pdfrwt>
<pdfrwt beam="2">  1       -1 0.58287360E-01 0.18807599E+04</pdfrwt>
<totfact> 0.13815533E+01</totfact>
</mgrwt>
</event>
<event>
12    7  0.1661464E-007  0.1936323E+04  0.7818608E-02  0.8636984E-01
         -1   -1    0    0    0  501 -0.00000000000E+00  0.00000000000E+00  0.55021159060E+03  0.55021159060E+03  0.00000000000E+00 0.  1.
          2   -1    0    0  501    0  0.00000000000E+00 -0.00000000000E+00 -0.17035935131E+04  0.17035935131E+04  0.00000000000E+00 0. -1.
         24    2    1    2    0    0 -0.63877124737E+03 -0.37340472479E+03 -0.24308870654E+03  0.78304398262E+03  0.81277084781E+02 0.  0.
        254    2    1    2    0    0  0.63877124737E+03  0.37340472479E+03 -0.91029321594E+03  0.14707611211E+04  0.88715542114E+03 0.  0.
         23    2    4    4    0    0  0.67642184023E+03  0.53867686950E+03 -0.46552442888E+03  0.98627246394E+03  0.91110392195E+02 0.  0.
         23    2    4    4    0    0 -0.37650592863E+02 -0.16527214471E+03 -0.44476878706E+03  0.48448865711E+03  0.90429729465E+02 0.  0.
          2    1    3    3  502    0 -0.64046518131E+03 -0.36846512010E+03 -0.23962170198E+03  0.77677587067E+03  0.00000000000E+00 0. -1.
         -1    1    3    3    0  502  0.16939339443E+01 -0.49396046991E+01 -0.34670045578E+01  0.62681119482E+01  0.00000000000E+00 0.  1.
         13    1    5    5    0    0  0.41905953010E+03  0.34515570572E+03 -0.34052163131E+03  0.64085749769E+03  0.00000000000E+00 0. -1.
        -13    1    5    5    0    0  0.25736231013E+03  0.19352116378E+03 -0.12500279757E+03  0.34541496625E+03  0.00000000000E+00 0.  1.
          1    1    6    6  503    0 -0.54244144184E+02 -0.79203754278E+02 -0.16055785452E+03  0.18706813336E+03  0.00000000000E+00 0. -1.
         -1    1    6    6    0  503  0.16593551321E+02 -0.86068390431E+02 -0.28421093254E+03  0.29742052376E+03  0.00000000000E+00 0.  1.
<mgrwt>
<rscale>  0 0.19363232E+04</rscale>
<asrwt>0</asrwt>
<pdfrwt beam="1">  1        2 0.26209130E+00 0.19363232E+04</pdfrwt>
<pdfrwt beam="2">  1       -1 0.84647939E-01 0.19363232E+04</pdfrwt>
<totfact> 0.14343471E+01</totfact>
</mgrwt>
</event>
<event>
12    7  0.1661464E-007  0.1777483E+04  0.7818608E-02  0.8718366E-01
         -1   -1    0    0    0  501 -0.00000000000E+00  0.00000000000E+00  0.60076678116E+03  0.60076678116E+03  0.00000000000E+00 0.  1.
          2   -1    0    0  501    0  0.00000000000E+00 -0.00000000000E+00 -0.13147557035E+04  0.13147557035E+04  0.00000000000E+00 0. -1.
         24    2    1    2    0    0  0.18557888559E+03 -0.25471130022E+03 -0.88823562795E+03  0.94587499605E+03  0.79997550906E+02 0.  0.
        254    2    1    2    0    0 -0.18557888559E+03  0.25471130022E+03  0.17424670558E+03  0.96964748864E+03  0.90029826646E+03 0.  0.
         23    2    4    4    0    0 -0.50154331223E+03  0.31876320932E+03  0.20284825765E+03  0.63433789927E+03  0.89897036423E+02 0.  0.
         23    2    4    4    0    0  0.31596442664E+03 -0.64051909099E+02 -0.28601552072E+02  0.33530958937E+03  0.87625943525E+02 0.  0.
          2    1    3    3  502    0  0.16588018620E+03 -0.19497709076E+03 -0.62855054926E+03  0.67868114389E+03  0.00000000000E+00 0. -1.
         -1    1    3    3    0  502  0.19698699394E+02 -0.59734209456E+02 -0.25968507869E+03  0.26719385215E+03  0.00000000000E+00 0.  1.
         13    1    5    5    0    0 -0.21635066341E+03  0.18176817801E+03  0.12198163401E+03  0.30777719073E+03  0.00000000000E+00 0. -1.
        -13    1    5    5    0    0 -0.28519264882E+03  0.13699503131E+03  0.80866623642E+02  0.32656070854E+03  0.00000000000E+00 0.  1.
          2    1    6    6  503    0  0.17378582160E+03 -0.71047314732E+02 -0.41812164583E+02  0.19234731562E+03  0.00000000000E+00 0. -1.
         -2    1    6    6    0  503  0.14217860505E+03  0.69954056322E+01  0.13210612511E+02  0.14296227375E+03  0.00000000000E+00 0.  1.
<mgrwt>
<rscale>  0 0.17774831E+04</rscale>
<asrwt>0</asrwt>
<pdfrwt beam="1">  1        2 0.20227011E+00 0.17774831E+04</pdfrwt>
<pdfrwt beam="2">  1       -1 0.92425659E-01 0.17774831E+04</pdfrwt>
<totfact> 0.19897856E+01</totfact>
</mgrwt>
</event>
<event>
12    7  0.1661464E-007  0.1447043E+04  0.7818608E-02  0.8920453E-01
         -1   -1    0    0    0  501 -0.00000000000E+00  0.00000000000E+00  0.82715950336E+03  0.82715950336E+03  0.00000000000E+00 0.  1.
          2   -1    0    0  501    0  0.00000000000E+00 -0.00000000000E+00 -0.63286872847E+03  0.63286872847E+03  0.00000000000E+00 0. -1.
         24    2    1    2    0    0 -0.35088064668E+03  0.20699968878E+03 -0.93234945771E+02  0.42594404217E+03  0.82276804638E+02 0.  0.
        254    2    1    2    0    0  0.35088064668E+03 -0.20699968878E+03  0.28752572067E+03  0.10340841897E+04  0.90592106273E+03 0.  0.
         23    2    4    4    0    0 -0.74497831128E+02  0.28491797084E+03 -0.21936633836E+02  0.30835595729E+03  0.88735582176E+02 0.  0.
         23    2    4    4    0    0  0.42537847781E+03 -0.49191765962E+03  0.30946235450E+03  0.72572823237E+03  0.89357065603E+02 0.  0.
          4    1    3    3  502    0 -0.83755787929E+02  0.61791340726E+02  0.10693798333E+02  0.10463058407E+03  0.00000000000E+00 0. -1.
         -3    1    3    3    0  502 -0.26712485875E+03  0.14520834806E+03 -0.10392874410E+03  0.32131345810E+03  0.00000000000E+00 0.  1.
         13    1    5    5    0    0 -0.47746607833E+02  0.12537107895E+03  0.31832606559E+02  0.13788024092E+03  0.00000000000E+00 0. -1.
        -13    1    5    5    0    0 -0.26751223296E+02  0.15954689189E+03 -0.53769240395E+02  0.17047571637E+03  0.00000000000E+00 0.  1.
          3    1    6    6  503    0  0.19428640318E+03 -0.21497427962E+03  0.89562263539E+02  0.30328624500E+03  0.00000000000E+00 0. -1.
         -3    1    6    6    0  503  0.23109207463E+03 -0.27694338000E+03  0.21990009096E+03  0.42244198737E+03  0.00000000000E+00 0.  1.
<mgrwt>
<rscale>  0 0.14470430E+04</rscale>
<asrwt>0</asrwt>
<pdfrwt beam="1">  1        2 0.97364420E-01 0.14470430E+04</pdfrwt>
<pdfrwt beam="2">  1       -1 0.12725531E+00 0.14470430E+04</pdfrwt>
<totfact> 0.27568531E+01</totfact>
</mgrwt>
</event>
<event>
12    7  0.1661464E-007  0.1905102E+04  0.7818608E-02  0.8652321E-01
          2   -1    0    0  501    0  0.00000000000E+00  0.00000000000E+00  0.10644966867E+04  0.10644966867E+04  0.00000000000E+00 0. -1.
         -1   -1    0    0    0  501 -0.00000000000E+00 -0.00000000000E+00 -0.85237757519E+03  0.85237757519E+03  0.00000000000E+00 0.  1.
         24    2    1    2    0    0  0.47481127095E+03 -0.45117631598E+03  0.42799130329E+03  0.78653993753E+03  0.80390960442E+02 0.  0.
        254    2    1    2    0    0 -0.47481127095E+03  0.45117631598E+03 -0.21587219178E+03  0.11303343244E+04  0.89557192370E+03 0.  0.
         23    2    4    4    0    0  0.36376867219E+02  0.38408060592E+03  0.21607070134E+03  0.45167711829E+03  0.92111252821E+02 0.  0.
         23    2    4    4    0    0 -0.51118813817E+03  0.67095710061E+02 -0.43194289311E+03  0.67865720607E+03  0.90475375241E+02 0.  0.
          2    1    3    3  502    0  0.40699408849E+03 -0.41939706201E+03  0.38967688194E+03  0.70241451864E+03  0.00000000000E+00 0. -1.
         -1    1    3    3    0  502  0.67817182456E+02 -0.31779253973E+02  0.38314421357E+02  0.84125418889E+02  0.00000000000E+00 0.  1.
         13    1    5    5    0    0 -0.25641283612E+02  0.15981600526E+03  0.66005393071E+02  0.17480086635E+03  0.00000000000E+00 0.  1.
        -13    1    5    5    0    0  0.62018150831E+02  0.22426460066E+03  0.15006530827E+03  0.27687625194E+03  0.00000000000E+00 0. -1.
          1    1    6    6  503    0 -0.39411771643E+03  0.57493117808E+02 -0.28120241598E+03  0.48755413212E+03  0.00000000000E+00 0. -1.
         -1    1    6    6    0  503 -0.11707042174E+03  0.96025922531E+01 -0.15074047713E+03  0.19110307394E+03  0.00000000000E+00 0.  1.
<mgrwt>
<rscale>  0 0.19051017E+04</rscale>
<asrwt>0</asrwt>
<pdfrwt beam="1">  1        2 0.16376872E+00 0.19051017E+04</pdfrwt>
<pdfrwt beam="2">  1       -1 0.13113501E+00 0.19051017E+04</pdfrwt>
<totfact> 0.12144196E+01</totfact>
</mgrwt>
</event>
<event>
12    7  0.1661464E-007  0.1427189E+04  0.7818608E-02  0.8934370E-01
         -1   -1    0    0    0  501 -0.00000000000E+00  0.00000000000E+00  0.57603719937E+03  0.57603719937E+03  0.00000000000E+00 0.  1.
          2   -1    0    0  501    0  0.00000000000E+00 -0.00000000000E+00 -0.88400032930E+03  0.88400032930E+03  0.00000000000E+00 0. -1.
         24    2    1    2    0    0  0.13793243453E+03 -0.36275082299E+03 -0.36580500716E+03  0.54127618839E+03  0.92482932382E+02 0.  0.
        254    2    1    2    0    0 -0.13793243453E+03  0.36275082299E+03  0.57841877224E+02  0.91876134028E+03  0.83076061628E+03 0.  0.
         23    2    4    4    0    0  0.11034404133E+03  0.32488812134E+02 -0.31856787056E+03  0.35192437996E+03  0.95571704392E+02 0.  0.
         23    2    4    4    0    0 -0.24827647585E+03  0.33026201085E+03  0.37640974779E+03  0.56683696033E+03  0.94369683116E+02 0.  0.
          2    1    3    3  502    0  0.87711945834E+02 -0.26277823933E+03 -0.31165521278E+03  0.41698292550E+03  0.00000000000E+00 0. -1.
         -1    1    3    3    0  502  0.50220488693E+02 -0.99972583657E+02 -0.54149794377E+02  0.12429326289E+03  0.00000000000E+00 0.  1.
         13    1    5    5    0    0  0.10833711525E+03  0.17120326950E+02 -0.31803434265E+03  0.33641622916E+03  0.00000000000E+00 0. -1.
        -13    1    5    5    0    0  0.20069260804E+01  0.15368485185E+02 -0.53352791449E+00  0.15508150799E+02  0.00000000000E+00 0.  1.
          3    1    6    6  503    0 -0.22800935879E+03  0.23904134891E+03  0.29090022419E+03  0.44017266455E+03  0.00000000000E+00 0. -1.
         -3    1    6    6    0  503 -0.20267117067E+02  0.91220661942E+02  0.85509523604E+02  0.12666429578E+03  0.00000000000E+00 0.  1.
<mgrwt>
<rscale>  0 0.14271889E+04</rscale>
<asrwt>0</asrwt>
<pdfrwt beam="1">  1        2 0.13600005E+00 0.14271889E+04</pdfrwt>
<pdfrwt beam="2">  1       -1 0.88621107E-01 0.14271889E+04</pdfrwt>
<totfact> 0.41675600E+01</totfact>
</mgrwt>
</event>
<event>
12    7  0.1661464E-007  0.1184729E+04  0.7818608E-02  0.9126329E-01
         -1   -1    0    0    0  501 -0.00000000000E+00  0.00000000000E+00  0.42200216642E+03  0.42200216642E+03  0.00000000000E+00 0.  1.
          2   -1    0    0  501    0  0.00000000000E+00 -0.00000000000E+00 -0.83150281810E+03  0.83150281810E+03  0.00000000000E+00 0. -1.
         24    2    1    2    0    0  0.99264469189E+02  0.15258224637E+02 -0.31762788201E+03  0.34265762091E+03  0.80252884519E+02 0.  0.
        254    2    1    2    0    0 -0.99264469189E+02 -0.15258224637E+02 -0.91872769668E+02  0.91084736360E+03  0.90061982307E+03 0.  0.
         23    2    4    4    0    0  0.63854606304E+02  0.40618910317E+03  0.60788685402E+02  0.42534282191E+03  0.90300905878E+02 0.  0.
         23    2    4    4    0    0 -0.16311907549E+03 -0.42144732780E+03 -0.15266145507E+03  0.48550454169E+03  0.90462463126E+02 0.  0.
          4    1    3    3  502    0  0.19308661816E+02  0.22942249211E+02 -0.18641212999E+03  0.18880850994E+03  0.00000000000E+00 0. -1.
         -3    1    3    3    0  502  0.79955807373E+02 -0.76840245742E+01 -0.13121575203E+03  0.15384911097E+03  0.00000000000E+00 0.  1.
         13    1    5    5    0    0  0.78962607702E+02  0.23474414678E+03  0.51608499441E+02  0.25298882401E+03  0.00000000000E+00 0. -1.
        -13    1    5    5    0    0 -0.15108001398E+02  0.17144495639E+03  0.91801859611E+01  0.17235399790E+03  0.00000000000E+00 0.  1.
          3    1    6    6  503    0 -0.30279751811E+02 -0.49004968619E+02 -0.51682435671E+02  0.77391372103E+02  0.00000000000E+00 0. -1.
         -3    1    6    6    0  503 -0.13283932368E+03 -0.37244235919E+03 -0.10097901940E+03  0.40811316959E+03  0.00000000000E+00 0.  1.
<mgrwt>
<rscale>  0 0.11847295E+04</rscale>
<asrwt>0</asrwt>
<pdfrwt beam="1">  1        2 0.12792351E+00 0.11847295E+04</pdfrwt>
<pdfrwt beam="2">  1       -1 0.64923411E-01 0.11847295E+04</pdfrwt>
<totfact> 0.88706672E+01</totfact>
</mgrwt>
</event>
<event>
12    7  0.1661464E-007  0.1345786E+04  0.7818608E-02  0.8994025E-01
          2   -1    0    0  501    0  0.00000000000E+00  0.00000000000E+00  0.14700512510E+04  0.14700512510E+04  0.00000000000E+00 0. -1.
         -1   -1    0    0    0  501 -0.00000000000E+00 -0.00000000000E+00 -0.30800604363E+03  0.30800604363E+03  0.00000000000E+00 0.  1.
         24    2    1    2    0    0 -0.26567957252E+03 -0.39889788196E+02  0.29414475465E+02  0.28279234536E+03  0.83243430779E+02 0.  0.
        254    2    1    2    0    0  0.26567957252E+03  0.39889788196E+02  0.11326307319E+04  0.14952649492E+04  0.93850309704E+03 0.  0.
         23    2    4    4    0    0  0.43788471805E+03 -0.32384925341E+03  0.53333818817E+03  0.76760947591E+03  0.90295732507E+02 0.  0.
         23    2    4    4    0    0 -0.17220514552E+03  0.36373904161E+03  0.59929254369E+03  0.72765547331E+03  0.91488974128E+02 0.  0.
          2    1    3    3  502    0 -0.24222698035E+02 -0.10606887701E+02 -0.21754931405E+02  0.34242111606E+02  0.00000000000E+00 0. -1.
         -3    1    3    3    0  502 -0.24145687449E+03 -0.29282900495E+02  0.51169406870E+02  0.24855023375E+03  0.00000000000E+00 0.  1.
         13    1    5    5    0    0  0.30577943989E+03 -0.19107109610E+03  0.39456440168E+03  0.53450004368E+03  0.00000000000E+00 0.  1.
        -13    1    5    5    0    0  0.13210527815E+03 -0.13277815731E+03  0.13877378650E+03  0.23310943223E+03  0.00000000000E+00 0. -1.
          1    1    6    6  503    0 -0.50331343901E+02  0.34616125843E+02  0.10418774853E+03  0.12077502760E+03  0.00000000000E+00 0. -1.
         -1    1    6    6    0  503 -0.12187380162E+03  0.32912291577E+03  0.49510479516E+03  0.60688044572E+03  0.00000000000E+00 0.  1.
<mgrwt>
<rscale>  0 0.13457855E+04</rscale>
<asrwt>0</asrwt>
<pdfrwt beam="1">  1        2 0.22616173E+00 0.13457855E+04</pdfrwt>
<pdfrwt beam="2">  1       -1 0.47385546E-01 0.13457855E+04</pdfrwt>
<totfact> 0.65301893E+01</totfact>
</mgrwt>
</event>
<event>
12    7  0.1661464E-007  0.1858399E+04  0.7818608E-02  0.8675846E-01
          2   -1    0    0  501    0  0.00000000000E+00  0.00000000000E+00  0.60870872871E+03  0.60870872871E+03  0.00000000000E+00 0. -1.
         -1   -1    0    0    0  501 -0.00000000000E+00 -0.00000000000E+00 -0.14184308877E+04  0.14184308877E+04  0.00000000000E+00 0.  1.
         24    2    1    2    0    0  0.24562067103E+03  0.11481029464E+03  0.40333980881E+03  0.49253098211E+03  0.79955294846E+02 0.  0.
        254    2    1    2    0    0 -0.24562067103E+03 -0.11481029464E+03 -0.12130619678E+04  0.15346086343E+04  0.89999633608E+03 0.  0.
         23    2    4    4    0    0 -0.40613837415E+03  0.13690421028E+03 -0.21265614452E+03  0.48709385447E+03  0.91359977588E+02 0.  0.
         23    2    4    4    0    0  0.16051770312E+03 -0.25171450492E+03 -0.10004058233E+04  0.10475147799E+04  0.85727928386E+02 0.  0.
          4    1    3    3  502    0  0.22759166219E+03  0.98973045904E+02  0.39616716927E+03  0.46748481743E+03  0.00000000000E+00 0. -1.
         -3    1    3    3    0  502  0.18029008842E+02  0.15837248739E+02  0.71726395353E+01  0.25046164684E+02  0.00000000000E+00 0.  1.
         13    1    5    5    0    0 -0.24629606643E+03  0.40766781623E+02 -0.98298799006E+02  0.26830269606E+03  0.00000000000E+00 0.  1.
        -13    1    5    5    0    0 -0.15984230772E+03  0.96137428656E+02 -0.11435734552E+03  0.21879115841E+03  0.00000000000E+00 0. -1.
          2    1    6    6  503    0  0.12475867972E+02  0.37376667503E+01 -0.75864597251E+02  0.76974375934E+02  0.00000000000E+00 0. -1.
         -2    1    6    6    0  503  0.14804183515E+03 -0.25545217167E+03 -0.92454122607E+03  0.97054040393E+03  0.00000000000E+00 0.  1.
<mgrwt>
<rscale>  0 0.18583985E+04</rscale>
<asrwt>0</asrwt>
<pdfrwt beam="1">  1        2 0.93647497E-01 0.18583985E+04</pdfrwt>
<pdfrwt beam="2">  1       -1 0.21822014E+00 0.18583985E+04</pdfrwt>
<totfact> 0.59158451E+00</totfact>
</mgrwt>
</event>
<event>
12    7  0.1661464E-007  0.2450048E+04  0.7818608E-02  0.8421001E-01
          2   -1    0    0  501    0  0.00000000000E+00  0.00000000000E+00  0.80605614628E+03  0.80605614628E+03  0.00000000000E+00 0. -1.
         -1   -1    0    0    0  501 -0.00000000000E+00 -0.00000000000E+00 -0.18617601302E+04  0.18617601302E+04  0.00000000000E+00 0.  1.
         24    2    1    2    0    0  0.95425338837E+03  0.29579296388E+03 -0.76783736858E+03  0.12627177171E+04  0.82394186199E+02 0.  0.
        254    2    1    2    0    0 -0.95425338837E+03 -0.29579296388E+03 -0.28786661535E+03  0.14050985593E+04  0.94516758648E+03 0.  0.
         23    2    4    4    0    0  0.95154417616E+02  0.20818473933E+02 -0.27258589014E+03  0.30511744581E+03  0.96466658409E+02 0.  0.
         23    2    4    4    0    0 -0.10494078060E+04 -0.31661143781E+03 -0.15280725209E+02  0.10999811135E+04  0.90694011644E+02 0.  0.
          2    1    3    3  502    0  0.16849974605E+03  0.22764140853E+02 -0.14658997994E+03  0.22449719986E+03  0.00000000000E+00 0. -1.
         -1    1    3    3    0  502  0.78575364232E+03  0.27302882303E+03 -0.62124738865E+03  0.10382205173E+04  0.00000000000E+00 0.  1.
         13    1    5    5    0    0  0.10287305232E+03  0.44482420727E+02 -0.22783107462E+03  0.25390657575E+03  0.00000000000E+00 0. -1.
        -13    1    5    5    0    0 -0.77186347085E+01 -0.23663946794E+02 -0.44754815526E+02  0.51210870061E+02  0.00000000000E+00 0.  1.
          3    1    6    6  503    0 -0.98914690214E+03 -0.28651580312E+03  0.43649887317E+01  0.10298164655E+04  0.00000000000E+00 0. -1.
         -3    1    6    6    0  503 -0.60260903842E+02 -0.30095634691E+02 -0.19645713941E+02  0.70164648047E+02  0.00000000000E+00 0.  1.
<mgrwt>
<rscale>  0 0.24500475E+04</rscale>
<asrwt>0</asrwt>
<pdfrwt beam="1">  1        2 0.12400864E+00 0.24500475E+04</pdfrwt>
<pdfrwt beam="2">  1       -1 0.28642463E+00 0.24500475E+04</pdfrwt>
<totfact> 0.14087819E+00</totfact>
</mgrwt>
</event>
<event>
12    7  0.1661464E-007  0.1231480E+04  0.7818608E-02  0.9085740E-01
         -1   -1    0    0    0  501 -0.00000000000E+00  0.00000000000E+00  0.60095214799E+03  0.60095214799E+03  0.00000000000E+00 0.  1.
          2   -1    0    0  501    0  0.00000000000E+00 -0.00000000000E+00 -0.63089175226E+03  0.63089175226E+03  0.00000000000E+00 0. -1.
         24    2    1    2    0    0 -0.23901260616E+03 -0.41204457820E+02  0.22740682621E+03  0.34207784516E+03  0.80489466981E+02 0.  0.
        254    2    1    2    0    0  0.23901260616E+03  0.41204457820E+02 -0.25734643048E+03  0.88976605509E+03  0.81647511552E+03 0.  0.
         23    2    4    4    0    0  0.15141753032E+03  0.40089953164E+03 -0.25794129478E+03  0.50843538652E+03  0.91242138045E+02 0.  0.
         23    2    4    4    0    0  0.87595075843E+02 -0.35969507382E+03  0.59486429938E+00  0.38133066858E+03  0.91429106375E+02 0.  0.
          4    1    3    3  502    0 -0.20960787235E+03 -0.43213987485E+02  0.15602978509E+03  0.26485505980E+03  0.00000000000E+00 0. -1.
         -3    1    3    3    0  502 -0.29404733806E+02  0.20095296648E+01  0.71377041117E+02  0.77222785357E+02  0.00000000000E+00 0.  1.
         13    1    5    5    0    0  0.51290190643E+02  0.25876768020E+03 -0.14369796270E+03  0.30040056668E+03  0.00000000000E+00 0. -1.
        -13    1    5    5    0    0  0.10012733968E+03  0.14213185144E+03 -0.11424333207E+03  0.20803481984E+03  0.00000000000E+00 0.  1.
          1    1    6    6  503    0  0.74359267097E+02 -0.13080385179E+03  0.17276221381E+02  0.15145103523E+03  0.00000000000E+00 0. -1.
         -1    1    6    6    0  503  0.13235808746E+02 -0.22889122203E+03 -0.16681357082E+02  0.22987963335E+03  0.00000000000E+00 0.  1.
<mgrwt>
<rscale>  0 0.12314800E+04</rscale>
<asrwt>0</asrwt>
<pdfrwt beam="1">  1        2 0.97060269E-01 0.12314800E+04</pdfrwt>
<pdfrwt beam="2">  1       -1 0.92454177E-01 0.12314800E+04</pdfrwt>
<totfact> 0.59759320E+01</totfact>
</mgrwt>
</event>
<event>
12    7  0.1661464E-007  0.1891606E+04  0.7818608E-02  0.8659046E-01
          2   -1    0    0  501    0  0.00000000000E+00  0.00000000000E+00  0.54489432046E+03  0.54489432046E+03  0.00000000000E+00 0. -1.
         -1   -1    0    0    0  501 -0.00000000000E+00 -0.00000000000E+00 -0.16416823613E+04  0.16416823613E+04  0.00000000000E+00 0.  1.
         24    2    1    2    0    0  0.21943160764E+03  0.35809317829E+03  0.24888139869E+03  0.49579789696E+03  0.86560090390E+02 0.  0.
        254    2    1    2    0    0 -0.21943160764E+03 -0.35809317829E+03 -0.13456694395E+04  0.16907787847E+04  0.93355541014E+03 0.  0.
         23    2    4    4    0    0  0.21513503441E+03  0.19983506294E+03 -0.47319395926E+03  0.56404718113E+03  0.89552018661E+02 0.  0.
         23    2    4    4    0    0 -0.43456664205E+03 -0.55792824123E+03 -0.87247548023E+03  0.11267316036E+04  0.90435359428E+02 0.  0.
          4    1    3    3  502    0  0.19792444897E+03  0.33182155344E+03  0.19673259714E+03  0.43357046210E+03  0.00000000000E+00 0. -1.
         -3    1    3    3    0  502  0.21507158673E+02  0.26271624851E+02  0.52148801555E+02  0.62227434867E+02  0.00000000000E+00 0.  1.
         13    1    5    5    0    0  0.29589792767E+02 -0.27519573696E+00 -0.22501889677E+02  0.37174811469E+02  0.00000000000E+00 0. -1.
        -13    1    5    5    0    0  0.18554524164E+03  0.20011025868E+03 -0.45069206958E+03  0.52687236966E+03  0.00000000000E+00 0.  1.
          4    1    6    6  503    0 -0.29684700321E+03 -0.30926154470E+03 -0.52958283612E+03  0.68133606000E+03  0.00000000000E+00 0. -1.
         -4    1    6    6    0  503 -0.13771963884E+03 -0.24866669653E+03 -0.34289264411E+03  0.44539554362E+03  0.00000000000E+00 0.  1.
<mgrwt>
<rscale>  0 0.18916061E+04</rscale>
<asrwt>0</asrwt>
<pdfrwt beam="1">  1        2 0.83829898E-01 0.18916061E+04</pdfrwt>
<pdfrwt beam="2">  1       -1 0.25256651E+00 0.18916061E+04</pdfrwt>
<totfact> 0.39978886E+00</totfact>
</mgrwt>
</event>
<event>
12    7  0.1661464E-007  0.2271977E+04  0.7818608E-02  0.8489053E-01
         -1   -1    0    0    0  501 -0.00000000000E+00  0.00000000000E+00  0.49205281986E+03  0.49205281986E+03  0.00000000000E+00 0.  1.
          2   -1    0    0  501    0  0.00000000000E+00 -0.00000000000E+00 -0.26226254747E+04  0.26226254747E+04  0.00000000000E+00 0. -1.
         24    2    1    2    0    0  0.90470831686E+02 -0.83889096571E+03 -0.15064842293E+04  0.17284976487E+04  0.79286597302E+02 0.  0.
        254    2    1    2    0    0 -0.90470831686E+02  0.83889096571E+03 -0.62408842550E+03  0.13861806459E+04  0.90558676914E+03 0.  0.
         23    2    4    4    0    0 -0.34288000429E+03  0.73980182145E+03 -0.15193442539E+03  0.83451428889E+03  0.91959754193E+02 0.  0.
         23    2    4    4    0    0  0.25240917260E+03  0.99089144263E+02 -0.47215400012E+03  0.55166635699E+03  0.88754271353E+02 0.  0.
          4    1    3    3  502    0  0.62305606222E+02 -0.32673758557E+03 -0.65016282756E+03  0.73030893513E+03  0.00000000000E+00 0. -1.
         -3    1    3    3    0  502  0.28165225464E+02 -0.51215338014E+03 -0.85632140177E+03  0.99818871354E+03  0.00000000000E+00 0.  1.
         13    1    5    5    0    0 -0.26009011192E+03  0.49872003918E+03 -0.13845654596E+03  0.57925707498E+03  0.00000000000E+00 0. -1.
        -13    1    5    5    0    0 -0.82789892373E+02  0.24108178227E+03 -0.13477879427E+02  0.25525721392E+03  0.00000000000E+00 0.  1.
          1    1    6    6  503    0  0.23802779283E+03  0.74300222433E+02 -0.37470490032E+03  0.45009056371E+03  0.00000000000E+00 0. -1.
         -1    1    6    6    0  503  0.14381379768E+02  0.24788921830E+02 -0.97449099799E+02  0.10157579328E+03  0.00000000000E+00 0.  1.
<mgrwt>
<rscale>  0 0.22719773E+04</rscale>
<asrwt>0</asrwt>
<pdfrwt beam="1">  1        2 0.40348084E+00 0.22719773E+04</pdfrwt>
<pdfrwt beam="2">  1       -1 0.75700435E-01 0.22719773E+04</pdfrwt>
<totfact> 0.53509523E+00</totfact>
</mgrwt>
</event>
<event>
12    7  0.1661464E-007  0.1465068E+04  0.7818608E-02  0.8908021E-01
         -1   -1    0    0    0  501 -0.00000000000E+00  0.00000000000E+00  0.10600566748E+04  0.10600566748E+04  0.00000000000E+00 0.  1.
          2   -1    0    0  501    0  0.00000000000E+00 -0.00000000000E+00 -0.50620486553E+03  0.50620486553E+03  0.00000000000E+00 0. -1.
         24    2    1    2    0    0 -0.69968327939E+01 -0.34891102746E+03 -0.13443871831E+03  0.38262233001E+03  0.80859246192E+02 0.  0.
        254    2    1    2    0    0  0.69968327939E+01  0.34891102746E+03  0.68829052754E+03  0.11836392103E+04  0.89747984325E+03 0.  0.
         23    2    4    4    0    0 -0.34013157679E+03  0.14660284688E+03  0.67180476504E+03  0.77172027397E+03  0.83956266450E+02 0.  0.
         23    2    4    4    0    0  0.34712840958E+03  0.20230818058E+03  0.16485762495E+02  0.41191893630E+03  0.89323552615E+02 0.  0.
          2    1    3    3  502    0 -0.25852215480E+02 -0.28565596196E+03 -0.81979044825E+02  0.29830894964E+03  0.00000000000E+00 0. -1.
         -1    1    3    3    0  502  0.18855382686E+02 -0.63255065499E+02 -0.52459673482E+02  0.84313380370E+02  0.00000000000E+00 0.  1.
         13    1    5    5    0    0 -0.94286259731E+02  0.35536733602E+02  0.11427293225E+03  0.15235176813E+03  0.00000000000E+00 0.  1.
        -13    1    5    5    0    0 -0.24584531706E+03  0.11106611328E+03  0.55753183280E+03  0.61936850583E+03  0.00000000000E+00 0. -1.
          2    1    6    6  503    0  0.35050191151E+03  0.20554921332E+03  0.13881078325E+02  0.40656457470E+03  0.00000000000E+00 0. -1.
         -2    1    6    6    0  503 -0.33735019313E+01 -0.32410327388E+01  0.26046841693E+01  0.53543615975E+01  0.00000000000E+00 0.  1.
<mgrwt>
<rscale>  0 0.14650677E+04</rscale>
<asrwt>0</asrwt>
<pdfrwt beam="1">  1        2 0.77877672E-01 0.14650677E+04</pdfrwt>
<pdfrwt beam="2">  1       -1 0.16308564E+00 0.14650677E+04</pdfrwt>
<totfact> 0.18619756E+01</totfact>
</mgrwt>
</event>
<event>
12    7  0.1661464E-007  0.2531590E+04  0.7818608E-02  0.8391817E-01
          2   -1    0    0  501    0  0.00000000000E+00  0.00000000000E+00  0.18667668462E+04  0.18667668462E+04  0.00000000000E+00 0. -1.
         -1   -1    0    0    0  501 -0.00000000000E+00 -0.00000000000E+00 -0.85829493727E+03  0.85829493727E+03  0.00000000000E+00 0.  1.
         24    2    1    2    0    0  0.77596113129E+03  0.55738221419E+03 -0.16133715969E+03  0.97125780717E+03  0.67241645848E+02 0.  0.
        254    2    1    2    0    0 -0.77596113129E+03 -0.55738221419E+03  0.11698090686E+04  0.17538039763E+04  0.89139470514E+03 0.  0.
         23    2    4    4    0    0 -0.33775250469E+03 -0.62440088997E+03  0.30601054244E+03  0.77845030164E+03  0.91592544495E+02 0.  0.
         23    2    4    4    0    0 -0.43820862659E+03  0.67018675784E+02  0.86379852620E+03  0.97535367469E+03  0.92997814712E+02 0.  0.
          2    1    3    3  502    0  0.36024176126E+03  0.28291590968E+03 -0.10495138256E+03  0.46992587842E+03  0.00000000000E+00 0. -1.
         -1    1    3    3    0  502  0.41571937003E+03  0.27446630451E+03 -0.56385777126E+02  0.50133192876E+03  0.00000000000E+00 0.  1.
         13    1    5    5    0    0 -0.99977077582E+02 -0.15496781494E+03  0.12139569879E+03  0.22078803272E+03  0.00000000000E+00 0. -1.
        -13    1    5    5    0    0 -0.23777542711E+03 -0.46943307503E+03  0.18461484365E+03  0.55766226891E+03  0.00000000000E+00 0.  1.
          3    1    6    6  503    0 -0.13819777302E+03 -0.48933477587E+01  0.19751487987E+03  0.24111137901E+03  0.00000000000E+00 0. -1.
         -3    1    6    6    0  503 -0.30001085357E+03  0.71912023543E+02  0.66628364633E+03  0.73424229568E+03  0.00000000000E+00 0.  1.
<mgrwt>
<rscale>  0 0.25315896E+04</rscale>
<asrwt>0</asrwt>
<pdfrwt beam="1">  1        2 0.28719490E+00 0.25315896E+04</pdfrwt>
<pdfrwt beam="2">  1       -1 0.13204537E+00 0.25315896E+04</pdfrwt>
<totfact> 0.39099840E+00</totfact>
</mgrwt>
</event>
<event>
12    7  0.1661464E-007  0.1761564E+04  0.7818608E-02  0.8727011E-01
         -1   -1    0    0    0  501 -0.00000000000E+00  0.00000000000E+00  0.10241427431E+04  0.10241427431E+04  0.00000000000E+00 0.  1.
          2   -1    0    0  501    0  0.00000000000E+00 -0.00000000000E+00 -0.75748891390E+03  0.75748891390E+03  0.00000000000E+00 0. -1.
         24    2    1    2    0    0  0.50133210989E+03 -0.17534762257E+03 -0.27215023209E+03  0.60214040976E+03  0.80166396295E+02 0.  0.
        254    2    1    2    0    0 -0.50133210989E+03  0.17534762257E+03  0.53880406126E+03  0.11794912472E+04  0.90488071737E+03 0.  0.
         23    2    4    4    0    0 -0.77985929789E+02 -0.28112706665E+03  0.45070007000E+03  0.54427946807E+03  0.89416740145E+02 0.  0.
         23    2    4    4    0    0 -0.42334618010E+03  0.45647468922E+03  0.88103991258E+02  0.63521177914E+03  0.90225057395E+02 0.  0.
          2    1    3    3  502    0  0.50310327463E+03 -0.17487594577E+03 -0.26529198006E+03  0.59504145741E+03  0.00000000000E+00 0. -1.
         -1    1    3    3    0  502 -0.17711647440E+01 -0.47167680469E+00 -0.68582520320E+01  0.70989523518E+01  0.00000000000E+00 0.  1.
         13    1    5    5    0    0 -0.10000267020E+02  0.40284246438E+01  0.26819884551E+02  0.28905704504E+02  0.00000000000E+00 0.  1.
        -13    1    5    5    0    0 -0.67985662769E+02 -0.28515549129E+03  0.42388018545E+03  0.51537376356E+03  0.00000000000E+00 0. -1.
          4    1    6    6  503    0 -0.23238833154E+03  0.29171993104E+03  0.17818693553E+02  0.37339303775E+03  0.00000000000E+00 0. -1.
         -4    1    6    6    0  503 -0.19095784856E+03  0.16475475818E+03  0.70285297705E+02  0.26181874139E+03  0.00000000000E+00 0.  1.
<mgrwt>
<rscale>  0 0.17615638E+04</rscale>
<asrwt>0</asrwt>
<pdfrwt beam="1">  1        2 0.11653675E+00 0.17615638E+04</pdfrwt>
<pdfrwt beam="2">  1       -1 0.15756042E+00 0.17615638E+04</pdfrwt>
<totfact> 0.12207073E+01</totfact>
</mgrwt>
</event>
<event>
12    7  0.1661464E-007  0.1379013E+04  0.7818608E-02  0.8969152E-01
          2   -1    0    0  501    0  0.00000000000E+00  0.00000000000E+00  0.31641077510E+03  0.31641077510E+03  0.00000000000E+00 0. -1.
         -1   -1    0    0    0  501 -0.00000000000E+00 -0.00000000000E+00 -0.15025374510E+04  0.15025374510E+04  0.00000000000E+00 0.  1.
         24    2    1    2    0    0  0.15347728671E+03 -0.14153367494E+03 -0.69931607496E+03  0.73417479468E+03  0.79891162004E+02 0.  0.
        254    2    1    2    0    0 -0.15347728671E+03  0.14153367494E+03 -0.48681060097E+03  0.10847734314E+04  0.94665821587E+03 0.  0.
         23    2    4    4    0    0 -0.15793604310E+03  0.26615211570E+03  0.20014150006E+03  0.38070465331E+03  0.95386951929E+02 0.  0.
         23    2    4    4    0    0  0.44587563962E+01 -0.12461844076E+03 -0.68695210102E+03  0.70406877814E+03  0.90884646445E+02 0.  0.
          4    1    3    3  502    0  0.76226381746E+02 -0.73960493633E+02 -0.22400499942E+03  0.24790896647E+03  0.00000000000E+00 0. -1.
         -3    1    3    3    0  502  0.77250904961E+02 -0.67573181312E+02 -0.47531107554E+03  0.48626582821E+03  0.00000000000E+00 0.  1.
         13    1    5    5    0    0 -0.73836916651E+02  0.13053760963E+03  0.15315674132E+03  0.21435705073E+03  0.00000000000E+00 0. -1.
        -13    1    5    5    0    0 -0.84099126453E+02  0.13561450607E+03  0.46984758743E+02  0.16634760257E+03  0.00000000000E+00 0.  1.
          2    1    6    6  503    0 -0.72731078327E+00 -0.11014555725E+03 -0.67666313276E+03  0.68556952091E+03  0.00000000000E+00 0. -1.
         -2    1    6    6    0  503  0.51860671795E+01 -0.14472883514E+02 -0.10288968260E+02  0.18499257224E+02  0.00000000000E+00 0.  1.
<mgrwt>
<rscale>  0 0.13790127E+04</rscale>
<asrwt>0</asrwt>
<pdfrwt beam="1">  1        2 0.48678581E-01 0.13790127E+04</pdfrwt>
<pdfrwt beam="2">  1       -1 0.23115961E+00 0.13790127E+04</pdfrwt>
<totfact> 0.10714687E+01</totfact>
</mgrwt>
</event>
<event>
12    7  0.1661464E-007  0.1518367E+04  0.7818608E-02  0.8872330E-01
         -1   -1    0    0    0  501 -0.00000000000E+00  0.00000000000E+00  0.38516986985E+03  0.38516986985E+03  0.00000000000E+00 0.  1.
          2   -1    0    0  501    0  0.00000000000E+00 -0.00000000000E+00 -0.14963783232E+04  0.14963783232E+04  0.00000000000E+00 0. -1.
         24    2    1    2    0    0  0.25398595375E+03  0.74537046345E+02  0.14816925462E+03  0.31377560472E+03  0.80226966308E+02 0.  0.
        254    2    1    2    0    0 -0.25398595375E+03 -0.74537046345E+02 -0.12593777080E+04  0.15677725883E+04  0.89544069677E+03 0.  0.
         23    2    4    4    0    0 -0.88602466134E+02 -0.33942204978E+03 -0.11771202879E+04  0.12322928552E+04  0.99376977773E+02 0.  0.
         23    2    4    4    0    0 -0.16538348762E+03  0.26488500344E+03 -0.82257420020E+02  0.33547973317E+03  0.90909874037E+02 0.  0.
          4    1    3    3  502    0  0.12712568376E+03  0.50191022310E+02  0.11928958243E+03  0.18141136312E+03  0.00000000000E+00 0. -1.
         -3    1    3    3    0  502  0.12686026999E+03  0.24346024035E+02  0.28879672182E+02  0.13236424160E+03  0.00000000000E+00 0.  1.
         13    1    5    5    0    0 -0.72154859441E+01 -0.14214661261E+02 -0.12139525977E+02  0.20037163550E+02  0.00000000000E+00 0. -1.
        -13    1    5    5    0    0 -0.81386980190E+02 -0.32520738852E+03 -0.11649807620E+04  0.12122556916E+04  0.00000000000E+00 0.  1.
          1    1    6    6  503    0  0.80484101551E+01  0.42323619125E+02 -0.11102013347E+02  0.44489553180E+02  0.00000000000E+00 0. -1.
         -1    1    6    6    0  503 -0.17343189777E+03  0.22256138431E+03 -0.71155406673E+02  0.29099017999E+03  0.00000000000E+00 0.  1.
<mgrwt>
<rscale>  0 0.15183673E+04</rscale>
<asrwt>0</asrwt>
<pdfrwt beam="1">  1        2 0.23021205E+00 0.15183673E+04</pdfrwt>
<pdfrwt beam="2">  1       -1 0.59256904E-01 0.15183673E+04</pdfrwt>
<totfact> 0.40478964E+01</totfact>
</mgrwt>
</event>
<event>
12    7  0.1661464E-007  0.2172818E+04  0.7818608E-02  0.8529828E-01
         -1   -1    0    0    0  501 -0.00000000000E+00  0.00000000000E+00  0.10071023048E+04  0.10071023048E+04  0.00000000000E+00 0.  1.
          2   -1    0    0  501    0  0.00000000000E+00 -0.00000000000E+00 -0.11719611722E+04  0.11719611722E+04  0.00000000000E+00 0. -1.
         24    2    1    2    0    0 -0.13719225680E+03 -0.25772694102E+03 -0.92065548291E+03  0.96918662740E+03  0.80444447188E+02 0.  0.
        254    2    1    2    0    0  0.13719225680E+03  0.25772694102E+03  0.75579661548E+03  0.12098768496E+04  0.89851464973E+03 0.  0.
         23    2    4    4    0    0  0.30198194348E+02 -0.10187212711E+02  0.87828239181E+03  0.88346366808E+03  0.90068767118E+02 0.  0.
         23    2    4    4    0    0  0.10699406245E+03  0.26791415373E+03 -0.12248577633E+03  0.32641318152E+03  0.91198007096E+02 0.  0.
          4    1    3    3  502    0 -0.87410112424E+02 -0.13585572238E+03 -0.62511051366E+03  0.64564731808E+03  0.00000000000E+00 0. -1.
         -3    1    3    3    0  502 -0.49782144375E+02 -0.12187121864E+03 -0.29554496925E+03  0.32353930933E+03  0.00000000000E+00 0.  1.
         13    1    5    5    0    0 -0.18438701669E+02 -0.32880154684E+02  0.24161925262E+03  0.24454233484E+03  0.00000000000E+00 0. -1.
        -13    1    5    5    0    0  0.48636896017E+02  0.22692941973E+02  0.63666313919E+03  0.63892133324E+03  0.00000000000E+00 0.  1.
          2    1    6    6  503    0  0.35543762298E+02  0.96457465494E+02  0.19839242890E+01  0.10281701048E+03  0.00000000000E+00 0. -1.
         -2    1    6    6    0  503  0.71450300153E+02  0.17145668824E+03 -0.12446970062E+03  0.22359617104E+03  0.00000000000E+00 0.  1.
<mgrwt>
<rscale>  0 0.21728183E+04</rscale>
<asrwt>0</asrwt>
<pdfrwt beam="1">  1        2 0.18030172E+00 0.21728183E+04</pdfrwt>
<pdfrwt beam="2">  1       -1 0.15493882E+00 0.21728183E+04</pdfrwt>
<totfact> 0.65701797E+00</totfact>
</mgrwt>
</event>
<event>
12    7  0.1661464E-007  0.1753095E+04  0.7818608E-02  0.8731648E-01
          2   -1    0    0  501    0  0.00000000000E+00  0.00000000000E+00  0.48284561077E+03  0.48284561077E+03  0.00000000000E+00 0. -1.
         -1   -1    0    0    0  501 -0.00000000000E+00 -0.00000000000E+00 -0.15912655503E+04  0.15912655503E+04  0.00000000000E+00 0.  1.
         24    2    1    2    0    0  0.16853615727E+03 -0.32870218396E+02  0.32349299581E+03  0.37535955648E+03  0.82232540616E+02 0.  0.
        254    2    1    2    0    0 -0.16853615727E+03  0.32870218396E+02 -0.14319129354E+04  0.16987516046E+04  0.89771792461E+03 0.  0.
         23    2    4    4    0    0 -0.19855793395E+02  0.45091055052E+03 -0.73316305603E+03  0.86600976005E+03  0.93435863980E+02 0.  0.
         23    2    4    4    0    0 -0.14868036388E+03 -0.41804033212E+03 -0.69874987934E+03  0.83274184457E+03  0.91345585261E+02 0.  0.
          4    1    3    3  502    0  0.14380752701E+03  0.28284394027E+01  0.21688091172E+03  0.26024206955E+03  0.00000000000E+00 0. -1.
         -3    1    3    3    0  502  0.24728630263E+02 -0.35698657799E+02  0.10661208408E+03  0.11511748693E+03  0.00000000000E+00 0.  1.
         13    1    5    5    0    0  0.25108002567E+02  0.48926043312E+02 -0.67231886231E+02  0.86857907143E+02  0.00000000000E+00 0.  1.
        -13    1    5    5    0    0 -0.44963795962E+02  0.40198450720E+03 -0.66593116980E+03  0.77915185291E+03  0.00000000000E+00 0. -1.
          1    1    6    6  503    0 -0.39898330905E+02 -0.24601895583E+03 -0.37128672467E+03  0.44718121087E+03  0.00000000000E+00 0. -1.
         -1    1    6    6    0  503 -0.10878203297E+03 -0.17202137629E+03 -0.32746315466E+03  0.38556063370E+03  0.00000000000E+00 0.  1.
<mgrwt>
<rscale>  0 0.17530951E+04</rscale>
<asrwt>0</asrwt>
<pdfrwt beam="1">  1        2 0.74283939E-01 0.17530951E+04</pdfrwt>
<pdfrwt beam="2">  1       -1 0.24481009E+00 0.17530951E+04</pdfrwt>
<totfact> 0.52366253E+00</totfact>
</mgrwt>
</event>
<event>
12    7  0.1661464E-007  0.2382873E+04  0.7818608E-02  0.8445944E-01
         -1   -1    0    0    0  501 -0.00000000000E+00  0.00000000000E+00  0.10390536757E+04  0.10390536757E+04  0.00000000000E+00 0.  1.
          2   -1    0    0  501    0  0.00000000000E+00 -0.00000000000E+00 -0.13661673450E+04  0.13661673450E+04  0.00000000000E+00 0. -1.
         24    2    1    2    0    0 -0.11240552583E+03  0.28525121115E+03 -0.11277650404E+04  0.11713808111E+04  0.79219710727E+02 0.  0.
        254    2    1    2    0    0  0.11240552583E+03 -0.28525121115E+03  0.80065137112E+03  0.12338402097E+04  0.88730817038E+03 0.  0.
         23    2    4    4    0    0  0.13088198094E+03  0.29894712702E+03  0.21326019765E+03  0.40020788819E+03  0.90481844455E+02 0.  0.
         23    2    4    4    0    0 -0.18476455105E+02 -0.58419833818E+03  0.58739117347E+03  0.83363232148E+03  0.91024057420E+02 0.  0.
          2    1    3    3  502    0 -0.11186552494E+03  0.19542575687E+03 -0.85783479065E+03  0.88689664007E+03  0.00000000000E+00 0. -1.
         -1    1    3    3    0  502 -0.54000089808E+00  0.89825454281E+02 -0.26993024976E+03  0.28448417105E+03  0.00000000000E+00 0.  1.
         13    1    5    5    0    0  0.52694708535E+02  0.22207100014E+03  0.13128264331E+03  0.26330095679E+03  0.00000000000E+00 0. -1.
        -13    1    5    5    0    0  0.78187272403E+02  0.76876126889E+02  0.81977554332E+02  0.13690693140E+03  0.00000000000E+00 0.  1.
          3    1    6    6  503    0  0.24970055816E+02 -0.35406674037E+03  0.39006816248E+03  0.52738973417E+03  0.00000000000E+00 0. -1.
         -3    1    6    6    0  503 -0.43446510920E+02 -0.23013159780E+03  0.19732301099E+03  0.30624258731E+03  0.00000000000E+00 0.  1.
<mgrwt>
<rscale>  0 0.23828732E+04</rscale>
<asrwt>0</asrwt>
<pdfrwt beam="1">  1        2 0.21017959E+00 0.23828732E+04</pdfrwt>
<pdfrwt beam="2">  1       -1 0.15985441E+00 0.23828732E+04</pdfrwt>
<totfact> 0.45494465E+00</totfact>
</mgrwt>
</event>
<event>
12    7  0.1661464E-007  0.1585128E+04  0.7818608E-02  0.8829737E-01
          2   -1    0    0  501    0  0.00000000000E+00  0.00000000000E+00  0.77350409313E+03  0.77350409313E+03  0.00000000000E+00 0. -1.
         -1   -1    0    0    0  501 -0.00000000000E+00 -0.00000000000E+00 -0.81209404308E+03  0.81209404308E+03  0.00000000000E+00 0.  1.
         24    2    1    2    0    0  0.38893699390E+03 -0.22952699506E+03  0.26616648126E+03  0.53029071585E+03  0.80056360692E+02 0.  0.
        254    2    1    2    0    0 -0.38893699390E+03  0.22952699506E+03 -0.30475643121E+03  0.10553074204E+04  0.90379347331E+03 0.  0.
         23    2    4    4    0    0 -0.60456406308E+03 -0.60437445457E+02 -0.29549506111E+03  0.68237589669E+03  0.95755637204E+02 0.  0.
         23    2    4    4    0    0  0.21562706919E+03  0.28996444052E+03 -0.92613701055E+01  0.37293152367E+03  0.91748235075E+02 0.  0.
          4    1    3    3  502    0  0.23309010096E+03 -0.10017870178E+03  0.17486315687E+03  0.30812966603E+03  0.00000000000E+00 0. -1.
         -3    1    3    3    0  502  0.15584689294E+03 -0.12934829329E+03  0.91303324388E+02  0.22216104982E+03  0.00000000000E+00 0.  1.
         13    1    5    5    0    0 -0.38150925207E+03  0.84851835366E+01 -0.18546942836E+03  0.42428789355E+03  0.00000000000E+00 0.  1.
        -13    1    5    5    0    0 -0.22305481102E+03 -0.68922628993E+02 -0.11002563274E+03  0.25808800314E+03  0.00000000000E+00 0. -1.
          3    1    6    6  503    0  0.17366184420E+03  0.22386612832E+03 -0.44977088741E+02  0.28687526567E+03  0.00000000000E+00 0. -1.
         -3    1    6    6    0  503  0.41965224982E+02  0.66098312193E+02  0.35715718636E+02  0.86056257995E+02  0.00000000000E+00 0.  1.
<mgrwt>
<rscale>  0 0.15851285E+04</rscale>
<asrwt>0</asrwt>
<pdfrwt beam="1">  1        2 0.11900063E+00 0.15851285E+04</pdfrwt>
<pdfrwt beam="2">  1       -1 0.12493754E+00 0.15851285E+04</pdfrwt>
<totfact> 0.22126766E+01</totfact>
</mgrwt>
</event>
<event>
12    7  0.1661464E-007  0.1914515E+04  0.7818608E-02  0.8647665E-01
          2   -1    0    0  501    0  0.00000000000E+00  0.00000000000E+00  0.17518493961E+04  0.17518493961E+04  0.00000000000E+00 0. -1.
         -1   -1    0    0    0  501 -0.00000000000E+00 -0.00000000000E+00 -0.52307127866E+03  0.52307127866E+03  0.00000000000E+00 0.  1.
         24    2    1    2    0    0  0.36579667519E+03  0.32778162209E+03  0.11300547306E+04  0.12349125698E+04  0.82081433210E+02 0.  0.
        254    2    1    2    0    0 -0.36579667519E+03 -0.32778162209E+03  0.98723386871E+02  0.10400081049E+04  0.91138496357E+03 0.  0.
         23    2    4    4    0    0 -0.54896231191E+03 -0.41643085083E+03 -0.14475006956E+03  0.70983865818E+03  0.90244471259E+02 0.  0.
         23    2    4    4    0    0  0.18316563672E+03  0.88649228736E+02  0.24347345644E+03  0.33016944674E+03  0.91237072176E+02 0.  0.
          4    1    3    3  502    0  0.29237154475E+03  0.29003184512E+03  0.99148994580E+03  0.10736162741E+04  0.00000000000E+00 0. -1.
         -3    1    3    3    0  502  0.73425130442E+02  0.37749776976E+02  0.13856478477E+03  0.16129629574E+03  0.00000000000E+00 0.  1.
         13    1    5    5    0    0 -0.27353412890E+03 -0.24159927365E+03 -0.39677819864E+02  0.36710415156E+03  0.00000000000E+00 0.  1.
        -13    1    5    5    0    0 -0.27542818301E+03 -0.17483157718E+03 -0.10507224970E+03  0.34273450662E+03  0.00000000000E+00 0. -1.
          1    1    6    6  503    0  0.35913597009E+02  0.54096103809E+02  0.38690678259E+02  0.75585339065E+02  0.00000000000E+00 0. -1.
         -1    1    6    6    0  503  0.14725203971E+03  0.34553124927E+02  0.20478277818E+03  0.25458410767E+03  0.00000000000E+00 0.  1.
<mgrwt>
<rscale>  0 0.19145152E+04</rscale>
<asrwt>0</asrwt>
<pdfrwt beam="1">  1        2 0.26951529E+00 0.19145152E+04</pdfrwt>
<pdfrwt beam="2">  1       -1 0.80472505E-01 0.19145152E+04</pdfrwt>
<totfact> 0.15060606E+01</totfact>
</mgrwt>
</event>
<event>
12    7  0.1661464E-007  0.1614322E+04  0.7818608E-02  0.8811797E-01
          2   -1    0    0  501    0  0.00000000000E+00  0.00000000000E+00  0.12837449062E+04  0.12837449062E+04  0.00000000000E+00 0. -1.
         -1   -1    0    0    0  501 -0.00000000000E+00 -0.00000000000E+00 -0.50750658627E+03  0.50750658627E+03  0.00000000000E+00 0.  1.
         24    2    1    2    0    0 -0.27341245809E+03  0.47928799812E+03  0.31408712643E+03  0.63976893557E+03  0.78627034461E+02 0.  0.
        254    2    1    2    0    0  0.27341245809E+03 -0.47928799812E+03  0.46215119353E+03  0.11514825569E+04  0.89880865365E+03 0.  0.
         23    2    4    4    0    0 -0.41334498340E+02 -0.14482896262E+03  0.63059836252E+03  0.65477467343E+03  0.91605725749E+02 0.  0.
         23    2    4    4    0    0  0.31474695643E+03 -0.33445903549E+03 -0.16844716898E+03  0.49670788351E+03  0.86114922033E+02 0.  0.
          2    1    3    3  502    0 -0.27794788393E+03  0.47266301118E+03  0.31371911920E+03  0.63173177384E+03  0.00000000000E+00 0. -1.
         -1    1    3    3    0  502  0.45354258383E+01  0.66249869308E+01  0.36800723529E+00  0.80371617312E+01  0.00000000000E+00 0.  1.
         13    1    5    5    0    0  0.22937908739E+02 -0.48222659477E+02  0.12315060959E+03  0.13422982227E+03  0.00000000000E+00 0. -1.
        -13    1    5    5    0    0 -0.64272407079E+02 -0.96606303147E+02  0.50744775292E+03  0.52054485116E+03  0.00000000000E+00 0.  1.
          2    1    6    6  503    0  0.11949442495E+03 -0.73753199252E+02 -0.35028211808E+02  0.14472535236E+03  0.00000000000E+00 0. -1.
         -2    1    6    6    0  503  0.19525253149E+03 -0.26070583624E+03 -0.13341895717E+03  0.35198253115E+03  0.00000000000E+00 0.  1.
<mgrwt>
<rscale>  0 0.16143221E+04</rscale>
<asrwt>0</asrwt>
<pdfrwt beam="1">  1        2 0.19749922E+00 0.16143221E+04</pdfrwt>
<pdfrwt beam="2">  1       -1 0.78077937E-01 0.16143221E+04</pdfrwt>
<totfact> 0.30312779E+01</totfact>
</mgrwt>
</event>
<event>
12    7  0.1661464E-007  0.1400410E+04  0.7818608E-02  0.8953522E-01
          2   -1    0    0  501    0  0.00000000000E+00  0.00000000000E+00  0.10193151384E+04  0.10193151384E+04  0.00000000000E+00 0. -1.
         -1   -1    0    0    0  501 -0.00000000000E+00 -0.00000000000E+00 -0.48099678827E+03  0.48099678827E+03  0.00000000000E+00 0.  1.
         24    2    1    2    0    0 -0.27320216977E+02  0.24564437618E+03 -0.17516880421E+03  0.31882709630E+03  0.99393428144E+02 0.  0.
        254    2    1    2    0    0  0.27320216977E+02 -0.24564437618E+03  0.71348715431E+03  0.11814848304E+04  0.90871058714E+03 0.  0.
         23    2    4    4    0    0 -0.32905696491E+03  0.15352393081E+03  0.16204798033E+03  0.40773998945E+03  0.90245595874E+02 0.  0.
         23    2    4    4    0    0  0.35637718189E+03 -0.39916830700E+03  0.55143917398E+03  0.77374484091E+03  0.90861890509E+02 0.  0.
          2    1    3    3  502    0  0.15068620695E+02  0.79466355467E+02 -0.10733999737E+03  0.13440178576E+03  0.00000000000E+00 0. -1.
         -1    1    3    3    0  502 -0.42388837672E+02  0.16617802072E+03 -0.67828806841E+02  0.18442531054E+03  0.00000000000E+00 0.  1.
         13    1    5    5    0    0 -0.24579076677E+03  0.68853647945E+02  0.10520283427E+03  0.27608252789E+03  0.00000000000E+00 0.  1.
        -13    1    5    5    0    0 -0.83266198140E+02  0.84670282868E+02  0.56845146061E+02  0.13165746156E+03  0.00000000000E+00 0. -1.
          3    1    6    6  503    0  0.11327685067E+03 -0.15828931652E+03  0.25627073998E+03  0.32181026210E+03  0.00000000000E+00 0. -1.
         -3    1    6    6    0  503  0.24310033122E+03 -0.24087899048E+03  0.29516843400E+03  0.45193457881E+03  0.00000000000E+00 0.  1.
<mgrwt>
<rscale>  0 0.14004104E+04</rscale>
<asrwt>0</asrwt>
<pdfrwt beam="1">  1        2 0.15681771E+00 0.14004104E+04</pdfrwt>
<pdfrwt beam="2">  1       -1 0.73999506E-01 0.14004104E+04</pdfrwt>
<totfact> 0.49992399E+01</totfact>
</mgrwt>
</event>
<event>
12    7  0.1661464E-007  0.1974218E+04  0.7818608E-02  0.8618770E-01
         -1   -1    0    0    0  501 -0.00000000000E+00  0.00000000000E+00  0.56469638828E+03  0.56469638828E+03  0.00000000000E+00 0.  1.
          2   -1    0    0  501    0  0.00000000000E+00 -0.00000000000E+00 -0.17255013426E+04  0.17255013426E+04  0.00000000000E+00 0. -1.
         24    2    1    2    0    0  0.38786186880E+03 -0.29499324007E+03  0.24398992204E+03  0.55083334772E+03  0.80177639992E+02 0.  0.
        254    2    1    2    0    0 -0.38786186880E+03  0.29499324007E+03 -0.14047948764E+04  0.17393643832E+04  0.90248654936E+03 0.  0.
         23    2    4    4    0    0 -0.29706641266E+03  0.46536442510E+03 -0.14189531925E+04  0.15252134894E+04  0.89641084229E+02 0.  0.
         23    2    4    4    0    0 -0.90795456144E+02 -0.17037118503E+03  0.14158316135E+02  0.21415089378E+03  0.91596898671E+02 0.  0.
          2    1    3    3  502    0  0.13949075669E+03 -0.66938040962E+02  0.99745645775E+02  0.18408575822E+03  0.00000000000E+00 0. -1.
         -1    1    3    3    0  502  0.24837111211E+03 -0.22805519911E+03  0.14424427626E+03  0.36674758950E+03  0.00000000000E+00 0.  1.
         13    1    5    5    0    0 -0.56272809425E+02  0.71410940286E+02 -0.33284304976E+03  0.34503716792E+03  0.00000000000E+00 0.  1.
        -13    1    5    5    0    0 -0.24079360323E+03  0.39395348482E+03 -0.10861101427E+04  0.11801763215E+04  0.00000000000E+00 0. -1.
          1    1    6    6  503    0 -0.73241552269E+02 -0.12389276301E+03 -0.30759893218E+02  0.14717307069E+03  0.00000000000E+00 0. -1.
         -1    1    6    6    0  503 -0.17553903875E+02 -0.46478422023E+02  0.44918209353E+02  0.66977823095E+02  0.00000000000E+00 0.  1.
<mgrwt>
<rscale>  0 0.19742182E+04</rscale>
<asrwt>0</asrwt>
<pdfrwt beam="1">  1        2 0.26546174E+00 0.19742182E+04</pdfrwt>
<pdfrwt beam="2">  1       -1 0.86876368E-01 0.19742182E+04</pdfrwt>
<totfact> 0.13138279E+01</totfact>
</mgrwt>
</event>
<event>
12    7  0.1661464E-007  0.1390685E+04  0.7818608E-02  0.8960589E-01
         -1   -1    0    0    0  501 -0.00000000000E+00  0.00000000000E+00  0.20057761126E+03  0.20057761126E+03  0.00000000000E+00 0.  1.
          2   -1    0    0  501    0  0.00000000000E+00 -0.00000000000E+00 -0.24105446230E+04  0.24105446230E+04  0.00000000000E+00 0. -1.
         24    2    1    2    0    0 -0.28789604520E+03 -0.72323379814E+02 -0.14713588936E+03  0.34087878363E+03  0.80215778285E+02 0.  0.
        254    2    1    2    0    0  0.28789604520E+03  0.72323379814E+02 -0.20628311224E+04  0.22702434507E+04  0.90034342425E+03 0.  0.
         23    2    4    4    0    0  0.24690666848E+02 -0.33488197484E+03 -0.14101279391E+04  0.14524506524E+04  0.91632564795E+02 0.  0.
         23    2    4    4    0    0  0.26320537835E+03  0.40720535465E+03 -0.65270318337E+03  0.81779279832E+03  0.87580496416E+02 0.  0.
          4    1    3    3  502    0 -0.12604303556E+03 -0.65574158374E+02 -0.43579053195E+02  0.14861342785E+03  0.00000000000E+00 0. -1.
         -3    1    3    3    0  502 -0.16185300963E+03 -0.67492214406E+01 -0.10355683616E+03  0.19226535578E+03  0.00000000000E+00 0.  1.
         13    1    5    5    0    0  0.12175228013E+02 -0.18644098117E+03 -0.58913492405E+03  0.61805212917E+03  0.00000000000E+00 0.  1.
        -13    1    5    5    0    0  0.12515438835E+02 -0.14844099367E+03 -0.82099301500E+03  0.83439852319E+03  0.00000000000E+00 0. -1.
          1    1    6    6  503    0  0.15622198655E+03  0.16560325537E+03 -0.27865667799E+03  0.35983231020E+03  0.00000000000E+00 0. -1.
         -1    1    6    6    0  503  0.10698339180E+03  0.24160209928E+03 -0.37404650537E+03  0.45796048812E+03  0.00000000000E+00 0.  1.
<mgrwt>
<rscale>  0 0.13906851E+04</rscale>
<asrwt>0</asrwt>
<pdfrwt beam="1">  1        2 0.37085303E+00 0.13906851E+04</pdfrwt>
<pdfrwt beam="2">  1       -1 0.30858093E-01 0.13906851E+04</pdfrwt>
<totfact> 0.42353610E+01</totfact>
</mgrwt>
</event>
<event>
12    7  0.1661464E-007  0.3457028E+04  0.7818608E-02  0.8124050E-01
          2   -1    0    0  501    0  0.00000000000E+00  0.00000000000E+00  0.15391948624E+04  0.15391948624E+04  0.00000000000E+00 0. -1.
         -1   -1    0    0    0  501 -0.00000000000E+00 -0.00000000000E+00 -0.19411195935E+04  0.19411195935E+04  0.00000000000E+00 0.  1.
         24    2    1    2    0    0  0.78329704239E+03  0.14061852214E+04 -0.21846367590E+03  0.16263372641E+04  0.79595136214E+02 0.  0.
        254    2    1    2    0    0 -0.78329704239E+03 -0.14061852214E+04 -0.18346105523E+03  0.18539771918E+04  0.90147786197E+03 0.  0.
         23    2    4    4    0    0 -0.83440848957E+03 -0.14905169043E+04 -0.17302468870E+03  0.17193879113E+04  0.92081906160E+02 0.  0.
         23    2    4    4    0    0  0.51111447181E+02  0.84331682904E+02 -0.10436366528E+02  0.13458928047E+03  0.91000790637E+02 0.  0.
          4    1    3    3  502    0  0.51504295265E+03  0.97093553486E+03 -0.11936583593E+03  0.11055465882E+04  0.00000000000E+00 0. -1.
         -3    1    3    3    0  502  0.26825408974E+03  0.43524968649E+03 -0.99097839964E+02  0.52079067594E+03  0.00000000000E+00 0.  1.
         13    1    5    5    0    0 -0.56548710628E+03 -0.10427910795E+04 -0.15956754018E+03  0.11969338757E+04  0.00000000000E+00 0.  1.
        -13    1    5    5    0    0 -0.26892138329E+03 -0.44772582472E+03 -0.13457148523E+02  0.52245403564E+03  0.00000000000E+00 0. -1.
          2    1    6    6  503    0 -0.23448374024E+02  0.13123674510E+02  0.11420422785E+02  0.29197313808E+02  0.00000000000E+00 0. -1.
         -2    1    6    6    0  503  0.74559821205E+02  0.71208008394E+02 -0.21856789313E+02  0.10539196666E+03  0.00000000000E+00 0.  1.
<mgrwt>
<rscale>  0 0.34570284E+04</rscale>
<asrwt>0</asrwt>
<pdfrwt beam="1">  1        2 0.23679921E+00 0.34570284E+04</pdfrwt>
<pdfrwt beam="2">  1       -1 0.29863378E+00 0.34570284E+04</pdfrwt>
<totfact> 0.38167287E-01</totfact>
</mgrwt>
</event>
<event>
12    7  0.1661464E-007  0.1366244E+04  0.7818608E-02  0.8978622E-01
          2   -1    0    0  501    0  0.00000000000E+00  0.00000000000E+00  0.20108207070E+04  0.20108207070E+04  0.00000000000E+00 0. -1.
         -1   -1    0    0    0  501 -0.00000000000E+00 -0.00000000000E+00 -0.23207221415E+03  0.23207221415E+03  0.00000000000E+00 0.  1.
         24    2    1    2    0    0 -0.36881490624E+03  0.44113634060E+02  0.44405556915E+03  0.58401269821E+03  0.76909267306E+02 0.  0.
        254    2    1    2    0    0  0.36881490624E+03 -0.44113634060E+02  0.13346929237E+04  0.16588802229E+04  0.91241873373E+03 0.  0.
         23    2    4    4    0    0 -0.26654893824E+02  0.20379083278E+03 -0.17346911614E+02  0.22572494325E+03  0.91704131711E+02 0.  0.
         23    2    4    4    0    0  0.39546980007E+03 -0.24790446683E+03  0.13520398353E+04  0.14331552796E+04  0.89829571820E+02 0.  0.
          4    1    3    3  502    0 -0.43230818233E+02  0.20168125264E+02  0.93617654957E+02  0.10507103426E+03  0.00000000000E+00 0. -1.
         -3    1    3    3    0  502 -0.32558408801E+03  0.23945508796E+02  0.35043791419E+03  0.47894166394E+03  0.00000000000E+00 0.  1.
         13    1    5    5    0    0  0.18915561320E+02  0.28155472017E+02  0.21503742096E+02  0.40161424137E+02  0.00000000000E+00 0. -1.
        -13    1    5    5    0    0 -0.45570455144E+02  0.17563536076E+03 -0.38850653710E+02  0.18556351911E+03  0.00000000000E+00 0.  1.
          2    1    6    6  503    0  0.12217975044E+03 -0.11473870974E+03  0.39809570144E+03  0.43194102657E+03  0.00000000000E+00 0. -1.
         -2    1    6    6    0  503  0.27329004963E+03 -0.13316575710E+03  0.95394413384E+03  0.10012142531E+04  0.00000000000E+00 0.  1.
<mgrwt>
<rscale>  0 0.13662439E+04</rscale>
<asrwt>0</asrwt>
<pdfrwt beam="1">  1        2 0.30935702E+00 0.13662439E+04</pdfrwt>
<pdfrwt beam="2">  1       -1 0.35703419E-01 0.13662439E+04</pdfrwt>
<totfact> 0.54869833E+01</totfact>
</mgrwt>
</event>
<event>
12    7  0.1661464E-007  0.1580593E+04  0.7818608E-02  0.8832560E-01
          2   -1    0    0  501    0  0.00000000000E+00  0.00000000000E+00  0.17410314198E+04  0.17410314198E+04  0.00000000000E+00 0. -1.
         -1   -1    0    0    0  501 -0.00000000000E+00 -0.00000000000E+00 -0.35873502274E+03  0.35873502274E+03  0.00000000000E+00 0.  1.
         24    2    1    2    0    0 -0.34921233959E+03 -0.32662593604E+03  0.77493088532E+03  0.91386252758E+03  0.77414999073E+02 0.  0.
        254    2    1    2    0    0  0.34921233959E+03  0.32662593604E+03  0.60736551175E+03  0.11859039150E+04  0.89935614217E+03 0.  0.
         23    2    4    4    0    0 -0.18194063471E+03  0.84172506215E+02 -0.11909880376E+03  0.24945860970E+03  0.88643485579E+02 0.  0.
         23    2    4    4    0    0  0.53115297429E+03  0.24245342982E+03  0.72646431551E+03  0.93644530527E+03  0.90951967087E+02 0.  0.
          4    1    3    3  502    0 -0.34696418829E+02 -0.21391652507E+02  0.34318079511E+02  0.53283908057E+02  0.00000000000E+00 0. -1.
         -1    1    3    3    0  502 -0.31451592076E+03 -0.30523428353E+03  0.74061280581E+03  0.86057861952E+03  0.00000000000E+00 0.  1.
         13    1    5    5    0    0  0.96849366275E+01 -0.43211973255E+00 -0.60685225950E+01  0.11437293886E+02  0.00000000000E+00 0. -1.
        -13    1    5    5    0    0 -0.19162557134E+03  0.84604625947E+02 -0.11303028116E+03  0.23802131581E+03  0.00000000000E+00 0.  1.
          1    1    6    6  503    0  0.59059144181E+01  0.15410610534E+02  0.36606769475E+02  0.40154978690E+02  0.00000000000E+00 0. -1.
         -1    1    6    6    0  503  0.52524705988E+03  0.22704281929E+03  0.68985754603E+03  0.89629032658E+03  0.00000000000E+00 0.  1.
<mgrwt>
<rscale>  0 0.15805935E+04</rscale>
<asrwt>0</asrwt>
<pdfrwt beam="1">  1        2 0.26785098E+00 0.15805935E+04</pdfrwt>
<pdfrwt beam="2">  1       -1 0.55190005E-01 0.15805935E+04</pdfrwt>
<totfact> 0.33782733E+01</totfact>
</mgrwt>
</event>
<event>
12    7  0.1661464E-007  0.1623363E+04  0.7818608E-02  0.8806322E-01
         -1   -1    0    0    0  501 -0.00000000000E+00  0.00000000000E+00  0.53956414571E+03  0.53956414571E+03  0.00000000000E+00 0.  1.
          2   -1    0    0  501    0  0.00000000000E+00 -0.00000000000E+00 -0.12210359501E+04  0.12210359501E+04  0.00000000000E+00 0. -1.
         24    2    1    2    0    0 -0.19512728284E+03  0.52236554740E+03 -0.32518040748E+03  0.65034882586E+03  0.79188864598E+02 0.  0.
        254    2    1    2    0    0  0.19512728284E+03 -0.52236554740E+03 -0.35629139693E+03  0.11102512700E+04  0.89150092615E+03 0.  0.
         23    2    4    4    0    0  0.48112932413E+03 -0.80109294751E+02 -0.28137178826E+03  0.57041852291E+03  0.91127835489E+02 0.  0.
         23    2    4    4    0    0 -0.28600204130E+03 -0.44225625265E+03 -0.74919608672E+02  0.53983274706E+03  0.91753399965E+02 0.  0.
          2    1    3    3  502    0 -0.35501756965E+02  0.59828399898E+02 -0.15488750898E+02  0.71272109456E+02  0.00000000000E+00 0. -1.
         -1    1    3    3    0  502 -0.15962552587E+03  0.46253714750E+03 -0.30969165658E+03  0.57907671641E+03  0.00000000000E+00 0.  1.
         13    1    5    5    0    0  0.42668173225E+01  0.82856226489E+01 -0.13405990903E+02  0.16327212403E+02  0.00000000000E+00 0.  1.
        -13    1    5    5    0    0  0.47686250681E+03 -0.88394917400E+02 -0.26796579736E+03  0.55409131051E+03  0.00000000000E+00 0. -1.
          2    1    6    6  503    0 -0.20299899984E+03 -0.32428639129E+03 -0.12846100889E+02  0.38279926831E+03  0.00000000000E+00 0. -1.
         -2    1    6    6    0  503 -0.83003041460E+02 -0.11796986135E+03 -0.62073507783E+02  0.15703347875E+03  0.00000000000E+00 0.  1.
<mgrwt>
<rscale>  0 0.16233634E+04</rscale>
<asrwt>0</asrwt>
<pdfrwt beam="1">  1        2 0.18785168E+00 0.16233634E+04</pdfrwt>
<pdfrwt beam="2">  1       -1 0.83009869E-01 0.16233634E+04</pdfrwt>
<totfact> 0.28945932E+01</totfact>
</mgrwt>
</event>
<event>
12    7  0.1661464E-007  0.1924571E+04  0.7818608E-02  0.8642722E-01
          2   -1    0    0  501    0  0.00000000000E+00  0.00000000000E+00  0.16110549960E+04  0.16110549960E+04  0.00000000000E+00 0. -1.
         -1   -1    0    0    0  501 -0.00000000000E+00 -0.00000000000E+00 -0.57477425580E+03  0.57477425580E+03  0.00000000000E+00 0.  1.
         24    2    1    2    0    0 -0.20564613581E+03 -0.23416215369E+03 -0.37143597673E+03  0.49163328428E+03  0.81340973738E+02 0.  0.
        254    2    1    2    0    0  0.20564613581E+03  0.23416215369E+03  0.14077167169E+04  0.16941959675E+04  0.88966924967E+03 0.  0.
         23    2    4    4    0    0 -0.44528128617E+02 -0.31020719691E+03  0.61729978156E+03  0.69839284862E+03  0.92099356295E+02 0.  0.
         23    2    4    4    0    0  0.25017426443E+03  0.54436935060E+03  0.79041693536E+03  0.99580311888E+03  0.89105372551E+02 0.  0.
          2    1    3    3  502    0 -0.13932476012E+02  0.55881012742E+01 -0.19970093319E+02  0.24982901970E+02  0.00000000000E+00 0. -1.
         -1    1    3    3    0  502 -0.19171365980E+03 -0.23975025497E+03 -0.35146588341E+03  0.46665038231E+03  0.00000000000E+00 0.  1.
         13    1    5    5    0    0 -0.64139061034E+02 -0.12597520224E+03  0.26550931830E+03  0.30079688966E+03  0.00000000000E+00 0.  1.
        -13    1    5    5    0    0  0.19610932417E+02 -0.18423199468E+03  0.35179046326E+03  0.39759595895E+03  0.00000000000E+00 0. -1.
          3    1    6    6  503    0  0.15700103631E+03  0.43244364511E+03  0.60072166205E+03  0.75665272540E+03  0.00000000000E+00 0. -1.
         -3    1    6    6    0  503  0.93173228117E+02  0.11192570550E+03  0.18969527331E+03  0.23915039349E+03  0.00000000000E+00 0.  1.
<mgrwt>
<rscale>  0 0.19245705E+04</rscale>
<asrwt>0</asrwt>
<pdfrwt beam="1">  1        2 0.24785461E+00 0.19245705E+04</pdfrwt>
<pdfrwt beam="2">  1       -1 0.88426809E-01 0.19245705E+04</pdfrwt>
<totfact> 0.14701216E+01</totfact>
</mgrwt>
</event>
<event>
12    7  0.1661464E-007  0.1525298E+04  0.7818608E-02  0.8867802E-01
         -1   -1    0    0    0  501 -0.00000000000E+00  0.00000000000E+00  0.38099385157E+03  0.38099385157E+03  0.00000000000E+00 0.  1.
          2   -1    0    0  501    0  0.00000000000E+00 -0.00000000000E+00 -0.15266212516E+04  0.15266212516E+04  0.00000000000E+00 0. -1.
         24    2    1    2    0    0  0.20492648055E+03 -0.19096418612E+03 -0.86805422570E+03  0.91564514198E+03  0.80160491894E+02 0.  0.
        254    2    1    2    0    0 -0.20492648055E+03  0.19096418612E+03 -0.27757317427E+03  0.99196996114E+03  0.91021720151E+03 0.  0.
         23    2    4    4    0    0 -0.14433472001E+03  0.46014287586E+03 -0.44156092843E+03  0.65905086948E+03  0.82510711063E+02 0.  0.
         23    2    4    4    0    0 -0.60591760540E+02 -0.26917868975E+03  0.16398775416E+03  0.33291909166E+03  0.88400280654E+02 0.  0.
          2    1    3    3  502    0  0.16266474135E+03 -0.16266833680E+03 -0.78720115802E+03  0.82012588611E+03  0.00000000000E+00 0. -1.
         -1    1    3    3    0  502  0.42261739195E+02 -0.28295849318E+02 -0.80853067681E+02  0.95519255869E+02  0.00000000000E+00 0.  1.
         13    1    5    5    0    0 -0.65038050858E+02  0.23208994123E+03 -0.27526550246E+03  0.36587810227E+03  0.00000000000E+00 0. -1.
        -13    1    5    5    0    0 -0.79296669148E+02  0.22805293464E+03 -0.16629542598E+03  0.29317276721E+03  0.00000000000E+00 0.  1.
          1    1    6    6  503    0 -0.22377950385E+02 -0.13133637830E+03  0.12946260320E+03  0.18577024131E+03  0.00000000000E+00 0. -1.
         -1    1    6    6    0  503 -0.38213810155E+02 -0.13784231145E+03  0.34525150958E+02  0.14714885035E+03  0.00000000000E+00 0.  1.
<mgrwt>
<rscale>  0 0.15252978E+04</rscale>
<asrwt>0</asrwt>
<pdfrwt beam="1">  1        2 0.23486480E+00 0.15252978E+04</pdfrwt>
<pdfrwt beam="2">  1       -1 0.58614439E-01 0.15252978E+04</pdfrwt>
<totfact> 0.39742578E+01</totfact>
</mgrwt>
</event>
<event>
12    7  0.1661464E-007  0.1456001E+04  0.7818608E-02  0.8914251E-01
         -1   -1    0    0    0  501 -0.00000000000E+00  0.00000000000E+00  0.12719423891E+03  0.12719423891E+03  0.00000000000E+00 0.  1.
          2   -1    0    0  501    0  0.00000000000E+00 -0.00000000000E+00 -0.41667359614E+04  0.41667359614E+04  0.00000000000E+00 0. -1.
         24    2    1    2    0    0 -0.24113391636E+03  0.71958695444E+02 -0.23358641308E+04  0.23505206358E+04  0.73228424425E+02 0.  0.
        254    2    1    2    0    0  0.24113391636E+03 -0.71958695444E+02 -0.17036775917E+04  0.19434095646E+04  0.90055526187E+03 0.  0.
         23    2    4    4    0    0  0.10796121740E+03 -0.13919631080E+02  0.71996280029E+02  0.15950178580E+03  0.91695009369E+02 0.  0.
         23    2    4    4    0    0  0.13317269896E+03 -0.58039064363E+02 -0.17756738718E+04  0.17839077788E+04  0.90585669968E+02 0.  0.
          4    1    3    3  502    0 -0.69913036568E+02  0.49329279081E+01 -0.93808295045E+03  0.94069750099E+03  0.00000000000E+00 0. -1.
         -3    1    3    3    0  502 -0.17122087979E+03  0.67025767536E+02 -0.13977811804E+04  0.14098231348E+04  0.00000000000E+00 0.  1.
         13    1    5    5    0    0 -0.75373631428E+01  0.14306187194E+02 -0.60634955615E+01  0.17269765881E+02  0.00000000000E+00 0. -1.
        -13    1    5    5    0    0  0.11549858054E+03 -0.28225818274E+02  0.78059775590E+02  0.14223201992E+03  0.00000000000E+00 0.  1.
          4    1    6    6  503    0 -0.13681739287E+02 -0.82360156382E+01 -0.14463151824E+03  0.14551047389E+03  0.00000000000E+00 0. -1.
         -4    1    6    6    0  503  0.14685443825E+03 -0.49803048725E+02 -0.16310423535E+04  0.16383973049E+04  0.00000000000E+00 0.  1.
<mgrwt>
<rscale>  0 0.14560011E+04</rscale>
<asrwt>0</asrwt>
<pdfrwt beam="1">  1        2 0.64103626E+00 0.14560011E+04</pdfrwt>
<pdfrwt beam="2">  1       -1 0.19568346E-01 0.14560011E+04</pdfrwt>
<totfact> 0.59925191E+00</totfact>
</mgrwt>
</event>
<event>
12    7  0.1661464E-007  0.2529471E+04  0.7818608E-02  0.8392561E-01
          2   -1    0    0  501    0  0.00000000000E+00  0.00000000000E+00  0.26865639380E+04  0.26865639380E+04  0.00000000000E+00 0. -1.
         -1   -1    0    0    0  501 -0.00000000000E+00 -0.00000000000E+00 -0.59539118286E+03  0.59539118286E+03  0.00000000000E+00 0.  1.
         24    2    1    2    0    0 -0.45982567842E+02  0.50220898734E+03 -0.35885289064E+03  0.62416797006E+03  0.80510832880E+02 0.  0.
        254    2    1    2    0    0  0.45982567842E+02 -0.50220898734E+03  0.24500256458E+04  0.26577871508E+04  0.89826422090E+03 0.  0.
         23    2    4    4    0    0 -0.34170716533E+03 -0.21244858580E+03  0.50839397161E+03  0.65461185993E+03  0.90299880063E+02 0.  0.
         23    2    4    4    0    0  0.38768973318E+03 -0.28976040154E+03  0.19416316741E+04  0.20031752909E+04  0.92267374360E+02 0.  0.
          2    1    3    3  502    0 -0.22865575299E+02  0.29486087484E+03 -0.16143703938E+03  0.33693870026E+03  0.00000000000E+00 0. -1.
         -1    1    3    3    0  502 -0.23116992543E+02  0.20734811250E+03 -0.19741585126E+03  0.28722926980E+03  0.00000000000E+00 0.  1.
         13    1    5    5    0    0 -0.62908435817E+02 -0.28208441123E+01  0.90823075087E+02  0.11051814071E+03  0.00000000000E+00 0. -1.
        -13    1    5    5    0    0 -0.27879872952E+03 -0.20962774169E+03  0.41757089652E+03  0.54409371921E+03  0.00000000000E+00 0.  1.
          3    1    6    6  503    0  0.66044865412E+02 -0.70442228071E+02  0.26807354392E+03  0.28493412694E+03  0.00000000000E+00 0. -1.
         -3    1    6    6    0  503  0.32164486776E+03 -0.21931817347E+03  0.16735581302E+04  0.17182411639E+04  0.00000000000E+00 0.  1.
<mgrwt>
<rscale>  0 0.25294715E+04</rscale>
<asrwt>0</asrwt>
<pdfrwt beam="1">  1        2 0.41331752E+00 0.25294715E+04</pdfrwt>
<pdfrwt beam="2">  1       -1 0.91598645E-01 0.25294715E+04</pdfrwt>
<totfact> 0.31789320E+00</totfact>
</mgrwt>
</event>
<event>
12    7  0.1661464E-007  0.1679004E+04  0.7818608E-02  0.8773430E-01
         -1   -1    0    0    0  501 -0.00000000000E+00  0.00000000000E+00  0.48263546722E+03  0.48263546722E+03  0.00000000000E+00 0.  1.
          2   -1    0    0  501    0  0.00000000000E+00 -0.00000000000E+00 -0.14602402237E+04  0.14602402237E+04  0.00000000000E+00 0. -1.
         24    2    1    2    0    0  0.32124531439E+03  0.63384742028E+02 -0.92204883409E+03  0.98170971243E+03  0.79772987193E+02 0.  0.
        254    2    1    2    0    0 -0.32124531439E+03 -0.63384742028E+02 -0.55555922401E+02  0.96116597851E+03  0.90196308139E+03 0.  0.
         23    2    4    4    0    0 -0.36327213961E+02 -0.41397238756E+03  0.15612393676E+03  0.45342161212E+03  0.92323727025E+02 0.  0.
         23    2    4    4    0    0 -0.28491810043E+03  0.35058764553E+03 -0.21167985916E+03  0.50774436639E+03  0.94371381656E+02 0.  0.
          2    1    3    3  502    0  0.30226020667E+03  0.45335457086E+02 -0.78950062342E+03  0.84659776197E+03  0.00000000000E+00 0. -1.
         -1    1    3    3    0  502  0.18985107720E+02  0.18049284942E+02 -0.13254821068E+03  0.13511195046E+03  0.00000000000E+00 0.  1.
         13    1    5    5    0    0 -0.29018270541E+02 -0.59683050723E+02  0.51294871850E+02  0.83876638267E+02  0.00000000000E+00 0. -1.
        -13    1    5    5    0    0 -0.73089434199E+01 -0.35428933684E+03  0.10482906491E+03  0.36954497385E+03  0.00000000000E+00 0.  1.
          1    1    6    6  503    0 -0.20495513393E+02  0.71334944342E+02 -0.55432563673E+02  0.92636437047E+02  0.00000000000E+00 0. -1.
         -1    1    6    6    0  503 -0.26442258703E+03  0.27925270119E+03 -0.15624729549E+03  0.41510792934E+03  0.00000000000E+00 0.  1.
<mgrwt>
<rscale>  0 0.16790041E+04</rscale>
<asrwt>0</asrwt>
<pdfrwt beam="1">  1        2 0.22465234E+00 0.16790041E+04</pdfrwt>
<pdfrwt beam="2">  1       -1 0.74251610E-01 0.16790041E+04</pdfrwt>
<totfact> 0.26513696E+01</totfact>
</mgrwt>
</event>
<event>
12    7  0.1661464E-007  0.1583452E+04  0.7818608E-02  0.8830779E-01
         -1   -1    0    0    0  501 -0.00000000000E+00  0.00000000000E+00  0.32361000039E+03  0.32361000039E+03  0.00000000000E+00 0.  1.
          2   -1    0    0  501    0  0.00000000000E+00 -0.00000000000E+00 -0.19369924988E+04  0.19369924988E+04  0.00000000000E+00 0. -1.
         24    2    1    2    0    0  0.44413690550E+03 -0.21804345035E+03 -0.27000022712E+03  0.56972652494E+03  0.82991888187E+02 0.  0.
        254    2    1    2    0    0 -0.44413690550E+03  0.21804345035E+03 -0.13433822713E+04  0.16908759742E+04  0.89976946847E+03 0.  0.
         23    2    4    4    0    0 -0.53793563927E+03  0.35759359462E+03 -0.13499957421E+04  0.14994033813E+04  0.92054686533E+02 0.  0.
         23    2    4    4    0    0  0.93798733770E+02 -0.13955014426E+03  0.66134708083E+01  0.19147259293E+03  0.91354094737E+02 0.  0.
          4    1    3    3  502    0  0.59174816476E+02 -0.51276426335E+02 -0.18051070633E+02  0.80354041303E+02  0.00000000000E+00 0. -1.
         -3    1    3    3    0  502  0.38496208903E+03 -0.16676702402E+03 -0.25194915649E+03  0.48937248364E+03  0.00000000000E+00 0.  1.
         13    1    5    5    0    0 -0.31904912725E+03  0.25642153002E+03 -0.90533379202E+03  0.99356611337E+03  0.00000000000E+00 0.  1.
        -13    1    5    5    0    0 -0.21888651202E+03  0.10117206459E+03 -0.44466195005E+03  0.50583726793E+03  0.00000000000E+00 0. -1.
          2    1    6    6  503    0  0.87366369756E+02 -0.85889678693E+02  0.38870549159E+02  0.12853341613E+03  0.00000000000E+00 0. -1.
         -2    1    6    6    0  503  0.64323640146E+01 -0.53660465572E+02 -0.32257078351E+02  0.62939176798E+02  0.00000000000E+00 0.  1.
<mgrwt>
<rscale>  0 0.15834521E+04</rscale>
<asrwt>0</asrwt>
<pdfrwt beam="1">  1        2 0.29799884E+00 0.15834521E+04</pdfrwt>
<pdfrwt beam="2">  1       -1 0.49786154E-01 0.15834521E+04</pdfrwt>
<totfact> 0.32059216E+01</totfact>
</mgrwt>
</event>
<event>
12    7  0.1661464E-007  0.1206296E+04  0.7818608E-02  0.9107363E-01
         -1   -1    0    0    0  501 -0.00000000000E+00  0.00000000000E+00  0.19177515596E+03  0.19177515596E+03  0.00000000000E+00 0.  1.
          2   -1    0    0  501    0  0.00000000000E+00 -0.00000000000E+00 -0.18969492805E+04  0.18969492805E+04  0.00000000000E+00 0. -1.
         24    2    1    2    0    0 -0.67976735038E+02 -0.22123049113E+03 -0.16057782041E+03  0.29281556907E+03  0.79949699015E+02 0.  0.
        254    2    1    2    0    0  0.67976735038E+02  0.22123049113E+03 -0.15445963042E+04  0.17959088674E+04  0.88653660414E+03 0.  0.
         23    2    4    4    0    0  0.25579886467E+03  0.26255678627E+03 -0.15395340445E+04  0.15852082344E+04  0.91383516286E+02 0.  0.
         23    2    4    4    0    0 -0.18782212964E+03 -0.41326295141E+02 -0.50622596413E+01  0.21070063299E+03  0.85930874647E+02 0.  0.
          2    1    3    3  502    0 -0.27964805371E+02 -0.55632086152E+02 -0.87611828650E+02  0.10748391446E+03  0.00000000000E+00 0. -1.
         -1    1    3    3    0  502 -0.40011929667E+02 -0.16559840498E+03 -0.72965991757E+02  0.18533165461E+03  0.00000000000E+00 0.  1.
         13    1    5    5    0    0  0.16425950955E+03  0.12595684612E+03 -0.71118658655E+03  0.74069742436E+03  0.00000000000E+00 0.  1.
        -13    1    5    5    0    0  0.91539355128E+02  0.13659994015E+03 -0.82834745796E+03  0.84451081005E+03  0.00000000000E+00 0. -1.
          1    1    6    6  503    0 -0.89969319728E+02 -0.36471363712E+02  0.37249087135E+02  0.10398140870E+03  0.00000000000E+00 0. -1.
         -1    1    6    6    0  503 -0.97852809907E+02 -0.48549314293E+01 -0.42311346776E+02  0.10671922428E+03  0.00000000000E+00 0.  1.
<mgrwt>
<rscale>  0 0.12062964E+04</rscale>
<asrwt>0</asrwt>
<pdfrwt beam="1">  1        2 0.29183836E+00 0.12062964E+04</pdfrwt>
<pdfrwt beam="2">  1       -1 0.29503869E-01 0.12062964E+04</pdfrwt>
<totfact> 0.90061862E+01</totfact>
</mgrwt>
</event>
<event>
12    7  0.1661464E-007  0.2349243E+04  0.7818608E-02  0.8458755E-01
         -1   -1    0    0    0  501 -0.00000000000E+00  0.00000000000E+00  0.94983524327E+03  0.94983524327E+03  0.00000000000E+00 0.  1.
          2   -1    0    0  501    0  0.00000000000E+00 -0.00000000000E+00 -0.14526049669E+04  0.14526049669E+04  0.00000000000E+00 0. -1.
         24    2    1    2    0    0  0.70422802803E+03 -0.39934067933E+03  0.38909695742E+03  0.90133465164E+03  0.74817232931E+02 0.  0.
        254    2    1    2    0    0 -0.70422802803E+03  0.39934067933E+03 -0.89186668102E+03  0.15011055585E+04  0.89581338870E+03 0.  0.
         23    2    4    4    0    0 -0.86260538696E+03  0.12769326462E+03 -0.60066850536E+03  0.10628733529E+04  0.92214356882E+02 0.  0.
         23    2    4    4    0    0  0.15837735893E+03  0.27164741471E+03 -0.29119817567E+03  0.43823220555E+03  0.91517117160E+02 0.  0.
          4    1    3    3  502    0  0.33308430525E+03 -0.20280364727E+03  0.22660445291E+03  0.45102555563E+03  0.00000000000E+00 0. -1.
         -3    1    3    3    0  502  0.37114372278E+03 -0.19653703206E+03  0.16249250451E+03  0.45030909602E+03  0.00000000000E+00 0.  1.
         13    1    5    5    0    0 -0.44941563355E+02  0.27328911569E+02 -0.28063964675E+02  0.59617108599E+02  0.00000000000E+00 0. -1.
        -13    1    5    5    0    0 -0.81766382361E+03  0.10036435305E+03 -0.57260454068E+03  0.10032562443E+04  0.00000000000E+00 0.  1.
          3    1    6    6  503    0 -0.25453573230E+00  0.74083670237E+02 -0.63046742567E+02  0.97279734439E+02  0.00000000000E+00 0. -1.
         -3    1    6    6    0  503  0.15863189466E+03  0.19756374447E+03 -0.22815143310E+03  0.34095247111E+03  0.00000000000E+00 0.  1.
<mgrwt>
<rscale>  0 0.23492428E+04</rscale>
<asrwt>0</asrwt>
<pdfrwt beam="1">  1        2 0.22347769E+00 0.23492428E+04</pdfrwt>
<pdfrwt beam="2">  1       -1 0.14612850E+00 0.23492428E+04</pdfrwt>
<totfact> 0.51993887E+00</totfact>
</mgrwt>
</event>
<event>
12    7  0.1661464E-007  0.1759141E+04  0.7818608E-02  0.8728335E-01
         -1   -1    0    0    0  501 -0.00000000000E+00  0.00000000000E+00  0.45380500135E+03  0.45380500135E+03  0.00000000000E+00 0.  1.
          2   -1    0    0  501    0  0.00000000000E+00 -0.00000000000E+00 -0.17047948400E+04  0.17047948400E+04  0.00000000000E+00 0. -1.
         24    2    1    2    0    0  0.49837925385E+03 -0.43522289650E+03 -0.41305024402E+03  0.78585812015E+03  0.95716407297E+02 0.  0.
        254    2    1    2    0    0 -0.49837925385E+03  0.43522289650E+03 -0.83793959464E+03  0.13727417212E+04  0.86283035330E+03 0.  0.
         23    2    4    4    0    0 -0.27118127023E+03 -0.55074561138E+02  0.80791114838E+02  0.30289728257E+03  0.92989628150E+02 0.  0.
         23    2    4    4    0    0 -0.22719798362E+03  0.49029745763E+03 -0.91873070948E+03  0.10698444386E+04  0.92143831197E+02 0.  0.
          2    1    3    3  502    0  0.22968918694E+03 -0.22915649297E+03 -0.25241886540E+03  0.41107797859E+03  0.00000000000E+00 0. -1.
         -1    1    3    3    0  502  0.26869006690E+03 -0.20606640352E+03 -0.16063137862E+03  0.37478014156E+03  0.00000000000E+00 0.  1.
         13    1    5    5    0    0 -0.98918223602E+02 -0.11509113544E+02 -0.15519913608E+02  0.10078761022E+03  0.00000000000E+00 0.  1.
        -13    1    5    5    0    0 -0.17226304663E+03 -0.43565447594E+02  0.96311028446E+02  0.20210967235E+03  0.00000000000E+00 0. -1.
          4    1    6    6  503    0 -0.16223151817E+02  0.12719288642E+03 -0.21222966252E+03  0.24795695325E+03  0.00000000000E+00 0.  1.
         -4    1    6    6    0  503 -0.21097483180E+03  0.36310457121E+03 -0.70650104695E+03  0.82188748538E+03  0.00000000000E+00 0. -1.
<mgrwt>
<rscale>  0 0.17591412E+04</rscale>
<asrwt>0</asrwt>
<pdfrwt beam="1">  1        2 0.26227613E+00 0.17591412E+04</pdfrwt>
<pdfrwt beam="2">  1       -1 0.69816154E-01 0.17591412E+04</pdfrwt>
<totfact> 0.21813424E+01</totfact>
</mgrwt>
</event>
<event>
12    7  0.1661464E-007  0.1218716E+04  0.7818608E-02  0.9096631E-01
         -1   -1    0    0    0  501 -0.00000000000E+00  0.00000000000E+00  0.28216350222E+03  0.28216350222E+03  0.00000000000E+00 0.  1.
          2   -1    0    0  501    0  0.00000000000E+00 -0.00000000000E+00 -0.13159641603E+04  0.13159641603E+04  0.00000000000E+00 0. -1.
         24    2    1    2    0    0  0.68218169448E+01  0.26318441206E+03 -0.21923163068E+03  0.35183551682E+03  0.80082151985E+02 0.  0.
        254    2    1    2    0    0 -0.68218169448E+01 -0.26318441206E+03 -0.81456902743E+03  0.12462921457E+04  0.90576422987E+03 0.  0.
         23    2    4    4    0    0  0.32810651324E+03  0.80573054368E+02 -0.63531142136E+03  0.72514804289E+03  0.89850881337E+02 0.  0.
         23    2    4    4    0    0 -0.33492833019E+03 -0.34375746643E+03 -0.17925760607E+03  0.52114410283E+03  0.95455248645E+02 0.  0.
          4    1    3    3  502    0  0.28788436717E+02  0.98972899976E+02 -0.12208996106E+03  0.15978225061E+03  0.00000000000E+00 0. -1.
         -3    1    3    3    0  502 -0.21966619773E+02  0.16421151209E+03 -0.97141669625E+02  0.19205326622E+03  0.00000000000E+00 0.  1.
         13    1    5    5    0    0  0.25767470505E+03  0.61929264234E+02 -0.56419410813E+03  0.62333496536E+03  0.00000000000E+00 0. -1.
        -13    1    5    5    0    0  0.70431808191E+02  0.18643790134E+02 -0.71117313234E+02  0.10181307754E+03  0.00000000000E+00 0.  1.
          1    1    6    6  503    0 -0.30235986203E+03 -0.26428674719E+03 -0.16464664813E+03  0.43402475695E+03  0.00000000000E+00 0. -1.
         -1    1    6    6    0  503 -0.32568468161E+02 -0.79470719239E+02 -0.14610957936E+02  0.87119345880E+02  0.00000000000E+00 0.  1.
<mgrwt>
<rscale>  0 0.12187158E+04</rscale>
<asrwt>0</asrwt>
<pdfrwt beam="1">  1        2 0.20245602E+00 0.12187158E+04</pdfrwt>
<pdfrwt beam="2">  1       -1 0.43409770E-01 0.12187158E+04</pdfrwt>
<totfact> 0.95144155E+01</totfact>
</mgrwt>
</event>
<event>
12    7  0.1661464E-007  0.1822911E+04  0.7818608E-02  0.8694210E-01
          2   -1    0    0  501    0  0.00000000000E+00  0.00000000000E+00  0.13699553307E+04  0.13699553307E+04  0.00000000000E+00 0. -1.
         -1   -1    0    0    0  501 -0.00000000000E+00 -0.00000000000E+00 -0.60640754163E+03  0.60640754163E+03  0.00000000000E+00 0.  1.
         24    2    1    2    0    0  0.45113551335E+03 -0.50658287062E+03  0.65510755538E+03  0.94650101744E+03  0.80924722338E+02 0.  0.
        254    2    1    2    0    0 -0.45113551335E+03  0.50658287062E+03  0.10844023365E+03  0.10298618548E+04  0.76727224607E+03 0.  0.
         23    2    4    4    0    0 -0.19167681594E+03  0.59408348464E+03  0.28316043252E+03  0.69181617310E+03  0.93566010552E+02 0.  0.
         23    2    4    4    0    0 -0.25945869742E+03 -0.87500614024E+02 -0.17472019886E+03  0.33804568175E+03  0.93661955658E+02 0.  0.
          2    1    3    3  502    0  0.41691558405E+03 -0.49255576746E+03  0.60808849434E+03  0.88667999032E+03  0.00000000000E+00 0. -1.
         -1    1    3    3    0  502  0.34219929307E+02 -0.14027103154E+02  0.47019061041E+02  0.59821027121E+02  0.00000000000E+00 0.  1.
         13    1    5    5    0    0 -0.36248382031E+02  0.25810373093E+03  0.12894351288E+03  0.29078842933E+03  0.00000000000E+00 0. -1.
        -13    1    5    5    0    0 -0.15542843390E+03  0.33597975371E+03  0.15421691963E+03  0.40102774377E+03  0.00000000000E+00 0.  1.
          2    1    6    6  503    0 -0.17923031395E+03 -0.55822298764E+02 -0.65387412940E+02  0.19878417504E+03  0.00000000000E+00 0. -1.
         -2    1    6    6    0  503 -0.80228383470E+02 -0.31678315260E+02 -0.10933278592E+03  0.13926150670E+03  0.00000000000E+00 0.  1.
<mgrwt>
<rscale>  0 0.18229111E+04</rscale>
<asrwt>0</asrwt>
<pdfrwt beam="1">  1        2 0.21076236E+00 0.18229111E+04</pdfrwt>
<pdfrwt beam="2">  1       -1 0.93293468E-01 0.18229111E+04</pdfrwt>
<totfact> 0.18036122E+01</totfact>
</mgrwt>
</event>
<event>
12    7  0.1661464E-007  0.2202810E+04  0.7818608E-02  0.8517259E-01
          2   -1    0    0  501    0  0.00000000000E+00  0.00000000000E+00  0.31025193954E+04  0.31025193954E+04  0.00000000000E+00 0. -1.
         -1   -1    0    0    0  501 -0.00000000000E+00 -0.00000000000E+00 -0.39100251422E+03  0.39100251422E+03  0.00000000000E+00 0.  1.
         24    2    1    2    0    0  0.69125767363E+02 -0.88681245458E+03  0.79994512682E+03  0.11989270472E+04  0.79367230450E+02 0.  0.
        254    2    1    2    0    0 -0.69125767363E+02  0.88681245458E+03  0.19115717544E+04  0.22945948624E+04  0.90545254393E+03 0.  0.
         23    2    4    4    0    0  0.32262756905E+03  0.45667974037E+03  0.14151485831E+04  0.15243830805E+04  0.91941993658E+02 0.  0.
         23    2    4    4    0    0 -0.39175333641E+03  0.43013271421E+03  0.49642317127E+03  0.77021178197E+03  0.91133943621E+02 0.  0.
          4    1    3    3  502    0 -0.79098660658E+01 -0.37369605823E+03  0.35248927947E+03  0.51377037873E+03  0.00000000000E+00 0. -1.
         -3    1    3    3    0  502  0.77035633429E+02 -0.51311639635E+03  0.44745584735E+03  0.68515666847E+03  0.00000000000E+00 0.  1.
         13    1    5    5    0    0  0.11713541012E+03  0.23185874822E+03  0.58339825456E+03  0.63861780969E+03  0.00000000000E+00 0.  1.
        -13    1    5    5    0    0  0.20549215893E+03  0.22482099215E+03  0.83175032856E+03  0.88576527080E+03  0.00000000000E+00 0. -1.
          3    1    6    6  503    0 -0.38333667108E+02  0.20256267740E+02  0.64801214081E+02  0.77967838004E+02  0.00000000000E+00 0.  1.
         -3    1    6    6    0  503 -0.35341966930E+03  0.40987644647E+03  0.43162195719E+03  0.69224394396E+03  0.00000000000E+00 0. -1.
<mgrwt>
<rscale>  0 0.22028099E+04</rscale>
<asrwt>0</asrwt>
<pdfrwt beam="1">  1        2 0.47731066E+00 0.22028099E+04</pdfrwt>
<pdfrwt beam="2">  1       -1 0.60154235E-01 0.22028099E+04</pdfrwt>
<totfact> 0.43754690E+00</totfact>
</mgrwt>
</event>
<event>
12    7  0.1661464E-007  0.3864982E+04  0.7818608E-02  0.8032352E-01
         -1   -1    0    0    0  501 -0.00000000000E+00  0.00000000000E+00  0.20125820249E+04  0.20125820249E+04  0.00000000000E+00 0.  1.
          2   -1    0    0  501    0  0.00000000000E+00 -0.00000000000E+00 -0.18555872335E+04  0.18555872335E+04  0.00000000000E+00 0. -1.
         24    2    1    2    0    0  0.63642547541E+03 -0.33908702428E+03  0.17518519428E+04  0.18960891231E+04  0.78430462459E+02 0.  0.
        254    2    1    2    0    0 -0.63642547541E+03  0.33908702428E+03 -0.15948571513E+04  0.19720801353E+04  0.90857764166E+03 0.  0.
         23    2    4    4    0    0 -0.69244283740E+03  0.21662625803E+03 -0.16438454217E+04  0.17991004676E+04  0.90170412434E+02 0.  0.
         23    2    4    4    0    0  0.56017361984E+02  0.12246076625E+03  0.48988270322E+02  0.17297966771E+03  0.96889270302E+02 0.  0.
          4    1    3    3  502    0  0.12111214343E+03 -0.82398691786E+02  0.28835572988E+03  0.32342962550E+03  0.00000000000E+00 0. -1.
         -3    1    3    3    0  502  0.51531333198E+03 -0.25668833249E+03  0.14634962129E+04  0.15726594976E+04  0.00000000000E+00 0.  1.
         13    1    5    5    0    0 -0.34382501984E+01  0.11503909868E+02 -0.21823480455E+02  0.24908348116E+02  0.00000000000E+00 0. -1.
        -13    1    5    5    0    0 -0.68900458720E+03  0.20512234816E+03 -0.16220219412E+04  0.17741921194E+04  0.00000000000E+00 0.  1.
          1    1    6    6  503    0  0.21823404721E+02  0.80303736587E+02  0.75687143022E+02  0.11248775365E+03  0.00000000000E+00 0. -1.
         -1    1    6    6    0  503  0.34193957263E+02  0.42157029660E+02 -0.26698872700E+02  0.60491914059E+02  0.00000000000E+00 0.  1.
<mgrwt>
<rscale>  0 0.38649820E+04</rscale>
<asrwt>0</asrwt>
<pdfrwt beam="1">  1        2 0.28547496E+00 0.38649820E+04</pdfrwt>
<pdfrwt beam="2">  1       -1 0.30962800E+00 0.38649820E+04</pdfrwt>
<totfact> 0.20856420E-01</totfact>
</mgrwt>
</event>
<event>
12    7  0.1661464E-007  0.2085942E+04  0.7818608E-02  0.8567462E-01
          2   -1    0    0  501    0  0.00000000000E+00  0.00000000000E+00  0.19776297995E+04  0.19776297995E+04  0.00000000000E+00 0. -1.
         -1   -1    0    0    0  501 -0.00000000000E+00 -0.00000000000E+00 -0.55004645952E+03  0.55004645952E+03  0.00000000000E+00 0.  1.
         24    2    1    2    0    0 -0.53333648532E+03  0.49985424067E+03  0.11602819717E+04  0.13734305494E+04  0.75862716834E+02 0.  0.
        254    2    1    2    0    0  0.53333648532E+03 -0.49985424067E+03  0.26730136833E+03  0.11542457096E+04  0.85236791833E+03 0.  0.
         23    2    4    4    0    0  0.63648305168E+03 -0.20310942841E+03 -0.78091670295E+02  0.67869627807E+03  0.90367106298E+02 0.  0.
         23    2    4    4    0    0 -0.10314656637E+03 -0.29674481226E+03  0.34539303863E+03  0.47554943156E+03  0.90300680877E+02 0.  0.
          2    1    3    3  502    0 -0.39700601444E+03  0.35392318699E+03  0.89934102759E+03  0.10448395483E+04  0.00000000000E+00 0. -1.
         -1    1    3    3    0  502 -0.13633047087E+03  0.14593105368E+03  0.26094094411E+03  0.32859100114E+03  0.00000000000E+00 0.  1.
         13    1    5    5    0    0  0.26477175605E+03 -0.13128682413E+03 -0.39024563248E+02  0.29809936184E+03  0.00000000000E+00 0. -1.
        -13    1    5    5    0    0  0.37171129564E+03 -0.71822604275E+02 -0.39067107047E+02  0.38059691623E+03  0.00000000000E+00 0.  1.
          2    1    6    6  503    0 -0.35869376888E+02 -0.11799962875E+03  0.20219743715E+03  0.23684241211E+03  0.00000000000E+00 0. -1.
         -2    1    6    6    0  503 -0.67277189480E+02 -0.17874518351E+03  0.14319560148E+03  0.23870701945E+03  0.00000000000E+00 0.  1.
<mgrwt>
<rscale>  0 0.20859418E+04</rscale>
<asrwt>0</asrwt>
<pdfrwt beam="1">  1        2 0.30425073E+00 0.20859418E+04</pdfrwt>
<pdfrwt beam="2">  1       -1 0.84622534E-01 0.20859418E+04</pdfrwt>
<totfact> 0.99823560E+00</totfact>
</mgrwt>
</event>
<event>
12    7  0.1661464E-007  0.1126580E+04  0.7818608E-02  0.9179666E-01
         -1   -1    0    0    0  501 -0.00000000000E+00  0.00000000000E+00  0.25793396677E+03  0.25793396677E+03  0.00000000000E+00 0.  1.
          2   -1    0    0  501    0  0.00000000000E+00 -0.00000000000E+00 -0.12301424498E+04  0.12301424498E+04  0.00000000000E+00 0. -1.
         24    2    1    2    0    0  0.65057279532E+02  0.16948755239E+03 -0.18006386130E+03  0.26820525284E+03  0.80948029428E+02 0.  0.
        254    2    1    2    0    0 -0.65057279532E+02 -0.16948755239E+03 -0.79214462178E+03  0.12198711638E+04  0.90974396088E+03 0.  0.
         23    2    4    4    0    0  0.28719997595E+03  0.48785599842E+02  0.17368483870E+02  0.30592579321E+03  0.91788157088E+02 0.  0.
         23    2    4    4    0    0 -0.35225725548E+03 -0.21827315224E+03 -0.80951310565E+03  0.91394537056E+03  0.90864344671E+02 0.  0.
          4    1    3    3  502    0  0.59799193449E+02  0.13658638053E+03 -0.18145595403E+03  0.23485750177E+03  0.00000000000E+00 0. -1.
         -3    1    3    3    0  502  0.52580860833E+01  0.32901171865E+02  0.13920927328E+01  0.33347751072E+02  0.00000000000E+00 0.  1.
         13    1    5    5    0    0  0.29369839779E+03  0.43733103571E+02  0.14809236827E+02  0.29730564527E+03  0.00000000000E+00 0.  1.
        -13    1    5    5    0    0 -0.64984218449E+01  0.50524962720E+01  0.25592470431E+01  0.86201479384E+01  0.00000000000E+00 0. -1.
          3    1    6    6  503    0  0.49010008474E+01 -0.35518958885E+01 -0.47898299857E+01  0.77186945141E+01  0.00000000000E+00 0. -1.
         -3    1    6    6    0  503 -0.35715825633E+03 -0.21472125635E+03 -0.80472327566E+03  0.90622667605E+03  0.00000000000E+00 0.  1.
<mgrwt>
<rscale>  0 0.11265798E+04</rscale>
<asrwt>0</asrwt>
<pdfrwt beam="1">  1        2 0.18925268E+00 0.11265798E+04</pdfrwt>
<pdfrwt beam="2">  1       -1 0.39682149E-01 0.11265798E+04</pdfrwt>
<totfact> 0.12681625E+02</totfact>
</mgrwt>
</event>
<event>
12    7  0.1661464E-007  0.1665425E+04  0.7818608E-02  0.8781333E-01
          2   -1    0    0  501    0  0.00000000000E+00  0.00000000000E+00  0.33040300062E+04  0.33040300062E+04  0.00000000000E+00 0. -1.
         -1   -1    0    0    0  501 -0.00000000000E+00 -0.00000000000E+00 -0.20986795821E+03  0.20986795821E+03  0.00000000000E+00 0.  1.
         24    2    1    2    0    0  0.34701715237E+03 -0.61382933336E+02  0.12049862501E+03  0.38174414856E+03  0.83784889949E+02 0.  0.
        254    2    1    2    0    0 -0.34701715237E+03  0.61382933336E+02  0.29736634230E+04  0.31321538159E+04  0.91843595555E+03 0.  0.
         23    2    4    4    0    0 -0.34670887660E+03 -0.30703697242E+03  0.82647524515E+03  0.95162830008E+03  0.89757134169E+02 0.  0.
         23    2    4    4    0    0 -0.30827577147E+00  0.36841990575E+03  0.21471881778E+04  0.21805255158E+04  0.92418244425E+02 0.  0.
          2    1    3    3  502    0  0.12074472420E+02  0.55094909455E+01  0.22981986591E+02  0.26539010577E+02  0.00000000000E+00 0. -1.
         -1    1    3    3    0  502  0.33494267995E+03 -0.66892424282E+02  0.97516638414E+02  0.35520513798E+03  0.00000000000E+00 0.  1.
         13    1    5    5    0    0 -0.10706129802E+03 -0.77537932561E+02  0.31896732095E+03  0.34527438995E+03  0.00000000000E+00 0. -1.
        -13    1    5    5    0    0 -0.23964757858E+03 -0.22949903985E+03  0.50750792420E+03  0.60635391013E+03  0.00000000000E+00 0.  1.
          2    1    6    6  503    0 -0.58252531876E+01  0.33476637778E+03  0.20576561622E+04  0.20847185285E+04  0.00000000000E+00 0.  1.
         -2    1    6    6    0  503  0.55169774161E+01  0.33653527970E+02  0.89532015651E+02  0.95806987278E+02  0.00000000000E+00 0. -1.
<mgrwt>
<rscale>  0 0.16654249E+04</rscale>
<asrwt>0</asrwt>
<pdfrwt beam="1">  1        2 0.50831227E+00 0.16654249E+04</pdfrwt>
<pdfrwt beam="2">  1       -1 0.32287380E-01 0.16654249E+04</pdfrwt>
<totfact> 0.10866088E+01</totfact>
</mgrwt>
</event>
<event>
12    7  0.1661464E-007  0.2163337E+04  0.7818608E-02  0.8533845E-01
          2   -1    0    0  501    0  0.00000000000E+00  0.00000000000E+00  0.74091999594E+03  0.74091999594E+03  0.00000000000E+00 0. -1.
         -1   -1    0    0    0  501 -0.00000000000E+00 -0.00000000000E+00 -0.15791267877E+04  0.15791267877E+04  0.00000000000E+00 0.  1.
         24    2    1    2    0    0  0.44391378864E+03  0.31026031529E+03 -0.10923386718E+04  0.12217539159E+04  0.78472556384E+02 0.  0.
        254    2    1    2    0    0 -0.44391378864E+03 -0.31026031529E+03  0.25413188007E+03  0.10982928677E+04  0.92105553350E+03 0.  0.
         23    2    4    4    0    0 -0.15868014425E+03 -0.39890994920E+03 -0.25122796538E+03  0.50579614206E+03  0.91682664580E+02 0.  0.
         23    2    4    4    0    0 -0.28523364440E+03  0.88649633910E+02  0.50535984545E+03  0.59249672564E+03  0.80292010879E+02 0.  0.
          2    1    3    3  502    0  0.18751246760E+03  0.90118541440E+02 -0.37655251953E+03  0.43020236748E+03  0.00000000000E+00 0. -1.
         -1    1    3    3    0  502  0.25640132105E+03  0.22014177385E+03 -0.71578615225E+03  0.79155154841E+03  0.00000000000E+00 0.  1.
         13    1    5    5    0    0 -0.11889502635E+03 -0.18659189659E+03 -0.14951337047E+03  0.26703335207E+03  0.00000000000E+00 0. -1.
        -13    1    5    5    0    0 -0.39785117896E+02 -0.21231805261E+03 -0.10171459491E+03  0.23876278999E+03  0.00000000000E+00 0.  1.
          1    1    6    6  503    0 -0.18927224349E+03  0.76473149864E+02  0.40244401799E+03  0.45125747908E+03  0.00000000000E+00 0. -1.
         -1    1    6    6    0  503 -0.95961400909E+02  0.12176484046E+02  0.10291582746E+03  0.14123924656E+03  0.00000000000E+00 0.  1.
<mgrwt>
<rscale>  0 0.21633369E+04</rscale>
<asrwt>0</asrwt>
<pdfrwt beam="1">  1        2 0.11398769E+00 0.21633369E+04</pdfrwt>
<pdfrwt beam="2">  1       -1 0.24294258E+00 0.21633369E+04</pdfrwt>
<totfact> 0.30906475E+00</totfact>
</mgrwt>
</event>
<event>
12    7  0.1661464E-007  0.1576219E+04  0.7818608E-02  0.8835292E-01
         -1   -1    0    0    0  501 -0.00000000000E+00  0.00000000000E+00  0.33038365115E+03  0.33038365115E+03  0.00000000000E+00 0.  1.
          2   -1    0    0  501    0  0.00000000000E+00 -0.00000000000E+00 -0.18799853542E+04  0.18799853542E+04  0.00000000000E+00 0. -1.
         24    2    1    2    0    0 -0.42689295473E+03 -0.30606178414E+03 -0.60285387225E+03  0.80407790544E+03  0.84835583496E+02 0.  0.
        254    2    1    2    0    0  0.42689295473E+03  0.30606178414E+03 -0.94674783080E+03  0.14062910999E+04  0.89744737563E+03 0.  0.
         23    2    4    4    0    0 -0.11803357940E+03  0.43109466586E+03 -0.55078575807E+03  0.71533058728E+03  0.92511410196E+02 0.  0.
         23    2    4    4    0    0  0.54492653413E+03 -0.12503288172E+03 -0.39596207273E+03  0.69096051262E+03  0.89790410622E+02 0.  0.
          4    1    3    3  502    0 -0.15304304743E+03 -0.79671560996E+02 -0.15119927569E+03  0.22941436958E+03  0.00000000000E+00 0. -1.
         -3    1    3    3    0  502 -0.27384990729E+03 -0.22639022315E+03 -0.45165459656E+03  0.57466353586E+03  0.00000000000E+00 0.  1.
         13    1    5    5    0    0 -0.93104372168E+01  0.45218188084E+02 -0.11111888502E+03  0.12032778309E+03  0.00000000000E+00 0.  1.
        -13    1    5    5    0    0 -0.10872314219E+03  0.38587647778E+03 -0.43966687305E+03  0.59500280420E+03  0.00000000000E+00 0. -1.
          2    1    6    6  503    0  0.46218455829E+03 -0.13665563673E+03 -0.32461203768E+03  0.58108717416E+03  0.00000000000E+00 0. -1.
         -2    1    6    6    0  503  0.82741975840E+02  0.11622755012E+02 -0.71350035058E+02  0.10987333845E+03  0.00000000000E+00 0.  1.
<mgrwt>
<rscale>  0 0.15762188E+04</rscale>
<asrwt>0</asrwt>
<pdfrwt beam="1">  1        2 0.28922852E+00 0.15762188E+04</pdfrwt>
<pdfrwt beam="2">  1       -1 0.50828253E-01 0.15762188E+04</pdfrwt>
<totfact> 0.33163162E+01</totfact>
</mgrwt>
</event>
<event>
12    7  0.1661464E-007  0.3395151E+04  0.7818608E-02  0.8139098E-01
         -1   -1    0    0    0  501 -0.00000000000E+00  0.00000000000E+00  0.11870694803E+04  0.11870694803E+04  0.00000000000E+00 0.  1.
          2   -1    0    0  501    0  0.00000000000E+00 -0.00000000000E+00 -0.24276269452E+04  0.24276269452E+04  0.00000000000E+00 0. -1.
         24    2    1    2    0    0 -0.69517207794E+03  0.62205705659E+03  0.77913706491E+03  0.12180495497E+04  0.79818167917E+02 0.  0.
        254    2    1    2    0    0  0.69517207794E+03 -0.62205705659E+03 -0.20196945298E+04  0.23966468759E+04  0.89136471447E+03 0.  0.
         23    2    4    4    0    0 -0.28651578468E+02 -0.42925937813E+03 -0.34077017508E+03  0.55598539350E+03  0.88943346554E+02 0.  0.
         23    2    4    4    0    0  0.72382365641E+03 -0.19279767846E+03 -0.16789243548E+04  0.18406614824E+04  0.90310981223E+02 0.  0.
          2    1    3    3  502    0 -0.28713651979E+03  0.31011499862E+03  0.34823640669E+03  0.54761965661E+03  0.00000000000E+00 0. -1.
         -1    1    3    3    0  502 -0.40803555815E+03  0.31194205797E+03  0.43090065822E+03  0.67042989306E+03  0.00000000000E+00 0.  1.
         13    1    5    5    0    0  0.25654560661E+02 -0.51106676624E+02 -0.48332249079E+02  0.74873594674E+02  0.00000000000E+00 0.  1.
        -13    1    5    5    0    0 -0.54306139129E+02 -0.37815270151E+03 -0.29243792601E+03  0.48111179883E+03  0.00000000000E+00 0. -1.
          2    1    6    6  503    0  0.28753349937E+03 -0.95301989086E+02 -0.77877233793E+03  0.83561015833E+03  0.00000000000E+00 0. -1.
         -2    1    6    6    0  503  0.43629015703E+03 -0.97495689376E+02 -0.90015201684E+03  0.10050513241E+04  0.00000000000E+00 0.  1.
<mgrwt>
<rscale>  0 0.33951506E+04</rscale>
<asrwt>0</asrwt>
<pdfrwt beam="1">  1        2 0.37348106E+00 0.33951506E+04</pdfrwt>
<pdfrwt beam="2">  1       -1 0.18262608E+00 0.33951506E+04</pdfrwt>
<totfact> 0.71939395E-01</totfact>
</mgrwt>
</event>
<event>
12    7  0.1661464E-007  0.1295163E+04  0.7818608E-02  0.9033410E-01
          2   -1    0    0  501    0  0.00000000000E+00  0.00000000000E+00  0.33644579836E+03  0.33644579836E+03  0.00000000000E+00 0. -1.
         -1   -1    0    0    0  501 -0.00000000000E+00 -0.00000000000E+00 -0.12464467387E+04  0.12464467387E+04  0.00000000000E+00 0.  1.
         24    2    1    2    0    0  0.22610576311E+02  0.39896302573E+02 -0.64297571720E+03  0.64938500791E+03  0.78614009377E+02 0.  0.
        254    2    1    2    0    0 -0.22610576311E+02 -0.39896302573E+02 -0.26702522317E+03  0.93350752917E+03  0.89332574355E+03 0.  0.
         23    2    4    4    0    0  0.72860841302E+02 -0.71914793363E+02  0.31038567893E+03  0.33976233951E+03  0.92837158316E+02 0.  0.
         23    2    4    4    0    0 -0.95471417613E+02  0.32018490790E+02 -0.57741090210E+03  0.59374518966E+03  0.94815742586E+02 0.  0.
          4    1    3    3  502    0 -0.10392557365E+02  0.14212340115E+01 -0.10364419822E+02  0.14746062286E+02  0.00000000000E+00 0. -1.
         -3    1    3    3    0  502  0.33003133676E+02  0.38475068561E+02 -0.63261129738E+03  0.63463894562E+03  0.00000000000E+00 0.  1.
         13    1    5    5    0    0  0.35367427345E+01 -0.63350016945E+02  0.19304492333E+03  0.20320451673E+03  0.00000000000E+00 0.  1.
        -13    1    5    5    0    0  0.69324098567E+02 -0.85647764177E+01  0.11734075560E+03  0.13655782278E+03  0.00000000000E+00 0. -1.
          3    1    6    6  503    0 -0.48079122255E+01 -0.42039614271E+01 -0.29251562218E+03  0.29258533547E+03  0.00000000000E+00 0. -1.
         -3    1    6    6    0  503 -0.90663505387E+02  0.36222452217E+02 -0.28489527992E+03  0.30115985419E+03  0.00000000000E+00 0.  1.
<mgrwt>
<rscale>  0 0.12951630E+04</rscale>
<asrwt>0</asrwt>
<pdfrwt beam="1">  1        2 0.51760892E-01 0.12951630E+04</pdfrwt>
<pdfrwt beam="2">  1       -1 0.19176104E+00 0.12951630E+04</pdfrwt>
<totfact> 0.18625281E+01</totfact>
</mgrwt>
</event>
<event>
12    7  0.1661464E-007  0.1613055E+04  0.7818608E-02  0.8812568E-01
         -1   -1    0    0    0  501 -0.00000000000E+00  0.00000000000E+00  0.26575536634E+03  0.26575536634E+03  0.00000000000E+00 0.  1.
          2   -1    0    0  501    0  0.00000000000E+00 -0.00000000000E+00 -0.24476904262E+04  0.24476904262E+04  0.00000000000E+00 0. -1.
         24    2    1    2    0    0  0.49042966465E+03  0.79912841919E+02 -0.33588840712E+03  0.60502412358E+03  0.79535211038E+02 0.  0.
        254    2    1    2    0    0 -0.49042966465E+03 -0.79912841919E+02 -0.18460466528E+04  0.21084216690E+04  0.88918297995E+03 0.  0.
         23    2    4    4    0    0  0.10808727756E+03  0.55121439107E+02 -0.12105827456E+04  0.12201707553E+04  0.92654495396E+02 0.  0.
         23    2    4    4    0    0 -0.59851694221E+03 -0.13503428103E+03 -0.63546390718E+03  0.88825091371E+03  0.93373021921E+02 0.  0.
          2    1    3    3  502    0  0.91024374463E+02 -0.13223276409E+02 -0.77650823609E+02  0.12037417577E+03  0.00000000000E+00 0. -1.
         -1    1    3    3    0  502  0.39940529019E+03  0.93136118328E+02 -0.25823758351E+03  0.48464994781E+03  0.00000000000E+00 0.  1.
         13    1    5    5    0    0 -0.83879466879E+01  0.12394040776E+02 -0.38763032360E+03  0.38791911228E+03  0.00000000000E+00 0. -1.
        -13    1    5    5    0    0  0.11647522424E+03  0.42727398331E+02 -0.82295242200E+03  0.83225164302E+03  0.00000000000E+00 0.  1.
          4    1    6    6  503    0 -0.17599365234E+03 -0.60380994301E+02 -0.14017093695E+03  0.23295390467E+03  0.00000000000E+00 0. -1.
         -4    1    6    6    0  503 -0.42252328987E+03 -0.74653286724E+02 -0.49529297023E+03  0.65529700904E+03  0.00000000000E+00 0.  1.
<mgrwt>
<rscale>  0 0.16130553E+04</rscale>
<asrwt>0</asrwt>
<pdfrwt beam="1">  1        2 0.37656775E+00 0.16130553E+04</pdfrwt>
<pdfrwt beam="2">  1       -1 0.40885442E-01 0.16130553E+04</pdfrwt>
<totfact> 0.23865477E+01</totfact>
</mgrwt>
</event>
<event>
12    7  0.1661464E-007  0.1280236E+04  0.7818608E-02  0.9045387E-01
         -1   -1    0    0    0  501 -0.00000000000E+00  0.00000000000E+00  0.41013861203E+03  0.41013861203E+03  0.00000000000E+00 0.  1.
          2   -1    0    0  501    0  0.00000000000E+00 -0.00000000000E+00 -0.99905538853E+03  0.99905538853E+03  0.00000000000E+00 0. -1.
         24    2    1    2    0    0  0.84962718781E+02  0.14777179211E+02  0.18355233373E+03  0.21789705203E+03  0.79690886911E+02 0.  0.
        254    2    1    2    0    0 -0.84962718781E+02 -0.14777179211E+02 -0.77246911023E+03  0.11912969485E+04  0.90279724451E+03 0.  0.
         23    2    4    4    0    0 -0.19756145132E+03  0.22932292131E+03  0.51254141108E+02  0.32014596563E+03  0.90812570942E+02 0.  0.
         23    2    4    4    0    0  0.11259873254E+03 -0.24410010052E+03 -0.82372325134E+03  0.87115098290E+03  0.90114962997E+02 0.  0.
          2    1    3    3  502    0  0.83684812341E+02  0.21855937489E+02  0.92787919709E+02  0.12684805030E+03  0.00000000000E+00 0. -1.
         -1    1    3    3    0  502  0.12779064396E+01 -0.70787582779E+01  0.90764414024E+02  0.91049001734E+02  0.00000000000E+00 0.  1.
         13    1    5    5    0    0 -0.18662652745E+02  0.14947137438E+02 -0.20900166285E+02  0.31757337354E+02  0.00000000000E+00 0. -1.
        -13    1    5    5    0    0 -0.17889879858E+03  0.21437578387E+03  0.72154307393E+02  0.28838862827E+03  0.00000000000E+00 0.  1.
          2    1    6    6  503    0  0.37831081613E+02 -0.18162374006E+03 -0.56567749925E+03  0.59532294332E+03  0.00000000000E+00 0. -1.
         -2    1    6    6    0  503  0.74767650931E+02 -0.62476360457E+02 -0.25804575209E+03  0.27582803957E+03  0.00000000000E+00 0.  1.
<mgrwt>
<rscale>  0 0.12802362E+04</rscale>
<asrwt>0</asrwt>
<pdfrwt beam="1">  1        2 0.15370083E+00 0.12802362E+04</pdfrwt>
<pdfrwt beam="2">  1       -1 0.63098249E-01 0.12802362E+04</pdfrwt>
<totfact> 0.71953471E+01</totfact>
</mgrwt>
</event>
<event>
12    7  0.1661464E-007  0.1551221E+04  0.7818608E-02  0.8851088E-01
          2   -1    0    0  501    0  0.00000000000E+00  0.00000000000E+00  0.18746463744E+04  0.18746463744E+04  0.00000000000E+00 0. -1.
         -1   -1    0    0    0  501 -0.00000000000E+00 -0.00000000000E+00 -0.32089883951E+03  0.32089883951E+03  0.00000000000E+00 0.  1.
         24    2    1    2    0    0 -0.42888297598E+03 -0.90311903898E+02  0.14159570475E+03  0.46802323248E+03  0.83063562845E+02 0.  0.
        254    2    1    2    0    0  0.42888297598E+03  0.90311903898E+02  0.14121518302E+04  0.17275219815E+04  0.89334347142E+03 0.  0.
         23    2    4    4    0    0  0.82996899315E+02 -0.20776973383E+03  0.10248673507E+01  0.24162541170E+03  0.91241666106E+02 0.  0.
         23    2    4    4    0    0  0.34588607666E+03  0.29808163772E+03  0.14111269628E+04  0.14858965698E+04  0.90108102176E+02 0.  0.
          2    1    3    3  502    0 -0.22648686023E+03 -0.38373112505E+02  0.11649981106E+03  0.25756746611E+03  0.00000000000E+00 0. -1.
         -1    1    3    3    0  502 -0.20239611574E+03 -0.51938791393E+02  0.25095893688E+02  0.21045576637E+03  0.00000000000E+00 0.  1.
         13    1    5    5    0    0  0.56560962364E+02 -0.11936781373E+03 -0.43641325474E+02  0.13911284163E+03  0.00000000000E+00 0. -1.
        -13    1    5    5    0    0  0.26435936951E+02 -0.88401920098E+02  0.44666192825E+02  0.10251257006E+03  0.00000000000E+00 0.  1.
          3    1    6    6  503    0  0.23098009453E+03  0.23053056577E+03  0.11008344487E+04  0.11481866701E+04  0.00000000000E+00 0. -1.
         -3    1    6    6    0  503  0.11490598214E+03  0.67551071956E+02  0.31029251408E+03  0.33770989969E+03  0.00000000000E+00 0.  1.
<mgrwt>
<rscale>  0 0.15512213E+04</rscale>
<asrwt>0</asrwt>
<pdfrwt beam="1">  1        2 0.28840713E+00 0.15512213E+04</pdfrwt>
<pdfrwt beam="2">  1       -1 0.49369053E-01 0.15512213E+04</pdfrwt>
<totfact> 0.35365609E+01</totfact>
</mgrwt>
</event>
<event>
12    7  0.1661464E-007  0.1177419E+04  0.7818608E-02  0.9132854E-01
         -1   -1    0    0    0  501 -0.00000000000E+00  0.00000000000E+00  0.69368234672E+03  0.69368234672E+03  0.00000000000E+00 0.  1.
          2   -1    0    0  501    0  0.00000000000E+00 -0.00000000000E+00 -0.49962220841E+03  0.49962220841E+03  0.00000000000E+00 0. -1.
         24    2    1    2    0    0 -0.13306685826E+03 -0.46679852771E+02  0.22499474123E+03  0.27633501182E+03  0.76502338206E+02 0.  0.
        254    2    1    2    0    0  0.13306685826E+03  0.46679852771E+02 -0.30934602929E+02  0.91696954332E+03  0.90553321104E+03 0.  0.
         23    2    4    4    0    0 -0.16768553366E+03 -0.28313984757E+02  0.36086912291E+03  0.40917570004E+03  0.90984117832E+02 0.  0.
         23    2    4    4    0    0  0.30075239193E+03  0.74993837527E+02 -0.39180372584E+03  0.50779384328E+03  0.90930472209E+02 0.  0.
          2    1    3    3  502    0  0.99052699533E+01  0.34716888116E+00  0.14759953128E+02  0.17778951471E+02  0.00000000000E+00 0. -1.
         -1    1    3    3    0  502 -0.14297212822E+03 -0.47027021652E+02  0.21023478811E+03  0.25855606035E+03  0.00000000000E+00 0.  1.
         13    1    5    5    0    0 -0.17856112583E+03 -0.21073546899E+02  0.33696737298E+03  0.38193609477E+03  0.00000000000E+00 0.  1.
        -13    1    5    5    0    0  0.10875592164E+02 -0.72404378583E+01  0.23901749928E+02  0.27239605264E+02  0.00000000000E+00 0. -1.
          1    1    6    6  503    0 -0.54573338235E+01  0.69778994609E+01 -0.15965227492E+02  0.18258205339E+02  0.00000000000E+00 0. -1.
         -1    1    6    6    0  503  0.30620972575E+03  0.68015938066E+02 -0.37583849835E+03  0.48953563794E+03  0.00000000000E+00 0.  1.
<mgrwt>
<rscale>  0 0.11774194E+04</rscale>
<asrwt>0</asrwt>
<pdfrwt beam="1">  1        2 0.76864955E-01 0.11774194E+04</pdfrwt>
<pdfrwt beam="2">  1       -1 0.10672036E+00 0.11774194E+04</pdfrwt>
<totfact> 0.57117317E+01</totfact>
</mgrwt>
</event>
<event>
12    7  0.1661464E-007  0.2983990E+04  0.7818608E-02  0.8248317E-01
         -1   -1    0    0    0  501 -0.00000000000E+00  0.00000000000E+00  0.96505658532E+03  0.96505658532E+03  0.00000000000E+00 0.  1.
          2   -1    0    0  501    0  0.00000000000E+00 -0.00000000000E+00 -0.23066520746E+04  0.23066520746E+04  0.00000000000E+00 0. -1.
         24    2    1    2    0    0  0.33638572666E+03 -0.35923706501E+03 -0.19968331206E+04  0.20582009704E+04  0.81499061061E+02 0.  0.
        254    2    1    2    0    0 -0.33638572666E+03  0.35923706501E+03  0.65523763130E+03  0.12135076896E+04  0.89501839824E+03 0.  0.
         23    2    4    4    0    0 -0.44389806367E+03  0.15524667145E+03 -0.34676509540E+02  0.48027174613E+03  0.91167263288E+02 0.  0.
         23    2    4    4    0    0  0.10751233701E+03  0.20399039356E+03  0.68991414084E+03  0.73323594344E+03  0.92100183195E+02 0.  0.
          2    1    3    3  502    0  0.33272747375E+03 -0.36378338009E+03 -0.19716903040E+04  0.20323898677E+04  0.00000000000E+00 0. -1.
         -1    1    3    3    0  502  0.36582529115E+01  0.45463150751E+01 -0.25142816632E+02  0.25811102714E+02  0.00000000000E+00 0.  1.
         13    1    5    5    0    0 -0.33762345999E+03  0.10170168011E+03 -0.62390438869E+02  0.35808574300E+03  0.00000000000E+00 0.  1.
        -13    1    5    5    0    0 -0.10627460367E+03  0.53544991337E+02  0.27713929328E+02  0.12218600314E+03  0.00000000000E+00 0. -1.
          2    1    6    6  503    0  0.53070006496E+02  0.30688081860E+02  0.11518411752E+03  0.13048204814E+03  0.00000000000E+00 0. -1.
         -2    1    6    6    0  503  0.54442330510E+02  0.17330231170E+03  0.57473002332E+03  0.60275389530E+03  0.00000000000E+00 0.  1.
<mgrwt>
<rscale>  0 0.29839905E+04</rscale>
<asrwt>0</asrwt>
<pdfrwt beam="1">  1        2 0.35486954E+00 0.29839905E+04</pdfrwt>
<pdfrwt beam="2">  1       -1 0.14847025E+00 0.29839905E+04</pdfrwt>
<totfact> 0.15706978E+00</totfact>
</mgrwt>
</event>
<event>
12    7  0.1661464E-007  0.1929819E+04  0.7818608E-02  0.8640154E-01
          2   -1    0    0  501    0  0.00000000000E+00  0.00000000000E+00  0.27790121096E+04  0.27790121096E+04  0.00000000000E+00 0. -1.
         -1   -1    0    0    0  501 -0.00000000000E+00 -0.00000000000E+00 -0.33502932830E+03  0.33502932830E+03  0.00000000000E+00 0.  1.
         24    2    1    2    0    0  0.71057509174E+02 -0.74889868128E+03  0.92086439613E+03  0.11920375797E+04  0.84047314219E+02 0.  0.
        254    2    1    2    0    0 -0.71057509174E+02  0.74889868128E+03  0.15231183852E+04  0.19220038582E+04  0.89906107196E+03 0.  0.
         23    2    4    4    0    0 -0.42541215819E+03  0.44199441038E+03  0.51657714127E+03  0.80771172066E+03  0.95977693528E+02 0.  0.
         23    2    4    4    0    0  0.35435464902E+03  0.30690427090E+03  0.10065412439E+04  0.11142921375E+04  0.93617537142E+02 0.  0.
          4    1    3    3  502    0  0.75596913104E+02 -0.59885794114E+03  0.77910184520E+03  0.98556857302E+03  0.00000000000E+00 0. -1.
         -3    1    3    3    0  502 -0.45394039300E+01 -0.15004074014E+03  0.14176255094E+03  0.20646900673E+03  0.00000000000E+00 0.  1.
         13    1    5    5    0    0 -0.38681255011E+03  0.42338856976E+03  0.50284442602E+03  0.76271511503E+03  0.00000000000E+00 0. -1.
        -13    1    5    5    0    0 -0.38599608083E+02  0.18605840623E+02  0.13732715259E+02  0.44996605625E+02  0.00000000000E+00 0.  1.
          3    1    6    6  503    0  0.34389007443E+03  0.26344013377E+03  0.91985709313E+03  0.10167586533E+04  0.00000000000E+00 0. -1.
         -3    1    6    6    0  503  0.10464574585E+02  0.43464137132E+02  0.86684150805E+02  0.97533484192E+02  0.00000000000E+00 0.  1.
<mgrwt>
<rscale>  0 0.19298192E+04</rscale>
<asrwt>0</asrwt>
<pdfrwt beam="1">  1        2 0.42754031E+00 0.19298192E+04</pdfrwt>
<pdfrwt beam="2">  1       -1 0.51542975E-01 0.19298192E+04</pdfrwt>
<totfact> 0.96076004E+00</totfact>
</mgrwt>
</event>
<event>
12    7  0.1661464E-007  0.1287832E+04  0.7818608E-02  0.9039271E-01
          2   -1    0    0  501    0  0.00000000000E+00  0.00000000000E+00  0.11092690746E+04  0.11092690746E+04  0.00000000000E+00 0. -1.
         -3   -1    0    0    0  501 -0.00000000000E+00 -0.00000000000E+00 -0.37378455858E+03  0.37378455858E+03  0.00000000000E+00 0.  1.
         24    2    1    2    0    0  0.22071580588E+03 -0.15523886796E+03  0.38422796864E+03  0.47908745757E+03  0.95284243312E+02 0.  0.
        254    2    1    2    0    0 -0.22071580588E+03  0.15523886796E+03  0.35125654741E+03  0.10039661756E+04  0.90097299995E+03 0.  0.
         23    2    4    4    0    0  0.17177581051E+03 -0.27205807705E+03  0.22222534502E+03  0.40302794610E+03  0.97595568572E+02 0.  0.
         23    2    4    4    0    0 -0.39249161639E+03  0.42729694502E+03  0.12903120239E+03  0.60093822954E+03  0.88574016380E+02 0.  0.
          2    1    3    3  502    0  0.90632761870E+02 -0.65936495921E+02  0.84500353065E+02  0.14036462762E+03  0.00000000000E+00 0. -1.
         -1    1    3    3    0  502  0.13008304401E+03 -0.89302372043E+02  0.29972761558E+03  0.33872282995E+03  0.00000000000E+00 0.  1.
         13    1    5    5    0    0  0.23210048856E+02 -0.12118169455E+03  0.66314542425E+02  0.14007615071E+03  0.00000000000E+00 0.  1.
        -13    1    5    5    0    0  0.14856576165E+03 -0.15087638251E+03  0.15591080260E+03  0.26295179539E+03  0.00000000000E+00 0. -1.
          2    1    6    6  503    0 -0.12016323830E+03  0.89182738080E+02  0.60526226028E+02  0.16141929453E+03  0.00000000000E+00 0. -1.
         -2    1    6    6    0  503 -0.27232837809E+03  0.33811420694E+03  0.68504976362E+02  0.43951893501E+03  0.00000000000E+00 0.  1.
<mgrwt>
<rscale>  0 0.12878317E+04</rscale>
<asrwt>0</asrwt>
<pdfrwt beam="1">  1        2 0.17065678E+00 0.12878317E+04</pdfrwt>
<pdfrwt beam="2">  1       -3 0.57505317E-01 0.12878317E+04</pdfrwt>
<totfact> 0.39922317E+01</totfact>
</mgrwt>
</event>
<event>
12    7  0.1661464E-007  0.3032264E+04  0.7818608E-02  0.8234577E-01
          2   -1    0    0  501    0  0.00000000000E+00  0.00000000000E+00  0.15463342350E+04  0.15463342350E+04  0.00000000000E+00 0. -1.
         -1   -1    0    0    0  501 -0.00000000000E+00 -0.00000000000E+00 -0.14865192496E+04  0.14865192496E+04  0.00000000000E+00 0.  1.
         24    2    1    2    0    0 -0.93655449350E+03  0.98459136629E+03 -0.17876446889E+03  0.13728970145E+04  0.79592708988E+02 0.  0.
        254    2    1    2    0    0  0.93655449350E+03 -0.98459136629E+03  0.23857945427E+03  0.16599564701E+04  0.92302808668E+03 0.  0.
         23    2    4    4    0    0  0.82502482725E+03 -0.10470388734E+04  0.43760060060E+03  0.14063123499E+04  0.96248489167E+02 0.  0.
         23    2    4    4    0    0  0.11152966624E+03  0.62447507147E+02 -0.19902114633E+03  0.25364412024E+03  0.91582560811E+02 0.  0.
          4    1    3    3  502    0 -0.25887867977E+02  0.39380633108E+02  0.56849502480E+01  0.47469301993E+02  0.00000000000E+00 0. -1.
         -3    1    3    3    0  502 -0.91066662552E+03  0.94521073318E+03 -0.18444941914E+03  0.13254277125E+04  0.00000000000E+00 0.  1.
         13    1    5    5    0    0  0.18671053894E+03 -0.29564547622E+03  0.91907350047E+02  0.36154395853E+03  0.00000000000E+00 0.  1.
        -13    1    5    5    0    0  0.63831428831E+03 -0.75139339722E+03  0.34569325055E+03  0.10447683913E+04  0.00000000000E+00 0. -1.
          2    1    6    6  503    0  0.11995232063E+03  0.35846098501E+02 -0.18218915404E+03  0.22105743564E+03  0.00000000000E+00 0. -1.
         -2    1    6    6    0  503 -0.84226543870E+01  0.26601408646E+02 -0.16831992297E+02  0.32586684605E+02  0.00000000000E+00 0.  1.
<mgrwt>
<rscale>  0 0.30322636E+04</rscale>
<asrwt>0</asrwt>
<pdfrwt beam="1">  1        2 0.23789757E+00 0.30322636E+04</pdfrwt>
<pdfrwt beam="2">  1       -1 0.22869527E+00 0.30322636E+04</pdfrwt>
<totfact> 0.11187991E+00</totfact>
</mgrwt>
</event>
<event>
12    7  0.1661464E-007  0.2195034E+04  0.7818608E-02  0.8520498E-01
         -1   -1    0    0    0  501 -0.00000000000E+00  0.00000000000E+00  0.43751330951E+03  0.43751330951E+03  0.00000000000E+00 0.  1.
          2   -1    0    0  501    0  0.00000000000E+00 -0.00000000000E+00 -0.27531580467E+04  0.27531580467E+04  0.00000000000E+00 0. -1.
         24    2    1    2    0    0  0.62215195909E+01  0.12733283754E+03  0.34667583711E+03  0.37798941551E+03  0.80246516308E+02 0.  0.
        254    2    1    2    0    0 -0.62215195909E+01 -0.12733283754E+03 -0.26623205743E+04  0.28126819407E+04  0.89831870761E+03 0.  0.
         23    2    4    4    0    0 -0.15336380992E+03  0.37582246005E+02 -0.49291401008E+02  0.18863847219E+03  0.90674955586E+02 0.  0.
         23    2    4    4    0    0  0.14714229033E+03 -0.16491508355E+03 -0.26130291733E+04  0.26240434685E+04  0.93993754192E+02 0.  0.
          4    1    3    3  502    0  0.27857555004E+02  0.80169558722E+02  0.13048314564E+03  0.15565684313E+03  0.00000000000E+00 0. -1.
         -3    1    3    3    0  502 -0.21636035413E+02  0.47163278822E+02  0.21619269147E+03  0.22233257238E+03  0.00000000000E+00 0.  1.
         13    1    5    5    0    0 -0.15093461000E+02  0.29305884637E+02 -0.37033237937E+02  0.49579311728E+02  0.00000000000E+00 0. -1.
        -13    1    5    5    0    0 -0.13827034892E+03  0.82763613684E+01 -0.12258163071E+02  0.13905916046E+03  0.00000000000E+00 0.  1.
          4    1    6    6  503    0  0.37754427584E+02 -0.90229326562E+02 -0.75674088181E+03  0.76303570715E+03  0.00000000000E+00 0. -1.
         -4    1    6    6    0  503  0.10938786274E+03 -0.74685756988E+02 -0.18562882915E+04  0.18610077614E+04  0.00000000000E+00 0.  1.
<mgrwt>
<rscale>  0 0.21950337E+04</rscale>
<asrwt>0</asrwt>
<pdfrwt beam="1">  1        2 0.42356277E+00 0.21950337E+04</pdfrwt>
<pdfrwt beam="2">  1       -1 0.67309740E-01 0.21950337E+04</pdfrwt>
<totfact> 0.57440076E+00</totfact>
</mgrwt>
</event>
<event>
12    7  0.1661464E-007  0.2116953E+04  0.7818608E-02  0.8553812E-01
          2   -1    0    0  501    0  0.00000000000E+00  0.00000000000E+00  0.56449717789E+03  0.56449717789E+03  0.00000000000E+00 0. -1.
         -1   -1    0    0    0  501 -0.00000000000E+00 -0.00000000000E+00 -0.19847270218E+04  0.19847270218E+04  0.00000000000E+00 0.  1.
         24    2    1    2    0    0 -0.62715593611E+03 -0.19364031154E+03  0.13054571817E+03  0.67405143383E+03  0.80510946221E+02 0.  0.
        254    2    1    2    0    0  0.62715593611E+03  0.19364031154E+03 -0.15507755621E+04  0.18751727659E+04  0.82495267708E+03 0.  0.
         23    2    4    4    0    0  0.70622840785E+03  0.89135402840E+02 -0.67238944326E+03  0.98315330800E+03  0.88199657146E+02 0.  0.
         23    2    4    4    0    0 -0.79072471743E+02  0.10450490870E+03 -0.87838611885E+03  0.89201945788E+03  0.83443440287E+02 0.  0.
          4    1    3    3  502    0 -0.53311834028E+03 -0.14128993546E+03  0.88872725729E+02  0.55863796146E+03  0.00000000000E+00 0. -1.
         -3    1    3    3    0  502 -0.94037595833E+02 -0.52350376078E+02  0.41672992444E+02  0.11541347237E+03  0.00000000000E+00 0.  1.
         13    1    5    5    0    0  0.56849685541E+03  0.53234173610E+02 -0.57734325767E+03  0.81200233314E+03  0.00000000000E+00 0. -1.
        -13    1    5    5    0    0  0.13773155244E+03  0.35901229230E+02 -0.95046185588E+02  0.17115097486E+03  0.00000000000E+00 0.  1.
          3    1    6    6  503    0 -0.63377253248E+02  0.79735201338E+02 -0.82364533557E+03  0.82991928364E+03  0.00000000000E+00 0. -1.
         -3    1    6    6    0  503 -0.15695218495E+02  0.24769707362E+02 -0.54740783283E+02  0.62100174241E+02  0.00000000000E+00 0.  1.
<mgrwt>
<rscale>  0 0.21169533E+04</rscale>
<asrwt>0</asrwt>
<pdfrwt beam="1">  1        2 0.86845719E-01 0.21169533E+04</pdfrwt>
<pdfrwt beam="2">  1       -1 0.30534262E+00 0.21169533E+04</pdfrwt>
<totfact> 0.17110185E+00</totfact>
</mgrwt>
</event>
<event>
12    7  0.1661464E-007  0.3567644E+04  0.7818608E-02  0.8097944E-01
         -1   -1    0    0    0  501 -0.00000000000E+00  0.00000000000E+00  0.96833997853E+03  0.96833997853E+03  0.00000000000E+00 0.  1.
          2   -1    0    0  501    0  0.00000000000E+00 -0.00000000000E+00 -0.32860573926E+04  0.32860573926E+04  0.00000000000E+00 0. -1.
         24    2    1    2    0    0  0.13407264975E+04  0.99585218865E+03 -0.91636071136E+03  0.19067148435E+04  0.81088953792E+02 0.  0.
        254    2    1    2    0    0 -0.13407264975E+04 -0.99585218865E+03 -0.14013567027E+04  0.23476825276E+04  0.87094403930E+03 0.  0.
         23    2    4    4    0    0 -0.82014050346E+03 -0.39758889773E+03 -0.25525744541E+03  0.95106734027E+03  0.93087836332E+02 0.  0.
         23    2    4    4    0    0 -0.52058599402E+03 -0.59826329091E+03 -0.11460992573E+04  0.13966151874E+04  0.89787145640E+02 0.  0.
          4    1    3    3  502    0  0.38015014504E+03  0.26166792916E+03 -0.21677798130E+03  0.50987932994E+03  0.00000000000E+00 0. -1.
         -3    1    3    3    0  502  0.96057635245E+03  0.73418425948E+03 -0.69958273006E+03  0.13968355136E+04  0.00000000000E+00 0.  1.
         13    1    5    5    0    0 -0.30949758976E+03 -0.14303443318E+03 -0.49488822988E+02  0.34452394800E+03  0.00000000000E+00 0. -1.
        -13    1    5    5    0    0 -0.51064291370E+03 -0.25455446456E+03 -0.20576862242E+03  0.60654339228E+03  0.00000000000E+00 0.  1.
          3    1    6    6  503    0 -0.24101738192E+03 -0.21339876253E+03 -0.43810053529E+03  0.54365475190E+03  0.00000000000E+00 0. -1.
         -3    1    6    6    0  503 -0.27956861210E+03 -0.38486452838E+03 -0.70799872203E+03  0.85296043547E+03  0.00000000000E+00 0.  1.
<mgrwt>
<rscale>  0 0.35676439E+04</rscale>
<asrwt>0</asrwt>
<pdfrwt beam="1">  1        2 0.50554729E+00 0.35676439E+04</pdfrwt>
<pdfrwt beam="2">  1       -1 0.14897538E+00 0.35676439E+04</pdfrwt>
<totfact> 0.37475337E-01</totfact>
</mgrwt>
</event>
<event>
12    7  0.1683595E-007  0.1771235E+04  0.7818608E-02  0.8721748E-01
          2   -1    0    0  501    0  0.00000000000E+00  0.00000000000E+00  0.18226366588E+04  0.18226366588E+04  0.00000000000E+00 0. -1.
         -1   -1    0    0    0  501 -0.00000000000E+00 -0.00000000000E+00 -0.43032069410E+03  0.43032069410E+03  0.00000000000E+00 0.  1.
         24    2    1    2    0    0 -0.45404444550E+03 -0.25309151662E+03  0.98985424482E+03  0.11208746055E+04  0.79603899961E+02 0.  0.
        254    2    1    2    0    0  0.45404444550E+03  0.25309151662E+03  0.40246171990E+03  0.11320827475E+04  0.92164214142E+03 0.  0.
         23    2    4    4    0    0 -0.55391087080E+02 -0.27261540501E+03 -0.90779471582E+00  0.29147808007E+03  0.87013306417E+02 0.  0.
         23    2    4    4    0    0  0.50943553258E+03  0.52570692163E+03  0.40336951462E+03  0.84060466739E+03  0.89537211287E+02 0.  0.
          4    1    3    3  502    0 -0.36939789622E+03 -0.20473290412E+03  0.73046398642E+03  0.84377011278E+03  0.00000000000E+00 0. -1.
         -3    1    3    3    0  502 -0.84646549278E+02 -0.48358612504E+02  0.25939025841E+03  0.27710449268E+03  0.00000000000E+00 0.  1.
         13    1    5    5    0    0 -0.15598890969E+02 -0.31484341420E+02 -0.28890449747E+02  0.45488979332E+02  0.00000000000E+00 0.  1.
        -13    1    5    5    0    0 -0.39792196111E+02 -0.24113106359E+03  0.27982655031E+02  0.24598910074E+03  0.00000000000E+00 0. -1.
          2    1    6    6  503    0  0.22313085826E+03  0.27350742032E+03  0.15618229298E+03  0.38598782043E+03  0.00000000000E+00 0. -1.
         -2    1    6    6    0  503  0.28630467432E+03  0.25219950131E+03  0.24718722164E+03  0.45461684696E+03  0.00000000000E+00 0.  1.
<mgrwt>
<rscale>  0 0.17712349E+04</rscale>
<asrwt>0</asrwt>
<pdfrwt beam="1">  1        2 0.28040564E+00 0.17712349E+04</pdfrwt>
<pdfrwt beam="2">  1       -1 0.66203185E-01 0.17712349E+04</pdfrwt>
<totfact> 0.20888544E+01</totfact>
</mgrwt>
</event>
<event>
12    7  0.1661464E-007  0.2811057E+04  0.7818608E-02  0.8299844E-01
         -1   -1    0    0    0  501 -0.00000000000E+00  0.00000000000E+00  0.96232231017E+03  0.96232231017E+03  0.00000000000E+00 0.  1.
          2   -1    0    0  501    0  0.00000000000E+00 -0.00000000000E+00 -0.20528567064E+04  0.20528567064E+04  0.00000000000E+00 0. -1.
         24    2    1    2    0    0 -0.22277033861E+03 -0.18074397600E+03  0.83262121917E+03  0.88455865394E+03  0.83011499377E+02 0.  0.
        254    2    1    2    0    0  0.22277033861E+03  0.18074397600E+03 -0.19231556154E+04  0.21306203626E+04  0.87104569337E+03 0.  0.
         23    2    4    4    0    0  0.72407023632E+02 -0.34404619110E+03 -0.78580227965E+03  0.86570764287E+03  0.91399898946E+02 0.  0.
         23    2    4    4    0    0  0.15036331498E+03  0.52479016710E+03 -0.11373533358E+04  0.12649127198E+04  0.91748200453E+02 0.  0.
          2    1    3    3  502    0 -0.14525934918E+02 -0.46441755433E+02  0.10095517740E+03  0.11207045675E+03  0.00000000000E+00 0. -1.
         -1    1    3    3    0  502 -0.20824440369E+03 -0.13430222056E+03  0.73166604177E+03  0.77248819719E+03  0.00000000000E+00 0.  1.
         13    1    5    5    0    0  0.67461565435E+02 -0.13501545474E+03 -0.27354697982E+03  0.31242308813E+03  0.00000000000E+00 0.  1.
        -13    1    5    5    0    0  0.49454581973E+01 -0.20903073636E+03 -0.51225529984E+03  0.55328455474E+03  0.00000000000E+00 0. -1.
          3    1    6    6  503    0  0.58747154356E+02  0.11221767447E+03 -0.33328542711E+03  0.35654342026E+03  0.00000000000E+00 0. -1.
         -3    1    6    6    0  503  0.91616160623E+02  0.41257249262E+03 -0.80406790866E+03  0.90836929952E+03  0.00000000000E+00 0.  1.
<mgrwt>
<rscale>  0 0.28110566E+04</rscale>
<asrwt>0</asrwt>
<pdfrwt beam="1">  1        2 0.31582411E+00 0.28110566E+04</pdfrwt>
<pdfrwt beam="2">  1       -1 0.14804959E+00 0.28110566E+04</pdfrwt>
<totfact> 0.22312812E+00</totfact>
</mgrwt>
</event>
<event>
12    7  0.1661464E-007  0.2401222E+04  0.7818608E-02  0.8439046E-01
          2   -1    0    0  501    0  0.00000000000E+00  0.00000000000E+00  0.24669155954E+04  0.24669155954E+04  0.00000000000E+00 0. -1.
         -1   -1    0    0    0  501 -0.00000000000E+00 -0.00000000000E+00 -0.58431942941E+03  0.58431942941E+03  0.00000000000E+00 0.  1.
         24    2    1    2    0    0 -0.15226038311E+03 -0.79197068568E+03  0.16167759440E+04  0.18084901372E+04  0.79191741752E+02 0.  0.
        254    2    1    2    0    0  0.15226038311E+03  0.79197068568E+03  0.26582022199E+03  0.12427448876E+04  0.90738838105E+03 0.  0.
         23    2    4    4    0    0  0.47000911901E+03  0.20479427491E+03  0.73607349733E+01  0.52110442678E+03  0.92985892502E+02 0.  0.
         23    2    4    4    0    0 -0.31774873590E+03  0.58717641076E+03  0.25845948702E+03  0.72164046085E+03  0.90682146959E+02 0.  0.
          2    1    3    3  502    0 -0.10269289906E+03 -0.68150369113E+03  0.13839988487E+04  0.15461066993E+04  0.00000000000E+00 0. -1.
         -1    1    3    3    0  502 -0.49567484048E+02 -0.11046699455E+03  0.23277709532E+03  0.26238343786E+03  0.00000000000E+00 0.  1.
         13    1    5    5    0    0  0.39523653091E+02 -0.64522324541E+01  0.11134854268E+02  0.41566037060E+02  0.00000000000E+00 0.  1.
        -13    1    5    5    0    0  0.43048546592E+03  0.21124650737E+03 -0.37741192951E+01  0.47953838972E+03  0.00000000000E+00 0. -1.
          2    1    6    6  503    0 -0.28944325127E+03  0.46315220586E+03  0.19982319625E+03  0.58156398724E+03  0.00000000000E+00 0. -1.
         -2    1    6    6    0  503 -0.28305484631E+02  0.12402420491E+03  0.58636290764E+02  0.14007647361E+03  0.00000000000E+00 0.  1.
<mgrwt>
<rscale>  0 0.24012219E+04</rscale>
<asrwt>0</asrwt>
<pdfrwt beam="1">  1        2 0.37952547E+00 0.24012219E+04</pdfrwt>
<pdfrwt beam="2">  1       -1 0.89895298E-01 0.24012219E+04</pdfrwt>
<totfact> 0.45060235E+00</totfact>
</mgrwt>
</event>
<event>
12    7  0.1661464E-007  0.1538125E+04  0.7818608E-02  0.8859488E-01
         -1   -1    0    0    0  501 -0.00000000000E+00  0.00000000000E+00  0.35885793825E+03  0.35885793825E+03  0.00000000000E+00 0.  1.
          2   -1    0    0  501    0  0.00000000000E+00 -0.00000000000E+00 -0.16481660955E+04  0.16481660955E+04  0.00000000000E+00 0. -1.
         24    2    1    2    0    0  0.21099868287E+03  0.29951801385E+03 -0.87053452255E+03  0.94780398648E+03  0.79186848917E+02 0.  0.
        254    2    1    2    0    0 -0.21099868287E+03 -0.29951801385E+03 -0.41877363466E+03  0.10592200472E+04  0.90130142936E+03 0.  0.
         23    2    4    4    0    0  0.19010410884E+03  0.67128569190E+02  0.14912274170E+03  0.26789447029E+03  0.94255175560E+02 0.  0.
         23    2    4    4    0    0 -0.40110279171E+03 -0.36664658304E+03 -0.56789637636E+03  0.79132557694E+03  0.91524357760E+02 0.  0.
          4    1    3    3  502    0  0.16467285582E+03  0.19251018950E+03 -0.66306545169E+03  0.70981202845E+03  0.00000000000E+00 0. -1.
         -3    1    3    3    0  502  0.46325827050E+02  0.10700782435E+03 -0.20746907086E+03  0.23799195803E+03  0.00000000000E+00 0.  1.
         13    1    5    5    0    0  0.15890533491E+03  0.54176935733E+02  0.70062278258E+02  0.18191967640E+03  0.00000000000E+00 0.  1.
        -13    1    5    5    0    0  0.31198773929E+02  0.12951633457E+02  0.79060463440E+02  0.85974793883E+02  0.00000000000E+00 0. -1.
          3    1    6    6  503    0 -0.47390889086E+02 -0.77942909985E+02 -0.12911097086E+03  0.15808426988E+03  0.00000000000E+00 0. -1.
         -3    1    6    6    0  503 -0.35371190262E+03 -0.28870367306E+03 -0.43878540549E+03  0.63324130706E+03  0.00000000000E+00 0.  1.
<mgrwt>
<rscale>  0 0.15381255E+04</rscale>
<asrwt>0</asrwt>
<pdfrwt beam="1">  1        2 0.25356402E+00 0.15381255E+04</pdfrwt>
<pdfrwt beam="2">  1       -1 0.55208913E-01 0.15381255E+04</pdfrwt>
<totfact> 0.38154005E+01</totfact>
</mgrwt>
</event>
<event>
12    7  0.1661464E-007  0.1149509E+04  0.7818608E-02  0.9158237E-01
          2   -1    0    0  501    0  0.00000000000E+00  0.00000000000E+00  0.28734127188E+04  0.28734127188E+04  0.00000000000E+00 0. -1.
         -1   -1    0    0    0  501 -0.00000000000E+00 -0.00000000000E+00 -0.11496523940E+03  0.11496523940E+03  0.00000000000E+00 0.  1.
         24    2    1    2    0    0 -0.75315636890E+02  0.17203481983E+03  0.76614541888E+03  0.79292218099E+03  0.80488246523E+02 0.  0.
        254    2    1    2    0    0  0.75315636890E+02 -0.17203481983E+03  0.19923020606E+04  0.21954557773E+04  0.90304492966E+03 0.  0.
         23    2    4    4    0    0  0.98415989714E+02  0.22746335392E+03  0.16183694151E+04  0.16400430161E+04  0.95897062432E+02 0.  0.
         23    2    4    4    0    0 -0.23100352824E+02 -0.39949817375E+03  0.37393264543E+03  0.55541276111E+03  0.92332522746E+02 0.  0.
          2    1    3    3  502    0  0.39215486248E+01  0.58302971779E+02  0.33452895830E+03  0.33959422699E+03  0.00000000000E+00 0. -1.
         -1    1    3    3    0  502 -0.79237185515E+02  0.11373184805E+03  0.43161646059E+03  0.45332795400E+03  0.00000000000E+00 0.  1.
         13    1    5    5    0    0  0.54104483039E+02  0.30191698672E+02  0.30840755521E+03  0.31456963278E+03  0.00000000000E+00 0. -1.
        -13    1    5    5    0    0  0.44311506676E+02  0.19727165524E+03  0.13099618599E+04  0.13254733834E+04  0.00000000000E+00 0.  1.
          2    1    6    6  503    0  0.24433086045E+01  0.48892802551E+01  0.56297975724E+01  0.78466195942E+01  0.00000000000E+00 0. -1.
         -2    1    6    6    0  503 -0.25543661429E+02 -0.40438745400E+03  0.36830284786E+03  0.54756614152E+03  0.00000000000E+00 0.  1.
<mgrwt>
<rscale>  0 0.11495087E+04</rscale>
<asrwt>0</asrwt>
<pdfrwt beam="1">  1        2 0.44206344E+00 0.11495087E+04</pdfrwt>
<pdfrwt beam="2">  1       -1 0.17686962E-01 0.11495087E+04</pdfrwt>
<totfact> 0.59871189E+01</totfact>
</mgrwt>
</event>
<event>
12    7  0.1661464E-007  0.9288946E+03  0.7818608E-02  0.9390165E-01
         -1   -1    0    0    0  501 -0.00000000000E+00  0.00000000000E+00  0.60097640737E+03  0.60097640737E+03  0.00000000000E+00 0.  1.
          2   -1    0    0  501    0  0.00000000000E+00 -0.00000000000E+00 -0.35893472994E+03  0.35893472994E+03  0.00000000000E+00 0. -1.
         24    2    1    2    0    0 -0.37936628269E+02 -0.21703003084E+02 -0.44176150591E+02  0.99613923034E+02  0.77853665770E+02 0.  0.
        254    2    1    2    0    0  0.37936628269E+02  0.21703003084E+02  0.28621782803E+03  0.86029721427E+03  0.81011137734E+03 0.  0.
         23    2    4    4    0    0  0.84261169576E+02  0.38185159579E+03  0.27243562934E+03  0.48554256911E+03  0.92843030872E+02 0.  0.
         23    2    4    4    0    0 -0.46324541306E+02 -0.36014859270E+03  0.13782198689E+02  0.37475464516E+03  0.91641274103E+02 0.  0.
          2    1    3    3  502    0 -0.51375192740E+02 -0.36355390531E+02 -0.48268041992E+02  0.79315375102E+02  0.00000000000E+00 0. -1.
         -1    1    3    3    0  502  0.13438564471E+02  0.14652387447E+02  0.40918914010E+01  0.20298547933E+02  0.00000000000E+00 0.  1.
         13    1    5    5    0    0  0.77301435473E+02  0.29655265960E+03  0.25390188743E+03  0.39797633131E+03  0.00000000000E+00 0. -1.
        -13    1    5    5    0    0  0.69597341027E+01  0.85298936185E+02  0.18533741907E+02  0.87566237798E+02  0.00000000000E+00 0.  1.
          4    1    6    6  503    0 -0.14289793958E+02 -0.10027570215E+03 -0.37374468497E+02  0.10796418642E+03  0.00000000000E+00 0. -1.
         -4    1    6    6    0  503 -0.32034747348E+02 -0.25987289055E+03  0.51156667187E+02  0.26679045875E+03  0.00000000000E+00 0.  1.
<mgrwt>
<rscale>  0 0.92889462E+03</rscale>
<asrwt>0</asrwt>
<pdfrwt beam="1">  1        2 0.55220728E-01 0.92889462E+03</pdfrwt>
<pdfrwt beam="2">  1       -1 0.92457909E-01 0.92889462E+03</pdfrwt>
<totfact> 0.11733466E+02</totfact>
</mgrwt>
</event>
<event>
12    7  0.1661464E-007  0.1302570E+04  0.7818608E-02  0.9027530E-01
         -1   -1    0    0    0  501 -0.00000000000E+00  0.00000000000E+00  0.47796828186E+03  0.47796828186E+03  0.00000000000E+00 0.  1.
          2   -1    0    0  501    0  0.00000000000E+00 -0.00000000000E+00 -0.88744819934E+03  0.88744819934E+03  0.00000000000E+00 0. -1.
         24    2    1    2    0    0 -0.33246621748E+03 -0.40003626463E+02 -0.11226953000E+03  0.36186661300E+03  0.78796715264E+02 0.  0.
        254    2    1    2    0    0  0.33246621748E+03  0.40003626463E+02 -0.29721038748E+03  0.10035498682E+04  0.89813375821E+03 0.  0.
         23    2    4    4    0    0 -0.14266438469E+03 -0.30068121751E+03 -0.12248240081E+02  0.34666286398E+03  0.96243444759E+02 0.  0.
         23    2    4    4    0    0  0.47513060217E+03  0.34068484397E+03 -0.28496214740E+03  0.65688700422E+03  0.92097007701E+02 0.  0.
          4    1    3    3  502    0 -0.77210966873E+02 -0.30306826755E+01  0.72321154701E+01  0.77608130612E+02  0.00000000000E+00 0. -1.
         -3    1    3    3    0  502 -0.25525525061E+03 -0.36972943788E+02 -0.11950164547E+03  0.28425848238E+03  0.00000000000E+00 0.  1.
         13    1    5    5    0    0 -0.13258569053E+03 -0.17489157900E+03 -0.19007833577E+02  0.22028919055E+03  0.00000000000E+00 0.  1.
        -13    1    5    5    0    0 -0.10078694164E+02 -0.12578963851E+03  0.67595934963E+01  0.12637367343E+03  0.00000000000E+00 0. -1.
          3    1    6    6  503    0  0.14203249014E+03  0.88512871811E+02 -0.38167295545E+02  0.17165226238E+03  0.00000000000E+00 0.  1.
         -3    1    6    6    0  503  0.33309811204E+03  0.25217197216E+03 -0.24679485186E+03  0.48523474184E+03  0.00000000000E+00 0. -1.
<mgrwt>
<rscale>  0 0.13025699E+04</rscale>
<asrwt>0</asrwt>
<pdfrwt beam="1">  1        2 0.13653049E+00 0.13025699E+04</pdfrwt>
<pdfrwt beam="2">  1       -1 0.73533582E-01 0.13025699E+04</pdfrwt>
<totfact> 0.62335732E+01</totfact>
</mgrwt>
</event>
<event>
12    7  0.1661464E-007  0.2234133E+04  0.7818608E-02  0.8504354E-01
         -1   -1    0    0    0  501 -0.00000000000E+00  0.00000000000E+00  0.84996198661E+03  0.84996198661E+03  0.00000000000E+00 0.  1.
          2   -1    0    0  501    0  0.00000000000E+00 -0.00000000000E+00 -0.14681092207E+04  0.14681092207E+04  0.00000000000E+00 0. -1.
         24    2    1    2    0    0  0.37257451563E+03 -0.32224131407E+03  0.57757443059E+03  0.76349141251E+03  0.81704834045E+02 0.  0.
        254    2    1    2    0    0 -0.37257451563E+03  0.32224131407E+03 -0.11957216646E+04  0.15545797948E+04  0.86273796995E+03 0.  0.
         23    2    4    4    0    0 -0.19326355005E+03  0.38729541181E+03 -0.12581130835E+04  0.13335786609E+04  0.90746780649E+02 0.  0.
         23    2    4    4    0    0 -0.17931096558E+03 -0.65054097740E+02  0.62391418853E+02  0.22100113385E+03  0.92543795078E+02 0.  0.
          4    1    3    3  502    0  0.16502624635E+03 -0.12507112986E+03  0.30171833573E+03  0.36593770456E+03  0.00000000000E+00 0. -1.
         -3    1    3    3    0  502  0.20754826928E+03 -0.19717018422E+03  0.27585609487E+03  0.39755370795E+03  0.00000000000E+00 0.  1.
         13    1    5    5    0    0 -0.15579138950E+03  0.26894902613E+03 -0.99956724250E+03  0.10467756245E+04  0.00000000000E+00 0. -1.
        -13    1    5    5    0    0 -0.37472160548E+02  0.11834638568E+03 -0.25854584099E+03  0.28680303644E+03  0.00000000000E+00 0.  1.
          1    1    6    6  503    0 -0.18449715626E+03 -0.44072990745E+02  0.50334186217E+02  0.19625279485E+03  0.00000000000E+00 0. -1.
         -1    1    6    6    0  503  0.51861906876E+01 -0.20981106995E+02  0.12057232635E+02  0.24748339003E+02  0.00000000000E+00 0.  1.
<mgrwt>
<rscale>  0 0.22341325E+04</rscale>
<asrwt>0</asrwt>
<pdfrwt beam="1">  1        2 0.22586295E+00 0.22341325E+04</pdfrwt>
<pdfrwt beam="2">  1       -1 0.13076339E+00 0.22341325E+04</pdfrwt>
<totfact> 0.68666369E+00</totfact>
</mgrwt>
</event>
<event>
12    7  0.1661464E-007  0.3129260E+04  0.7818608E-02  0.8207753E-01
          2   -1    0    0  501    0  0.00000000000E+00  0.00000000000E+00  0.22102552447E+04  0.22102552447E+04  0.00000000000E+00 0. -1.
         -1   -1    0    0    0  501 -0.00000000000E+00 -0.00000000000E+00 -0.11075950611E+04  0.11075950611E+04  0.00000000000E+00 0.  1.
         24    2    1    2    0    0 -0.13192601144E+04  0.39647334427E+03  0.90785331981E+02  0.13825067894E+04  0.73788102136E+02 0.  0.
        254    2    1    2    0    0  0.13192601144E+04 -0.39647334427E+03  0.10118748516E+04  0.19353435165E+04  0.90775847520E+03 0.  0.
         23    2    4    4    0    0  0.30872471203E+03 -0.14949086154E+03  0.79219106839E+03  0.86801684823E+03  0.90708844465E+02 0.  0.
         23    2    4    4    0    0  0.10105354024E+04 -0.24698248273E+03  0.21968378321E+03  0.10673266683E+04  0.93504577002E+02 0.  0.
          4    1    3    3  502    0 -0.30271988088E+03  0.11960245765E+03  0.36627710562E+02  0.32754490278E+03  0.00000000000E+00 0. -1.
         -3    1    3    3    0  502 -0.10165402335E+04  0.27687088662E+03  0.54157621419E+02  0.10549618866E+04  0.00000000000E+00 0.  1.
         13    1    5    5    0    0  0.21799842566E+03 -0.90501470752E+02  0.43655378469E+03  0.49627919232E+03  0.00000000000E+00 0.  1.
        -13    1    5    5    0    0  0.90726286371E+02 -0.58989390791E+02  0.35563728370E+03  0.37173765591E+03  0.00000000000E+00 0. -1.
          1    1    6    6  503    0  0.86864705279E+02 -0.27183409874E+02  0.46463201986E+02  0.10219219116E+03  0.00000000000E+00 0. -1.
         -1    1    6    6    0  503  0.92367069711E+03 -0.21979907286E+03  0.17322058123E+03  0.96513447710E+03  0.00000000000E+00 0.  1.
<mgrwt>
<rscale>  0 0.31292605E+04</rscale>
<asrwt>0</asrwt>
<pdfrwt beam="1">  1        2 0.34003927E+00 0.31292605E+04</pdfrwt>
<pdfrwt beam="2">  1       -1 0.17039924E+00 0.31292605E+04</pdfrwt>
<totfact> 0.11992916E+00</totfact>
</mgrwt>
</event>
<event>
12    7  0.1661464E-007  0.1434168E+04  0.7818608E-02  0.8929450E-01
         -1   -1    0    0    0  501 -0.00000000000E+00  0.00000000000E+00  0.17345971698E+03  0.17345971698E+03  0.00000000000E+00 0.  1.
          2   -1    0    0  501    0  0.00000000000E+00 -0.00000000000E+00 -0.29644328035E+04  0.29644328035E+04  0.00000000000E+00 0. -1.
         24    2    1    2    0    0  0.64653852841E+02  0.28404231811E+03 -0.15540883848E+04  0.15837989938E+04  0.91478881150E+02 0.  0.
        254    2    1    2    0    0 -0.64653852841E+02 -0.28404231811E+03 -0.12368847017E+04  0.15540935267E+04  0.89468584725E+03 0.  0.
         23    2    4    4    0    0  0.70005757452E+02 -0.52041726542E+03 -0.39046311305E+03  0.66064193622E+03  0.90837156627E+02 0.  0.
         23    2    4    4    0    0 -0.13465961029E+03  0.23637494730E+03 -0.84642158869E+03  0.89345159051E+03  0.88430268701E+02 0.  0.
          2    1    3    3  502    0  0.53858325750E+02  0.27698333703E+03 -0.13432958492E+04  0.13726121909E+04  0.00000000000E+00 0. -1.
         -1    1    3    3    0  502  0.10795527091E+02  0.70589810811E+01 -0.21079253563E+03  0.21118680284E+03  0.00000000000E+00 0.  1.
         13    1    5    5    0    0  0.44313536864E+02 -0.78791779659E+02 -0.60769975585E+02  0.10892577300E+03  0.00000000000E+00 0. -1.
        -13    1    5    5    0    0  0.25692220588E+02 -0.44162548576E+03 -0.32969313746E+03  0.55171616322E+03  0.00000000000E+00 0.  1.
          4    1    6    6  503    0 -0.13428129220E+03  0.23981021423E+03 -0.78120512685E+03  0.82814361949E+03  0.00000000000E+00 0. -1.
         -4    1    6    6    0  503 -0.37831809113E+00 -0.34352669282E+01 -0.65216461844E+02  0.65307971021E+02  0.00000000000E+00 0.  1.
<mgrwt>
<rscale>  0 0.14341683E+04</rscale>
<asrwt>0</asrwt>
<pdfrwt beam="1">  1        2 0.45606659E+00 0.14341683E+04</pdfrwt>
<pdfrwt beam="2">  1       -1 0.26686110E-01 0.14341683E+04</pdfrwt>
<totfact> 0.25565954E+01</totfact>
</mgrwt>
</event>
<event>
12    7  0.1661464E-007  0.2037903E+04  0.7818608E-02  0.8589102E-01
         -1   -1    0    0    0  501 -0.00000000000E+00  0.00000000000E+00  0.11487233907E+04  0.11487233907E+04  0.00000000000E+00 0.  1.
          2   -1    0    0  501    0  0.00000000000E+00 -0.00000000000E+00 -0.90383995027E+03  0.90383995027E+03  0.00000000000E+00 0. -1.
         24    2    1    2    0    0  0.57723268579E+02  0.69507521644E+02  0.92196499380E+03  0.92979393511E+03  0.79586686563E+02 0.  0.
        254    2    1    2    0    0 -0.57723268579E+02 -0.69507521644E+02 -0.67708155340E+03  0.11227694058E+04  0.89107151082E+03 0.  0.
         23    2    4    4    0    0 -0.81764122513E+02 -0.37367262545E+02 -0.88385131849E+03  0.89321607584E+03  0.92520921388E+02 0.  0.
         23    2    4    4    0    0  0.24040853934E+02 -0.32140259098E+02  0.20676976510E+03  0.22955332998E+03  0.91269034371E+02 0.  0.
          2    1    3    3  502    0  0.57013113078E+02  0.85278094255E+02  0.72863866122E+03  0.73582412780E+03  0.00000000000E+00 0. -1.
         -1    1    3    3    0  502  0.71015550107E+00 -0.15770572611E+02  0.19332633258E+03  0.19396980732E+03  0.00000000000E+00 0.  1.
         13    1    5    5    0    0 -0.72018333310E+02 -0.61296812087E+02 -0.79733047285E+03  0.80291956162E+03  0.00000000000E+00 0.  1.
        -13    1    5    5    0    0 -0.97457892036E+01  0.23929549541E+02 -0.86520845649E+02  0.90296514220E+02  0.00000000000E+00 0. -1.
          3    1    6    6  503    0 -0.19865828668E+02 -0.16182116705E+02  0.10315854090E+02  0.27621167523E+02  0.00000000000E+00 0. -1.
         -3    1    6    6    0  503  0.43906682602E+02 -0.15958142394E+02  0.19645391101E+03  0.20193216246E+03  0.00000000000E+00 0.  1.
<mgrwt>
<rscale>  0 0.20379029E+04</rscale>
<asrwt>0</asrwt>
<pdfrwt beam="1">  1        2 0.13905230E+00 0.20379029E+04</pdfrwt>
<pdfrwt beam="2">  1       -1 0.17672668E+00 0.20379029E+04</pdfrwt>
<totfact> 0.67681221E+00</totfact>
</mgrwt>
</event>
<event>
12    7  0.1661464E-007  0.2025360E+04  0.7818608E-02  0.8594855E-01
         -3   -1    0    0    0  501 -0.00000000000E+00  0.00000000000E+00  0.38086798408E+03  0.38086798408E+03  0.00000000000E+00 0.  1.
          2   -1    0    0  501    0  0.00000000000E+00 -0.00000000000E+00 -0.26925881794E+04  0.26925881794E+04  0.00000000000E+00 0. -1.
         24    2    1    2    0    0 -0.54133533901E+03  0.39776997838E+03 -0.16144560487E+04  0.17504512436E+04  0.79663780108E+02 0.  0.
        254    2    1    2    0    0  0.54133533901E+03 -0.39776997838E+03 -0.69726414657E+03  0.13230049199E+04  0.90160957347E+03 0.  0.
         23    2    4    4    0    0  0.34388627317E+03  0.84651695985E+02 -0.70444913647E+03  0.79376446866E+03  0.91595673086E+02 0.  0.
         23    2    4    4    0    0  0.19744906585E+03 -0.48242167437E+03  0.71849898993E+01  0.52924045122E+03  0.91252537659E+02 0.  0.
          4    1    3    3  502    0 -0.37206651722E+03  0.22620649323E+03 -0.10319798227E+04  0.11200826868E+04  0.00000000000E+00 0. -1.
         -3    1    3    3    0  502 -0.16926882180E+03  0.17156348515E+03 -0.58247622599E+03  0.63036855673E+03  0.00000000000E+00 0.  1.
         13    1    5    5    0    0 -0.50961290641E+01  0.26168942798E+01 -0.23779850820E+02  0.24460171138E+02  0.00000000000E+00 0.  1.
        -13    1    5    5    0    0  0.34898240223E+03  0.82034801705E+02 -0.68066928565E+03  0.76930429752E+03  0.00000000000E+00 0. -1.
          2    1    6    6  503    0  0.90300047891E+02 -0.33236944634E+03  0.14389173907E+02  0.34471813969E+03  0.00000000000E+00 0. -1.
         -2    1    6    6    0  503  0.10714901795E+03 -0.15005222803E+03 -0.72041840081E+01  0.18452231153E+03  0.00000000000E+00 0.  1.
<mgrwt>
<rscale>  0 0.20253599E+04</rscale>
<asrwt>0</asrwt>
<pdfrwt beam="1">  1        2 0.41424432E+00 0.20253599E+04</pdfrwt>
<pdfrwt beam="2">  1       -3 0.58595077E-01 0.20253599E+04</pdfrwt>
<totfact> 0.45725653E+00</totfact>
</mgrwt>
</event>
<event>
12    7  0.1661464E-007  0.2032476E+04  0.7818608E-02  0.8591586E-01
         -1   -1    0    0    0  501 -0.00000000000E+00  0.00000000000E+00  0.53239846168E+03  0.53239846168E+03  0.00000000000E+00 0.  1.
          2   -1    0    0  501    0  0.00000000000E+00 -0.00000000000E+00 -0.19397877785E+04  0.19397877785E+04  0.00000000000E+00 0. -1.
         24    2    1    2    0    0  0.29581475374E+03  0.14591478556E+03 -0.14692828384E+04  0.15079830170E+04  0.80145037979E+02 0.  0.
        254    2    1    2    0    0 -0.29581475374E+03 -0.14591478556E+03  0.61893521559E+02  0.96420322321E+03  0.90391346625E+03 0.  0.
         23    2    4    4    0    0 -0.58378404353E+03 -0.51743537427E+02 -0.11371727821E+03  0.60393249920E+03  0.91223029320E+02 0.  0.
         23    2    4    4    0    0  0.28796928978E+03 -0.94171248130E+02  0.17561079977E+03  0.36027072402E+03  0.84624498536E+02 0.  0.
          2    1    3    3  502    0  0.19320851882E+03  0.13266928414E+03 -0.94893181908E+03  0.97744681081E+03  0.00000000000E+00 0. -1.
         -1    1    3    3    0  502  0.10260623493E+03  0.13245501418E+02 -0.52035101930E+03  0.53053620615E+03  0.00000000000E+00 0.  1.
         13    1    5    5    0    0 -0.54752505477E+03 -0.36211052362E+02 -0.12525200895E+03  0.56283478185E+03  0.00000000000E+00 0.  1.
        -13    1    5    5    0    0 -0.36258988759E+02 -0.15532485064E+02  0.11534730735E+02  0.41097717348E+02  0.00000000000E+00 0. -1.
          2    1    6    6  503    0  0.23225281165E+01  0.40887648066E+00  0.22564118147E+02  0.22687017093E+02  0.00000000000E+00 0. -1.
         -2    1    6    6    0  503  0.28564676167E+03 -0.94580124611E+02  0.15304668163E+03  0.33758370692E+03  0.00000000000E+00 0.  1.
<mgrwt>
<rscale>  0 0.20324764E+04</rscale>
<asrwt>0</asrwt>
<pdfrwt beam="1">  1        2 0.29842888E+00 0.20324764E+04</pdfrwt>
<pdfrwt beam="2">  1       -1 0.81907457E-01 0.20324764E+04</pdfrwt>
<totfact> 0.11291977E+01</totfact>
</mgrwt>
</event>
<event>
12    7  0.1661464E-007  0.2156707E+04  0.7818608E-02  0.8536667E-01
         -1   -1    0    0    0  501 -0.00000000000E+00  0.00000000000E+00  0.22496968600E+04  0.22496968600E+04  0.00000000000E+00 0.  1.
          2   -1    0    0  501    0  0.00000000000E+00 -0.00000000000E+00 -0.51689027759E+03  0.51689027759E+03  0.00000000000E+00 0. -1.
         24    2    1    2    0    0  0.86623132501E+03  0.15388327949E+03  0.61761456331E+03  0.10778586073E+04  0.79338870260E+02 0.  0.
        254    2    1    2    0    0 -0.86623132501E+03 -0.15388327949E+03  0.11151920191E+04  0.16887285303E+04  0.91329843838E+03 0.  0.
         23    2    4    4    0    0 -0.29152223789E+03 -0.48324819561E+03  0.69064188582E+03  0.89649123586E+03  0.90533351791E+02 0.  0.
         23    2    4    4    0    0 -0.57470908712E+03  0.32936491612E+03  0.42455013330E+03  0.79223729447E+03  0.92872667049E+02 0.  0.
          4    1    3    3  502    0  0.22527483836E+03  0.46866390898E+02  0.12086131825E+03  0.25990896415E+03  0.00000000000E+00 0. -1.
         -3    1    3    3    0  502  0.64095648664E+03  0.10701688859E+03  0.49675324506E+03  0.81794964312E+03  0.00000000000E+00 0.  1.
         13    1    5    5    0    0 -0.12285922175E+03 -0.15227473587E+03  0.29309235259E+03  0.35239907874E+03  0.00000000000E+00 0.  1.
        -13    1    5    5    0    0 -0.16866301613E+03 -0.33097345974E+03  0.39754953323E+03  0.54409215712E+03  0.00000000000E+00 0. -1.
          4    1    6    6  503    0 -0.54748314829E+03  0.29615755052E+03  0.41539229430E+03  0.74833004119E+03  0.00000000000E+00 0. -1.
         -4    1    6    6    0  503 -0.27225938831E+02  0.33207365606E+02  0.91578389968E+01  0.43907253282E+02  0.00000000000E+00 0.  1.
<mgrwt>
<rscale>  0 0.21567072E+04</rscale>
<asrwt>0</asrwt>
<pdfrwt beam="1">  1        2 0.79521582E-01 0.21567072E+04</pdfrwt>
<pdfrwt beam="2">  1       -1 0.34610720E+00 0.21567072E+04</pdfrwt>
<totfact> 0.10241181E+00</totfact>
</mgrwt>
</event>
<event>
12    7  0.1661464E-007  0.3714789E+04  0.7818608E-02  0.8064692E-01
          2   -1    0    0  501    0  0.00000000000E+00  0.00000000000E+00  0.17595523161E+04  0.17595523161E+04  0.00000000000E+00 0. -1.
         -1   -1    0    0    0  501 -0.00000000000E+00 -0.00000000000E+00 -0.19606771660E+04  0.19606771660E+04  0.00000000000E+00 0.  1.
         24    2    1    2    0    0 -0.16473177288E+04  0.56642459572E+03 -0.22148570148E+03  0.17578889258E+04  0.81394332115E+02 0.  0.
        254    2    1    2    0    0  0.16473177288E+04 -0.56642459572E+03  0.20360851538E+02  0.19623405562E+04  0.90325709079E+03 0.  0.
         23    2    4    4    0    0  0.71315692554E+03 -0.65625482294E+03 -0.20076631713E+03  0.99399104290E+03  0.91912383268E+02 0.  0.
         23    2    4    4    0    0  0.93416080327E+03  0.89830227217E+02  0.22112716866E+03  0.96834951333E+03  0.89875909807E+02 0.  0.
          2    1    3    3  502    0 -0.42040795807E+03  0.12198906830E+03 -0.27361988351E+02  0.43860330869E+03  0.00000000000E+00 0. -1.
         -1    1    3    3    0  502 -0.12269097707E+04  0.44443552742E+03 -0.19412371312E+03  0.13192856171E+04  0.00000000000E+00 0.  1.
         13    1    5    5    0    0  0.39509544061E+03 -0.37450937962E+03 -0.15848790121E+03  0.56698862197E+03  0.00000000000E+00 0. -1.
        -13    1    5    5    0    0  0.31806148494E+03 -0.28174544332E+03 -0.42278415912E+02  0.42700242093E+03  0.00000000000E+00 0.  1.
          4    1    6    6  503    0  0.90155379693E+03  0.10167048989E+03  0.22038310295E+03  0.93365135320E+03  0.00000000000E+00 0. -1.
         -4    1    6    6    0  503  0.32607006337E+02 -0.11840262670E+02  0.74406571015E+00  0.34698160126E+02  0.00000000000E+00 0.  1.
<mgrwt>
<rscale>  0 0.37147888E+04</rscale>
<asrwt>0</asrwt>
<pdfrwt beam="1">  1        2 0.27070036E+00 0.37147888E+04</pdfrwt>
<pdfrwt beam="2">  1       -1 0.30164264E+00 0.37147888E+04</pdfrwt>
<totfact> 0.26905291E-01</totfact>
</mgrwt>
</event>
<event>
12    7  0.1661464E-007  0.2597124E+04  0.7818608E-02  0.8369179E-01
          4   -1    0    0  501    0  0.00000000000E+00  0.00000000000E+00  0.12092418320E+04  0.12092418320E+04  0.00000000000E+00 0. -1.
         -3   -1    0    0    0  501 -0.00000000000E+00 -0.00000000000E+00 -0.13944798722E+04  0.13944798722E+04  0.00000000000E+00 0.  1.
         24    2    1    2    0    0  0.28146947619E+03 -0.18833327826E+03  0.10095857611E+04  0.10680660022E+04  0.82505067291E+02 0.  0.
        254    2    1    2    0    0 -0.28146947619E+03  0.18833327826E+03 -0.11948238013E+04  0.15356557020E+04  0.90329398830E+03 0.  0.
         23    2    4    4    0    0 -0.24783390488E+03 -0.15304176372E+03 -0.17691865711E+02  0.30617536596E+03  0.92665671954E+02 0.  0.
         23    2    4    4    0    0 -0.33635571319E+02  0.34137504197E+03 -0.11771319356E+04  0.12294803361E+04  0.91181314299E+02 0.  0.
          4    1    3    3  502    0  0.24585205620E+03 -0.18831024758E+03  0.94305746364E+03  0.99260332590E+03  0.00000000000E+00 0. -1.
         -3    1    3    3    0  502  0.35617419996E+02 -0.23030680849E-01  0.66528297507E+02  0.75462676250E+02  0.00000000000E+00 0.  1.
         13    1    5    5    0    0 -0.81452682056E+02 -0.43031947007E+02 -0.48887147112E+02  0.10428921819E+03  0.00000000000E+00 0.  1.
        -13    1    5    5    0    0 -0.16638122282E+03 -0.11000981671E+03  0.31195281401E+02  0.20188614777E+03  0.00000000000E+00 0. -1.
          1    1    6    6  503    0 -0.54139679676E+02  0.23959931266E+03 -0.91874011101E+03  0.95101121293E+03  0.00000000000E+00 0. -1.
         -1    1    6    6    0  503  0.20504108357E+02  0.10177572931E+03 -0.25839182458E+03  0.27846912315E+03  0.00000000000E+00 0.  1.
<mgrwt>
<rscale>  0 0.25971241E+04</rscale>
<asrwt>0</asrwt>
<pdfrwt beam="1">  1        4 0.18603721E+00 0.25971241E+04</pdfrwt>
<pdfrwt beam="2">  1       -3 0.21453536E+00 0.25971241E+04</pdfrwt>
<totfact> 0.39112485E-02</totfact>
</mgrwt>
</event>
<event>
12    7  0.1661464E-007  0.1289665E+04  0.7818608E-02  0.9037801E-01
          2   -1    0    0  501    0  0.00000000000E+00  0.00000000000E+00  0.18916831817E+04  0.18916831817E+04  0.00000000000E+00 0. -1.
         -1   -1    0    0    0  501 -0.00000000000E+00 -0.00000000000E+00 -0.21980912168E+03  0.21980912168E+03  0.00000000000E+00 0.  1.
         24    2    1    2    0    0 -0.19072943570E+03 -0.24822266764E+03  0.63358389294E+03  0.71136269540E+03  0.81339563855E+02 0.  0.
        254    2    1    2    0    0  0.19072943570E+03  0.24822266764E+03  0.10382901671E+04  0.14001296080E+04  0.88562082049E+03 0.  0.
         23    2    4    4    0    0 -0.26923816110E+03 -0.11441492677E+03  0.56123463127E+03  0.63942288973E+03  0.91089833204E+02 0.  0.
         23    2    4    4    0    0  0.45996759680E+03  0.36263759440E+03  0.47705553580E+03  0.76070671824E+03  0.89534976150E+02 0.  0.
          2    1    3    3  502    0 -0.16724203923E+03 -0.20640268301E+03  0.45923263307E+03  0.53053423878E+03  0.00000000000E+00 0. -1.
         -1    1    3    3    0  502 -0.23487396464E+02 -0.41819984625E+02  0.17435125987E+03  0.18082845662E+03  0.00000000000E+00 0.  1.
         13    1    5    5    0    0 -0.58798756345E+02 -0.68605831594E+02  0.14706188660E+03  0.17260142631E+03  0.00000000000E+00 0. -1.
        -13    1    5    5    0    0 -0.21043940475E+03 -0.45809095173E+02  0.41417274467E+03  0.46682146342E+03  0.00000000000E+00 0.  1.
          1    1    6    6  503    0  0.13719887917E+03  0.12168993506E+03  0.99544227561E+02  0.20866486523E+03  0.00000000000E+00 0.  1.
         -1    1    6    6    0  503  0.32276871762E+03  0.24094765934E+03  0.37751130824E+03  0.55204185300E+03  0.00000000000E+00 0. -1.
<mgrwt>
<rscale>  0 0.12896654E+04</rscale>
<asrwt>0</asrwt>
<pdfrwt beam="1">  1        2 0.29102817E+00 0.12896654E+04</pdfrwt>
<pdfrwt beam="2">  1       -1 0.33816789E-01 0.12896654E+04</pdfrwt>
<totfact> 0.70802725E+01</totfact>
</mgrwt>
</event>
<event>
12    7  0.1661464E-007  0.1606735E+04  0.7818608E-02  0.8816421E-01
         -1   -1    0    0    0  501 -0.00000000000E+00  0.00000000000E+00  0.53054007417E+03  0.53054007417E+03  0.00000000000E+00 0.  1.
          2   -1    0    0  501    0  0.00000000000E+00 -0.00000000000E+00 -0.12164945105E+04  0.12164945105E+04  0.00000000000E+00 0. -1.
         24    2    1    2    0    0 -0.34585059121E+03  0.33113745827E+03  0.14402413311E+03  0.50599040192E+03  0.77580204999E+02 0.  0.
        254    2    1    2    0    0  0.34585059121E+03 -0.33113745827E+03 -0.82997856941E+03  0.12410441827E+04  0.78870881194E+03 0.  0.
         23    2    4    4    0    0  0.45655600985E+03 -0.47438278707E+03 -0.79347442947E+03  0.10352238645E+04  0.92759692926E+02 0.  0.
         23    2    4    4    0    0 -0.11070541864E+03  0.14324532880E+03 -0.36504139938E+02  0.20582031819E+03  0.90854483693E+02 0.  0.
          4    1    3    3  502    0 -0.11471313427E+03  0.11712759713E+03  0.87925062355E+02  0.18603438869E+03  0.00000000000E+00 0. -1.
         -1    1    3    3    0  502 -0.23113745694E+03  0.21400986114E+03  0.56099070760E+02  0.31995601324E+03  0.00000000000E+00 0.  1.
         13    1    5    5    0    0  0.15132377876E+02 -0.68098574266E+01 -0.47739236645E+02  0.50541049987E+02  0.00000000000E+00 0.  1.
        -13    1    5    5    0    0  0.44142363198E+03 -0.46757292965E+03 -0.74573519283E+03  0.98468281453E+03  0.00000000000E+00 0. -1.
          1    1    6    6  503    0 -0.10831115202E+03  0.11192596839E+03 -0.59669945157E+02  0.16679097819E+03  0.00000000000E+00 0. -1.
         -1    1    6    6    0  503 -0.23942666252E+01  0.31319360412E+02  0.23165805219E+02  0.39029339999E+02  0.00000000000E+00 0.  1.
<mgrwt>
<rscale>  0 0.16067347E+04</rscale>
<asrwt>0</asrwt>
<pdfrwt beam="1">  1        2 0.18715300E+00 0.16067347E+04</pdfrwt>
<pdfrwt beam="2">  1       -1 0.81621552E-01 0.16067347E+04</pdfrwt>
<totfact> 0.30241543E+01</totfact>
</mgrwt>
</event>
<event>
12    7  0.1661464E-007  0.1355383E+04  0.7818608E-02  0.8986763E-01
         -1   -1    0    0    0  501 -0.00000000000E+00  0.00000000000E+00  0.25965463119E+03  0.25965463119E+03  0.00000000000E+00 0.  1.
          2   -1    0    0  501    0  0.00000000000E+00 -0.00000000000E+00 -0.17687566964E+04  0.17687566964E+04  0.00000000000E+00 0. -1.
         24    2    1    2    0    0  0.10381041424E+03  0.34420389634E+03 -0.57445113360E+03  0.68292258597E+03  0.84476204760E+02 0.  0.
        254    2    1    2    0    0 -0.10381041424E+03 -0.34420389634E+03 -0.93465093159E+03  0.13454887416E+04  0.89861819785E+03 0.  0.
         23    2    4    4    0    0 -0.18226871550E+03  0.14271927046E+03  0.37901514588E+02  0.25119100786E+03  0.89831635922E+02 0.  0.
         23    2    4    4    0    0  0.78458301253E+02 -0.48692316679E+03 -0.97255244618E+03  0.10942977337E+04  0.91539030589E+02 0.  0.
          4    1    3    3  502    0  0.16986727937E+02  0.75148068605E+02 -0.67331306497E+02  0.10231952881E+03  0.00000000000E+00 0. -1.
         -3    1    3    3    0  502  0.86823686306E+02  0.26905582773E+03 -0.50711982711E+03  0.58060305716E+03  0.00000000000E+00 0.  1.
         13    1    5    5    0    0 -0.18139454237E+03  0.14844382998E+03  0.23377129593E+02  0.23555475128E+03  0.00000000000E+00 0.  1.
        -13    1    5    5    0    0 -0.87417312496E+00 -0.57245595235E+01  0.14524384995E+02  0.15636256581E+02  0.00000000000E+00 0. -1.
          1    1    6    6  503    0  0.17304159764E+02 -0.15728649476E+03 -0.40924419402E+03  0.43877019694E+03  0.00000000000E+00 0. -1.
         -1    1    6    6    0  503  0.61154141489E+02 -0.32963667203E+03 -0.56330825216E+03  0.65552753681E+03  0.00000000000E+00 0.  1.
<mgrwt>
<rscale>  0 0.13553831E+04</rscale>
<asrwt>0</asrwt>
<pdfrwt beam="1">  1        2 0.27211643E+00 0.13553831E+04</pdfrwt>
<pdfrwt beam="2">  1       -1 0.39946864E-01 0.13553831E+04</pdfrwt>
<totfact> 0.60996224E+01</totfact>
</mgrwt>
</event>
<event>
12    7  0.1661464E-007  0.1833409E+04  0.7818608E-02  0.8688732E-01
          2   -1    0    0  501    0  0.00000000000E+00  0.00000000000E+00  0.15332429415E+04  0.15332429415E+04  0.00000000000E+00 0. -1.
         -1   -1    0    0    0  501 -0.00000000000E+00 -0.00000000000E+00 -0.54808482804E+03  0.54808482804E+03  0.00000000000E+00 0.  1.
         24    2    1    2    0    0 -0.36478639811E+03  0.22057307022E+03 -0.24768298933E+03  0.49927014192E+03  0.78754148180E+02 0.  0.
        254    2    1    2    0    0  0.36478639811E+03 -0.22057307022E+03  0.12328411028E+04  0.15820576276E+04  0.89514666778E+03 0.  0.
         23    2    4    4    0    0  0.20745562610E+03 -0.55573090923E+03  0.64688294477E+03  0.88243561771E+03  0.91435194985E+02 0.  0.
         23    2    4    4    0    0  0.15733077201E+03  0.33515783901E+03  0.58595815805E+03  0.69962200994E+03  0.95080202652E+02 0.  0.
          4    1    3    3  502    0 -0.39290274525E+02  0.43120424202E+02 -0.10803427753E+02  0.59327992608E+02  0.00000000000E+00 0. -1.
         -3    1    3    3    0  502 -0.32549612358E+03  0.17745264602E+03 -0.23687956158E+03  0.43994214931E+03  0.00000000000E+00 0.  1.
         13    1    5    5    0    0  0.18379577825E+03 -0.54308916258E+03  0.61633242324E+03  0.84177929563E+03  0.00000000000E+00 0. -1.
        -13    1    5    5    0    0  0.23659847849E+02 -0.12641746646E+02  0.30550521532E+02  0.40656322072E+02  0.00000000000E+00 0.  1.
          1    1    6    6  503    0  0.10944335263E+03  0.30873510199E+03  0.50377323547E+03  0.60090155884E+03  0.00000000000E+00 0. -1.
         -1    1    6    6    0  503  0.47887419380E+02  0.26422737016E+02  0.82184922583E+02  0.98720451104E+02  0.00000000000E+00 0.  1.
<mgrwt>
<rscale>  0 0.18334091E+04</rscale>
<asrwt>0</asrwt>
<pdfrwt beam="1">  1        2 0.23588353E+00 0.18334091E+04</pdfrwt>
<pdfrwt beam="2">  1       -1 0.84320744E-01 0.18334091E+04</pdfrwt>
<totfact> 0.18169162E+01</totfact>
</mgrwt>
</event>
<event>
12    7  0.1661464E-007  0.1800146E+04  0.7818608E-02  0.8706222E-01
         -1   -1    0    0    0  501 -0.00000000000E+00  0.00000000000E+00  0.38521895889E+03  0.38521895889E+03  0.00000000000E+00 0.  1.
          2   -1    0    0  501    0  0.00000000000E+00 -0.00000000000E+00 -0.21030404124E+04  0.21030404124E+04  0.00000000000E+00 0. -1.
         24    2    1    2    0    0  0.15746307469E+03 -0.75655000916E+02 -0.15410182583E+04  0.15529049271E+04  0.79108413076E+02 0.  0.
        254    2    1    2    0    0 -0.15746307469E+03  0.75655000916E+02 -0.17680319525E+03  0.93535444426E+03  0.90172627083E+03 0.  0.
         23    2    4    4    0    0  0.34404559933E+03 -0.19432901321E+02  0.65995980305E+02  0.36247483176E+03  0.91035829080E+02 0.  0.
         23    2    4    4    0    0 -0.50150867402E+03  0.95087902237E+02 -0.24279917556E+03  0.57287961250E+03  0.93203816974E+02 0.  0.
          4    1    3    3  502    0  0.15526948986E+03 -0.74920718680E+02 -0.15409775482E+04  0.15505913493E+04  0.00000000000E+00 0. -1.
         -3    1    3    3    0  502  0.21935848287E+01 -0.73428223556E+00 -0.40710147340E-01  0.23135777744E+01  0.00000000000E+00 0.  1.
         13    1    5    5    0    0  0.13287771929E+03 -0.31490884639E+02  0.64340481534E+02  0.15095648931E+03  0.00000000000E+00 0. -1.
        -13    1    5    5    0    0  0.21116788004E+03  0.12057983318E+02  0.16554987707E+01  0.21151834246E+03  0.00000000000E+00 0.  1.
          3    1    6    6  503    0 -0.48108349781E+03  0.10964599981E+03 -0.22617234082E+03  0.54278679506E+03  0.00000000000E+00 0. -1.
         -3    1    6    6    0  503 -0.20425176204E+02 -0.14558097571E+02 -0.16626834735E+02  0.30092817435E+02  0.00000000000E+00 0.  1.
<mgrwt>
<rscale>  0 0.18001456E+04</rscale>
<asrwt>0</asrwt>
<pdfrwt beam="1">  1        2 0.32354468E+00 0.18001456E+04</pdfrwt>
<pdfrwt beam="2">  1       -1 0.59264454E-01 0.18001456E+04</pdfrwt>
<totfact> 0.18162906E+01</totfact>
</mgrwt>
</event>
<event>
12    7  0.1661464E-007  0.1822322E+04  0.7818608E-02  0.8694518E-01
          2   -1    0    0  501    0  0.00000000000E+00  0.00000000000E+00  0.76446704201E+03  0.76446704201E+03  0.00000000000E+00 0. -1.
         -1   -1    0    0    0  501 -0.00000000000E+00 -0.00000000000E+00 -0.10860041137E+04  0.10860041137E+04  0.00000000000E+00 0.  1.
         24    2    1    2    0    0 -0.88144198888E+02  0.89734182816E+02  0.56227946573E+03  0.58138638737E+03  0.77655073708E+02 0.  0.
        254    2    1    2    0    0  0.88144198888E+02 -0.89734182816E+02 -0.88381653739E+03  0.12690847683E+04  0.90201045118E+03 0.  0.
         23    2    4    4    0    0  0.15154295919E+02 -0.36783028427E+03 -0.49050201341E+02  0.38133048424E+03  0.86476848065E+02 0.  0.
         23    2    4    4    0    0  0.72989902969E+02  0.27809610145E+03 -0.83476633605E+03  0.88775428407E+03  0.92778583247E+02 0.  0.
          2    1    3    3  502    0 -0.56352466320E+02  0.12128579465E+02  0.31613098612E+03  0.32134327951E+03  0.00000000000E+00 0. -1.
         -1    1    3    3    0  502 -0.31791732567E+02  0.77605603350E+02  0.24614847961E+03  0.26004310786E+03  0.00000000000E+00 0.  1.
         13    1    5    5    0    0 -0.20532369504E+02 -0.41692450353E+02 -0.23962925333E+02  0.52288243463E+02  0.00000000000E+00 0. -1.
        -13    1    5    5    0    0  0.35686665422E+02 -0.32613783391E+03 -0.25087276008E+02  0.32904224078E+03  0.00000000000E+00 0.  1.
          3    1    6    6  503    0 -0.11764943344E+02  0.32795096007E+02 -0.18166574772E+03  0.18497669072E+03  0.00000000000E+00 0. -1.
         -3    1    6    6    0  503  0.84754846313E+02  0.24530100544E+03 -0.65310058833E+03  0.70277759336E+03  0.00000000000E+00 0.  1.
<mgrwt>
<rscale>  0 0.18223220E+04</rscale>
<asrwt>0</asrwt>
<pdfrwt beam="1">  1        2 0.11761031E+00 0.18223220E+04</pdfrwt>
<pdfrwt beam="2">  1       -1 0.16707756E+00 0.18223220E+04</pdfrwt>
<totfact> 0.10176143E+01</totfact>
</mgrwt>
</event>
<event>
12    7  0.1661464E-007  0.2302749E+04  0.7818608E-02  0.8476838E-01
         -1   -1    0    0    0  501 -0.00000000000E+00  0.00000000000E+00  0.64356836686E+03  0.64356836686E+03  0.00000000000E+00 0.  1.
          2   -1    0    0  501    0  0.00000000000E+00 -0.00000000000E+00 -0.20598643297E+04  0.20598643297E+04  0.00000000000E+00 0. -1.
         24    2    1    2    0    0  0.31440873203E+03  0.91584315958E+03 -0.47902292158E+03  0.10838914870E+04  0.87955969288E+02 0.  0.
        254    2    1    2    0    0 -0.31440873203E+03 -0.91584315958E+03 -0.93727304129E+03  0.16195412095E+04  0.89822682644E+03 0.  0.
         23    2    4    4    0    0 -0.47800822098E+03 -0.84040755376E+03 -0.10138155929E+04  0.14039437150E+04  0.91973814774E+02 0.  0.
         23    2    4    4    0    0  0.16359948895E+03 -0.75435605825E+02  0.76542551644E+02  0.21559749456E+03  0.90378061717E+02 0.  0.
          2    1    3    3  502    0  0.16090213291E+03  0.54633069084E+03 -0.32037891887E+03  0.65345954105E+03  0.00000000000E+00 0. -1.
         -1    1    3    3    0  502  0.15350659912E+03  0.36951246874E+03 -0.15864400270E+03  0.43043194599E+03  0.00000000000E+00 0.  1.
         13    1    5    5    0    0 -0.34413454770E+03 -0.58247260278E+03 -0.76632680282E+03  0.10222326979E+04  0.00000000000E+00 0. -1.
        -13    1    5    5    0    0 -0.13387367328E+03 -0.25793495098E+03 -0.24748879011E+03  0.38171101708E+03  0.00000000000E+00 0.  1.
          1    1    6    6  503    0  0.90960775346E+02 -0.77884574095E+02  0.77983726253E+02  0.14290322283E+03  0.00000000000E+00 0. -1.
         -1    1    6    6    0  503  0.72638713603E+02  0.24489682704E+01 -0.14411746084E+01  0.72694271739E+02  0.00000000000E+00 0.  1.
<mgrwt>
<rscale>  0 0.23027492E+04</rscale>
<asrwt>0</asrwt>
<pdfrwt beam="1">  1        2 0.31690221E+00 0.23027492E+04</pdfrwt>
<pdfrwt beam="2">  1       -1 0.99010518E-01 0.23027492E+04</pdfrwt>
<totfact> 0.62223621E+00</totfact>
</mgrwt>
</event>
<event>
12    7  0.1661464E-007  0.3263377E+04  0.7818608E-02  0.8172277E-01
         -1   -1    0    0    0  501 -0.00000000000E+00  0.00000000000E+00  0.66103597130E+03  0.66103597130E+03  0.00000000000E+00 0.  1.
          2   -1    0    0  501    0  0.00000000000E+00 -0.00000000000E+00 -0.40276273688E+04  0.40276273688E+04  0.00000000000E+00 0. -1.
         24    2    1    2    0    0  0.14287461021E+04  0.48047655097E+03 -0.16375199412E+04  0.22272140662E+04  0.82690980587E+02 0.  0.
        254    2    1    2    0    0 -0.14287461021E+04 -0.48047655097E+03 -0.17290714562E+04  0.24614492739E+04  0.89267647375E+03 0.  0.
         23    2    4    4    0    0 -0.14667004138E+04 -0.52421317489E+03 -0.17572718012E+04  0.23500044333E+04  0.92233923505E+02 0.  0.
         23    2    4    4    0    0  0.37954311711E+02  0.43736623927E+02  0.28200344984E+02  0.11144484055E+03  0.90946528129E+02 0.  0.
          2    1    3    3  502    0  0.25157681167E+03  0.51890658270E+02 -0.28066373236E+03  0.38046769015E+03  0.00000000000E+00 0. -1.
         -1    1    3    3    0  502  0.11771692905E+04  0.42858589269E+03 -0.13568562089E+04  0.18467463760E+04  0.00000000000E+00 0.  1.
         13    1    5    5    0    0 -0.14654273030E+04 -0.52497932803E+03 -0.17480968769E+04  0.23407099705E+04  0.00000000000E+00 0. -1.
        -13    1    5    5    0    0 -0.12731108261E+01  0.76615313554E+00 -0.91749243452E+01  0.92944627894E+01  0.00000000000E+00 0.  1.
          2    1    6    6  503    0  0.21355130436E+01  0.59210784239E+02  0.39032458232E+02  0.70950758853E+02  0.00000000000E+00 0. -1.
         -2    1    6    6    0  503  0.35818798668E+02 -0.15474160312E+02 -0.10832113248E+02  0.40494081701E+02  0.00000000000E+00 0.  1.
<mgrwt>
<rscale>  0 0.32633765E+04</rscale>
<asrwt>0</asrwt>
<pdfrwt beam="1">  1        2 0.61963500E+00 0.32633765E+04</pdfrwt>
<pdfrwt beam="2">  1       -1 0.10169784E+00 0.32633765E+04</pdfrwt>
<totfact> 0.28273997E-01</totfact>
</mgrwt>
</event>
<event>
12    7  0.1661464E-007  0.1426677E+04  0.7818608E-02  0.8934732E-01
          2   -1    0    0  501    0  0.00000000000E+00  0.00000000000E+00  0.17279562785E+04  0.17279562785E+04  0.00000000000E+00 0. -1.
         -1   -1    0    0    0  501 -0.00000000000E+00 -0.00000000000E+00 -0.29448173635E+03  0.29448173635E+03  0.00000000000E+00 0.  1.
         24    2    1    2    0    0 -0.17516665435E+03 -0.15165894703E+03 -0.67837252276E+02  0.25470398926E+03  0.81169183422E+02 0.  0.
        254    2    1    2    0    0  0.17516665435E+03  0.15165894703E+03  0.15013117945E+04  0.17677340256E+04  0.90402582272E+03 0.  0.
         23    2    4    4    0    0 -0.35421363202E+03 -0.24174645502E+02  0.63390768555E+03  0.73227695489E+03  0.91317436800E+02 0.  0.
         23    2    4    4    0    0  0.52938028637E+03  0.17583359254E+03  0.86740410891E+03  0.10354570707E+04  0.92846741040E+02 0.  0.
          2    1    3    3  502    0 -0.92644684676E+02 -0.34972653936E+02 -0.66811977330E+01  0.99251007679E+02  0.00000000000E+00 0. -1.
         -1    1    3    3    0  502 -0.82521969678E+02 -0.11668629310E+03 -0.61156054543E+02  0.15545298159E+03  0.00000000000E+00 0.  1.
         13    1    5    5    0    0 -0.69383772542E+02  0.20311087798E+02  0.18664734839E+03  0.20015963839E+03  0.00000000000E+00 0. -1.
        -13    1    5    5    0    0 -0.28482985948E+03 -0.44485733300E+02  0.44726033716E+03  0.53211731649E+03  0.00000000000E+00 0.  1.
          3    1    6    6  503    0  0.18263192954E+02  0.27110736952E+02  0.40765981502E+02  0.52253244137E+02  0.00000000000E+00 0. -1.
         -3    1    6    6    0  503  0.51111709342E+03  0.14872285558E+03  0.82663812741E+03  0.98320382660E+03  0.00000000000E+00 0.  1.
<mgrwt>
<rscale>  0 0.14266766E+04</rscale>
<asrwt>0</asrwt>
<pdfrwt beam="1">  1        2 0.26583942E+00 0.14266766E+04</pdfrwt>
<pdfrwt beam="2">  1       -1 0.45304884E-01 0.14266766E+04</pdfrwt>
<totfact> 0.50638152E+01</totfact>
</mgrwt>
</event>
<event>
12    7  0.1661464E-007  0.1423900E+04  0.7818608E-02  0.8936698E-01
         -1   -1    0    0    0  501 -0.00000000000E+00  0.00000000000E+00  0.40399965038E+03  0.40399965038E+03  0.00000000000E+00 0.  1.
          2   -1    0    0  501    0  0.00000000000E+00 -0.00000000000E+00 -0.12546364642E+04  0.12546364642E+04  0.00000000000E+00 0. -1.
         24    2    1    2    0    0  0.41915946284E+03  0.13726090859E+01 -0.32824581860E+03  0.53851941713E+03  0.81001887947E+02 0.  0.
        254    2    1    2    0    0 -0.41915946284E+03 -0.13726090859E+01 -0.52239099517E+03  0.11201166974E+04  0.89781541790E+03 0.  0.
         23    2    4    4    0    0 -0.38810597299E+03  0.37350272575E+03 -0.48647536391E+03  0.73129577488E+03  0.89468979316E+02 0.  0.
         23    2    4    4    0    0 -0.31053489847E+02 -0.37487533484E+03 -0.35915631267E+02  0.38882092252E+03  0.91629369315E+02 0.  0.
          4    1    3    3  502    0  0.36997179388E+03 -0.24784132980E+02 -0.29305917572E+03  0.47262782608E+03  0.00000000000E+00 0. -1.
         -3    1    3    3    0  502  0.49187668961E+02  0.26156742066E+02 -0.35186642882E+02  0.65891591046E+02  0.00000000000E+00 0.  1.
         13    1    5    5    0    0 -0.33271773607E+03  0.34079969943E+03 -0.45864306298E+03  0.66121024361E+03  0.00000000000E+00 0.  1.
        -13    1    5    5    0    0 -0.55388236922E+02  0.32703026319E+02 -0.27832300925E+02  0.70085531278E+02  0.00000000000E+00 0. -1.
          4    1    6    6  503    0 -0.24110311032E+02 -0.19862844126E+03 -0.64307962796E+02  0.21016678819E+03  0.00000000000E+00 0. -1.
         -4    1    6    6    0  503 -0.69431788141E+01 -0.17624689357E+03  0.28392331529E+02  0.17865413434E+03  0.00000000000E+00 0.  1.
<mgrwt>
<rscale>  0 0.14238998E+04</rscale>
<asrwt>0</asrwt>
<pdfrwt beam="1">  1        2 0.19302099E+00 0.14238998E+04</pdfrwt>
<pdfrwt beam="2">  1       -1 0.62153793E-01 0.14238998E+04</pdfrwt>
<totfact> 0.51118955E+01</totfact>
</mgrwt>
</event>
<event>
12    7  0.1661464E-007  0.1296156E+04  0.7818608E-02  0.9032619E-01
         -1   -1    0    0    0  501 -0.00000000000E+00  0.00000000000E+00  0.14233513111E+04  0.14233513111E+04  0.00000000000E+00 0.  1.
          2   -1    0    0  501    0  0.00000000000E+00 -0.00000000000E+00 -0.29508185718E+03  0.29508185718E+03  0.00000000000E+00 0. -1.
         24    2    1    2    0    0 -0.92004063893E+02  0.30437844502E+03  0.38622807551E+03  0.50653026750E+03  0.79308259496E+02 0.  0.
        254    2    1    2    0    0  0.92004063893E+02 -0.30437844502E+03  0.74204137845E+03  0.12119029008E+04  0.90386517141E+03 0.  0.
         23    2    4    4    0    0 -0.14369844434E+03  0.11586845433E+03  0.68864102300E+03  0.71876617281E+03  0.91233825969E+02 0.  0.
         23    2    4    4    0    0  0.23570250823E+03 -0.42024689935E+03  0.53400355455E+02  0.49313672800E+03  0.90383105414E+02 0.  0.
          2    1    3    3  502    0 -0.34575951322E+02  0.16115594915E+03  0.14157120700E+03  0.21727665086E+03  0.00000000000E+00 0. -1.
         -1    1    3    3    0  502 -0.57428112571E+02  0.14322249586E+03  0.24465686850E+03  0.28925361664E+03  0.00000000000E+00 0.  1.
         13    1    5    5    0    0  0.83170903503E+01 -0.27829488749E+01  0.10203998333E+02  0.13455124611E+02  0.00000000000E+00 0. -1.
        -13    1    5    5    0    0 -0.15201553469E+03  0.11865140321E+03  0.67843702467E+03  0.70531104820E+03  0.00000000000E+00 0.  1.
          1    1    6    6  503    0  0.30386323564E+02 -0.37281178362E+02  0.32609154164E+02  0.58108276993E+02  0.00000000000E+00 0. -1.
         -1    1    6    6    0  503  0.20531618467E+03 -0.38296572099E+03  0.20791201291E+02  0.43502845101E+03  0.00000000000E+00 0.  1.
<mgrwt>
<rscale>  0 0.12961561E+04</rscale>
<asrwt>0</asrwt>
<pdfrwt beam="1">  1        2 0.45397210E-01 0.12961561E+04</pdfrwt>
<pdfrwt beam="2">  1       -1 0.21897712E+00 0.12961561E+04</pdfrwt>
<totfact> 0.14050584E+01</totfact>
</mgrwt>
</event>
<event>
12    7  0.1661464E-007  0.3321312E+04  0.7818608E-02  0.8157494E-01
         -1   -1    0    0    0  501 -0.00000000000E+00  0.00000000000E+00  0.13714622279E+04  0.13714622279E+04  0.00000000000E+00 0.  1.
          2   -1    0    0  501    0  0.00000000000E+00 -0.00000000000E+00 -0.20108303932E+04  0.20108303932E+04  0.00000000000E+00 0. -1.
         24    2    1    2    0    0  0.11514660938E+04  0.97870732400E+03 -0.61902074378E+03  0.16349622317E+04  0.78566065645E+02 0.  0.
        254    2    1    2    0    0 -0.11514660938E+04 -0.97870732400E+03 -0.20347421502E+02  0.17473303893E+04  0.87693060190E+03 0.  0.
         23    2    4    4    0    0 -0.12833830070E+04 -0.85996663489E+03 -0.23379986108E+01  0.15476327808E+04  0.92451079129E+02 0.  0.
         23    2    4    4    0    0  0.13191691318E+03 -0.11874068911E+03 -0.18009422892E+02  0.19969760855E+03  0.89740583418E+02 0.  0.
          2    1    3    3  502    0  0.16379537768E+03  0.11379306801E+03 -0.10158705910E+03  0.22382519665E+03  0.00000000000E+00 0. -1.
         -1    1    3    3    0  502  0.98767071615E+03  0.86491425598E+03 -0.51743368467E+03  0.14111370351E+04  0.00000000000E+00 0.  1.
         13    1    5    5    0    0 -0.32622567939E+03 -0.17567057320E+03 -0.17405072199E+02  0.37092624701E+03  0.00000000000E+00 0. -1.
        -13    1    5    5    0    0 -0.95715732763E+03 -0.68429606169E+03  0.15067073588E+02  0.11767065338E+04  0.00000000000E+00 0.  1.
          4    1    6    6  503    0  0.49650027703E+02 -0.77862712581E+02 -0.46667804461E+02  0.10346792370E+03  0.00000000000E+00 0. -1.
         -4    1    6    6    0  503  0.82266885480E+02 -0.40877976527E+02  0.28658381569E+02  0.96229684846E+02  0.00000000000E+00 0.  1.
<mgrwt>
<rscale>  0 0.33213117E+04</rscale>
<asrwt>0</asrwt>
<pdfrwt beam="1">  1        2 0.30935852E+00 0.33213117E+04</pdfrwt>
<pdfrwt beam="2">  1       -1 0.21099419E+00 0.33213117E+04</pdfrwt>
<totfact> 0.79095838E-01</totfact>
</mgrwt>
</event>
<event>
12    7  0.1762641E-007  0.1793536E+04  0.7818608E-02  0.8709744E-01
          2   -1    0    0  501    0  0.00000000000E+00  0.00000000000E+00  0.93304239651E+03  0.93304239651E+03  0.00000000000E+00 0. -1.
         -1   -1    0    0    0  501 -0.00000000000E+00 -0.00000000000E+00 -0.86190420915E+03  0.86190420915E+03  0.00000000000E+00 0.  1.
         24    2    1    2    0    0 -0.53872156294E+03 -0.43008748750E+02  0.41779855232E+03  0.68816575257E+03  0.83341453326E+02 0.  0.
        254    2    1    2    0    0  0.53872156294E+03  0.43008748750E+02 -0.34666036496E+03  0.11067808531E+04  0.90150971891E+03 0.  0.
         23    2    4    4    0    0 -0.16748793283E+02  0.32813531526E+03  0.69734618684E+02  0.35081849118E+03  0.10127877130E+03 0.  0.
         23    2    4    4    0    0  0.55547035622E+03 -0.28512656651E+03 -0.41639498364E+03  0.75596236191E+03  0.90828600378E+02 0.  0.
          4    1    3    3  502    0 -0.52181046196E+03 -0.25948117718E+02  0.39415151010E+03  0.65445769606E+03  0.00000000000E+00 0. -1.
         -3    1    3    3    0  502 -0.16911100981E+02 -0.17060631032E+02  0.23647042221E+02  0.33708056506E+02  0.00000000000E+00 0.  1.
         13    1    5    5    0    0  0.10034225984E+02  0.30622516345E+03  0.75947067804E+02  0.31566199253E+03  0.00000000000E+00 0. -1.
        -13    1    5    5    0    0 -0.26783019267E+02  0.21910151812E+02 -0.62124491196E+01  0.35156498653E+02  0.00000000000E+00 0.  1.
          1    1    6    6  503    0  0.41174547846E+03 -0.25116714617E+03 -0.33610471542E+03  0.58786533669E+03  0.00000000000E+00 0. -1.
         -1    1    6    6    0  503  0.14372487776E+03 -0.33959420336E+02 -0.80290268222E+02  0.16809702522E+03  0.00000000000E+00 0.  1.
<mgrwt>
<rscale>  0 0.17935364E+04</rscale>
<asrwt>0</asrwt>
<pdfrwt beam="1">  1        2 0.14354499E+00 0.17935364E+04</pdfrwt>
<pdfrwt beam="2">  1       -1 0.13260065E+00 0.17935364E+04</pdfrwt>
<totfact> 0.14483773E+01</totfact>
</mgrwt>
</event>
<event>
12    7  0.1661464E-007  0.1260089E+04  0.7818608E-02  0.9061827E-01
         -1   -1    0    0    0  501 -0.00000000000E+00  0.00000000000E+00  0.24299028707E+03  0.24299028707E+03  0.00000000000E+00 0.  1.
          2   -1    0    0  501    0  0.00000000000E+00 -0.00000000000E+00 -0.16336303611E+04  0.16336303611E+04  0.00000000000E+00 0. -1.
         24    2    1    2    0    0 -0.28967230204E+03 -0.27394689970E+01 -0.23269013726E+03  0.37992687108E+03  0.79260205206E+02 0.  0.
        254    2    1    2    0    0  0.28967230204E+03  0.27394689970E+01 -0.11579499367E+04  0.14966937771E+04  0.90295440584E+03 0.  0.
         23    2    4    4    0    0 -0.90518104003E+01  0.34807535198E+03 -0.16088660413E+03  0.39561991001E+03  0.96913507218E+02 0.  0.
         23    2    4    4    0    0  0.29872411244E+03 -0.34533588298E+03 -0.99706333261E+03  0.11010738671E+04  0.98668151077E+02 0.  0.
          4    1    3    3  502    0  0.72612126583E+00 -0.55219840729E+01  0.26143797625E+01  0.61526044678E+01  0.00000000000E+00 0. -1.
         -3    1    3    3    0  502 -0.29039842331E+03  0.27825150760E+01 -0.23530451702E+03  0.37377426661E+03  0.00000000000E+00 0.  1.
         13    1    5    5    0    0 -0.31439755190E+02  0.50087578281E+02 -0.71587685633E+01  0.59569049614E+02  0.00000000000E+00 0.  1.
        -13    1    5    5    0    0  0.22387944790E+02  0.29798777370E+03 -0.15372783557E+03  0.33605086040E+03  0.00000000000E+00 0. -1.
          3    1    6    6  503    0  0.43166926272E+02 -0.36400580835E+02 -0.63023710552E+02  0.84618992553E+02  0.00000000000E+00 0. -1.
         -3    1    6    6    0  503  0.25555718617E+03 -0.30893530214E+03 -0.93403962206E+03  0.10164548745E+04  0.00000000000E+00 0.  1.
<mgrwt>
<rscale>  0 0.12600894E+04</rscale>
<asrwt>0</asrwt>
<pdfrwt beam="1">  1        2 0.25132774E+00 0.12600894E+04</pdfrwt>
<pdfrwt beam="2">  1       -1 0.37383122E-01 0.12600894E+04</pdfrwt>
<totfact> 0.82376378E+01</totfact>
</mgrwt>
</event>
<event>
12    7  0.1661464E-007  0.2275687E+04  0.7818608E-02  0.8487570E-01
          2   -1    0    0  501    0  0.00000000000E+00  0.00000000000E+00  0.23514443833E+04  0.23514443833E+04  0.00000000000E+00 0. -1.
         -1   -1    0    0    0  501 -0.00000000000E+00 -0.00000000000E+00 -0.55059252298E+03  0.55059252298E+03  0.00000000000E+00 0.  1.
         24    2    1    2    0    0  0.83983270308E+03  0.42292983347E+02  0.13470760110E+04  0.15900439608E+04  0.80736312040E+02 0.  0.
        254    2    1    2    0    0 -0.83983270308E+03 -0.42292983347E+02  0.45377584926E+03  0.13119929455E+04  0.89905800814E+03 0.  0.
         23    2    4    4    0    0 -0.95980736442E+03 -0.22419783501E+03  0.31928454708E+03  0.10402407968E+04  0.93077641590E+02 0.  0.
         23    2    4    4    0    0  0.11997466134E+03  0.18190485167E+03  0.13449130219E+03  0.27175214865E+03  0.90983655166E+02 0.  0.
          4    1    3    3  502    0  0.63012429915E+03  0.56436504881E+02  0.96305879444E+03  0.11522690454E+04  0.00000000000E+00 0. -1.
         -3    1    3    3    0  502  0.20970840393E+03 -0.14143521534E+02  0.38401721657E+03  0.43777491535E+03  0.00000000000E+00 0.  1.
         13    1    5    5    0    0 -0.76104106799E+03 -0.21294090667E+03  0.23951141158E+03  0.82576815946E+03  0.00000000000E+00 0. -1.
        -13    1    5    5    0    0 -0.19876629643E+03 -0.11256928340E+02  0.79773135501E+02  0.21447263737E+03  0.00000000000E+00 0.  1.
          1    1    6    6  503    0  0.96613034659E+02  0.86687377594E+02  0.11134355739E+03  0.17101510949E+03  0.00000000000E+00 0. -1.
         -1    1    6    6    0  503  0.23361626683E+02  0.95217474072E+02  0.23147744796E+02  0.10073703916E+03  0.00000000000E+00 0.  1.
<mgrwt>
<rscale>  0 0.22756869E+04</rscale>
<asrwt>0</asrwt>
<pdfrwt beam="1">  1        2 0.36176067E+00 0.22756869E+04</pdfrwt>
<pdfrwt beam="2">  1       -1 0.84706543E-01 0.22756869E+04</pdfrwt>
<totfact> 0.60421869E+00</totfact>
</mgrwt>
</event>
<event>
12    7  0.1661464E-007  0.1293865E+04  0.7818608E-02  0.9034444E-01
         -1   -1    0    0    0  501 -0.00000000000E+00  0.00000000000E+00  0.12541321196E+04  0.12541321196E+04  0.00000000000E+00 0.  1.
          2   -1    0    0  501    0  0.00000000000E+00 -0.00000000000E+00 -0.33371427177E+03  0.33371427177E+03  0.00000000000E+00 0. -1.
         24    2    1    2    0    0  0.25633629158E+03 -0.20681374071E+03  0.31394803329E+03  0.46196390075E+03  0.79793861021E+02 0.  0.
        254    2    1    2    0    0 -0.25633629158E+03  0.20681374071E+03  0.60646981454E+03  0.11258824906E+04  0.88956479755E+03 0.  0.
         23    2    4    4    0    0 -0.44295014006E+03  0.44054920116E+03  0.45111601816E+03  0.77596151066E+03  0.91225977424E+02 0.  0.
         23    2    4    4    0    0  0.18661384848E+03 -0.23373546044E+03  0.15535379638E+03  0.34992097998E+03  0.94089830821E+02 0.  0.
          2    1    3    3  502    0  0.65330383918E+02 -0.20529050123E+02  0.93336333422E+02  0.11576343161E+03  0.00000000000E+00 0. -1.
         -1    1    3    3    0  502  0.19100590766E+03 -0.18628469059E+03  0.22061169987E+03  0.34620046914E+03  0.00000000000E+00 0.  1.
         13    1    5    5    0    0 -0.28036232123E+03  0.32657778508E+03  0.27672904801E+03  0.51169819903E+03  0.00000000000E+00 0. -1.
        -13    1    5    5    0    0 -0.16258781883E+03  0.11397141608E+03  0.17438697015E+03  0.26426331163E+03  0.00000000000E+00 0.  1.
          4    1    6    6  503    0  0.19329098831E+03 -0.20134091992E+03  0.12825844722E+03  0.30716412791E+03  0.00000000000E+00 0. -1.
         -4    1    6    6    0  503 -0.66771398259E+01 -0.32394540527E+02  0.27095349159E+02  0.42756852062E+02  0.00000000000E+00 0.  1.
<mgrwt>
<rscale>  0 0.12938652E+04</rscale>
<asrwt>0</asrwt>
<pdfrwt beam="1">  1        2 0.51340658E-01 0.12938652E+04</pdfrwt>
<pdfrwt beam="2">  1       -1 0.19294340E+00 0.12938652E+04</pdfrwt>
<totfact> 0.18443271E+01</totfact>
</mgrwt>
</event>
<event>
12    7  0.1661464E-007  0.2620502E+04  0.7818608E-02  0.8361270E-01
          2   -1    0    0  501    0  0.00000000000E+00  0.00000000000E+00  0.19661544925E+04  0.19661544925E+04  0.00000000000E+00 0. -1.
         -1   -1    0    0    0  501 -0.00000000000E+00 -0.00000000000E+00 -0.87315519723E+03  0.87315519723E+03  0.00000000000E+00 0.  1.
         24    2    1    2    0    0 -0.34484461883E+03  0.40898582770E+03 -0.62529516852E+03  0.82673469210E+03  0.79429119007E+02 0.  0.
        254    2    1    2    0    0  0.34484461883E+03 -0.40898582770E+03  0.17182944637E+04  0.20125749976E+04  0.90096339460E+03 0.  0.
         23    2    4    4    0    0  0.44877321686E+03 -0.11741499300E+03  0.16008786044E+04  0.16692128578E+04  0.90970202413E+02 0.  0.
         23    2    4    4    0    0 -0.10392859804E+03 -0.29157083470E+03  0.11741585934E+03  0.34336213982E+03  0.91084410881E+02 0.  0.
          2    1    3    3  502    0 -0.69773270659E+02  0.58645931220E+02 -0.14857672236E+03  0.17430633085E+03  0.00000000000E+00 0. -1.
         -1    1    3    3    0  502 -0.27507134817E+03  0.35033989648E+03 -0.47671844616E+03  0.65242836125E+03  0.00000000000E+00 0.  1.
         13    1    5    5    0    0  0.31767025232E+03 -0.39767185192E+02  0.11067288973E+04  0.11521044528E+04  0.00000000000E+00 0. -1.
        -13    1    5    5    0    0  0.13110296455E+03 -0.77647807812E+02  0.49414970715E+03  0.51710840493E+03  0.00000000000E+00 0.  1.
          1    1    6    6  503    0 -0.35754576919E+02 -0.22131039431E+03  0.72146878352E+02  0.23550340222E+03  0.00000000000E+00 0. -1.
         -1    1    6    6    0  503 -0.68174021117E+02 -0.70260440385E+02  0.45268980984E+02  0.10785873760E+03  0.00000000000E+00 0.  1.
<mgrwt>
<rscale>  0 0.26205023E+04</rscale>
<asrwt>0</asrwt>
<pdfrwt beam="1">  1        2 0.30248531E+00 0.26205023E+04</pdfrwt>
<pdfrwt beam="2">  1       -1 0.13433157E+00 0.26205023E+04</pdfrwt>
<totfact> 0.32706594E+00</totfact>
</mgrwt>
</event>
<event>
12    7  0.1661464E-007  0.1504652E+04  0.7818608E-02  0.8881365E-01
         -1   -1    0    0    0  501 -0.00000000000E+00  0.00000000000E+00  0.55501810934E+03  0.55501810934E+03  0.00000000000E+00 0.  1.
          2   -1    0    0  501    0  0.00000000000E+00 -0.00000000000E+00 -0.10197770129E+04  0.10197770129E+04  0.00000000000E+00 0. -1.
         24    2    1    2    0    0  0.38725312499E+03  0.28799172323E+03 -0.15128033027E+03  0.51191481460E+03  0.79163271842E+02 0.  0.
        254    2    1    2    0    0 -0.38725312499E+03 -0.28799172323E+03 -0.31347857328E+03  0.10628803076E+04  0.89361150227E+03 0.  0.
         23    2    4    4    0    0  0.27687434678E+03 -0.42737341358E+02 -0.35525311484E+02  0.29688143655E+03  0.91600520529E+02 0.  0.
         23    2    4    4    0    0 -0.66412747177E+03 -0.24525438187E+03 -0.27795326180E+03  0.76599887108E+03  0.91001341587E+02 0.  0.
          4    1    3    3  502    0  0.54986442616E+02  0.46379301098E+02  0.56057596345E+01  0.72152428808E+02  0.00000000000E+00 0. -1.
         -3    1    3    3    0  502  0.33226668238E+03  0.24161242213E+03 -0.15688608991E+03  0.43976238579E+03  0.00000000000E+00 0.  1.
         13    1    5    5    0    0  0.23493395307E+03 -0.44442245531E+02  0.41307726254E+01  0.23913623476E+03  0.00000000000E+00 0.  1.
        -13    1    5    5    0    0  0.41940393706E+02  0.17049041730E+01 -0.39656084110E+02  0.57745201787E+02  0.00000000000E+00 0. -1.
          2    1    6    6  503    0 -0.12520056547E+03 -0.96601627434E+01 -0.52184942191E+02  0.13598444223E+03  0.00000000000E+00 0. -1.
         -2    1    6    6    0  503 -0.53892690630E+03 -0.23559421913E+03 -0.22576831960E+03  0.63001442885E+03  0.00000000000E+00 0.  1.
<mgrwt>
<rscale>  0 0.15046524E+04</rscale>
<asrwt>0</asrwt>
<pdfrwt beam="1">  1        2 0.15688877E+00 0.15046524E+04</pdfrwt>
<pdfrwt beam="2">  1       -1 0.85387401E-01 0.15046524E+04</pdfrwt>
<totfact> 0.36551908E+01</totfact>
</mgrwt>
</event>
<event>
12    7  0.1661464E-007  0.2212014E+04  0.7818608E-02  0.8513444E-01
         -1   -1    0    0    0  501 -0.00000000000E+00  0.00000000000E+00  0.71499460696E+03  0.71499460696E+03  0.00000000000E+00 0.  1.
          2   -1    0    0  501    0  0.00000000000E+00 -0.00000000000E+00 -0.17108538330E+04  0.17108538330E+04  0.00000000000E+00 0. -1.
         24    2    1    2    0    0  0.38574314837E+03  0.24341521813E+03  0.46198787076E+03  0.65452064942E+03  0.83160945530E+02 0.  0.
        254    2    1    2    0    0 -0.38574314837E+03 -0.24341521813E+03 -0.14578470968E+04  0.17713277905E+04  0.89679163629E+03 0.  0.
         23    2    4    4    0    0 -0.41865160910E+03 -0.38756897960E+03 -0.14857091892E+04  0.15936226599E+04  0.82598447304E+02 0.  0.
         23    2    4    4    0    0  0.32908460736E+02  0.14415376146E+03  0.27862092411E+02  0.17770513063E+03  0.94549159313E+02 0.  0.
          4    1    3    3  502    0  0.16137789763E+03  0.10912567089E+03  0.14087088973E+03  0.24040766515E+03  0.00000000000E+00 0. -1.
         -3    1    3    3    0  502  0.22436525074E+03  0.13428954724E+03  0.32111698103E+03  0.41411298427E+03  0.00000000000E+00 0.  1.
         13    1    5    5    0    0 -0.35387148420E+03 -0.33612132334E+03 -0.13393337680E+04  0.14254885175E+04  0.00000000000E+00 0. -1.
        -13    1    5    5    0    0 -0.64780124898E+02 -0.51447656252E+02 -0.14637542120E+03  0.16813414242E+03  0.00000000000E+00 0.  1.
          3    1    6    6  503    0  0.18526258698E+02  0.14542208429E+03  0.46804353707E+02  0.15388779154E+03  0.00000000000E+00 0. -1.
         -3    1    6    6    0  503  0.14382202038E+02 -0.12683228236E+01 -0.18942261296E+02  0.23817339089E+02  0.00000000000E+00 0.  1.
<mgrwt>
<rscale>  0 0.22120138E+04</rscale>
<asrwt>0</asrwt>
<pdfrwt beam="1">  1        2 0.26320828E+00 0.22120138E+04</pdfrwt>
<pdfrwt beam="2">  1       -1 0.10999917E+00 0.22120138E+04</pdfrwt>
<totfact> 0.76749002E+00</totfact>
</mgrwt>
</event>
<event>
12    7  0.1661464E-007  0.1831778E+04  0.7818608E-02  0.8689581E-01
         -1   -1    0    0    0  501 -0.00000000000E+00  0.00000000000E+00  0.61593268575E+03  0.61593268575E+03  0.00000000000E+00 0.  1.
          2   -1    0    0  501    0  0.00000000000E+00 -0.00000000000E+00 -0.13619221268E+04  0.13619221268E+04  0.00000000000E+00 0. -1.
         24    2    1    2    0    0 -0.47211972147E+03 -0.29916526021E+03 -0.72295042150E+03  0.91701101415E+03  0.76517996607E+02 0.  0.
        254    2    1    2    0    0  0.47211972147E+03  0.29916526021E+03 -0.23039019504E+02  0.10608437984E+04  0.90136667554E+03 0.  0.
         23    2    4    4    0    0  0.54350156452E+03  0.17263235640E+03  0.33270684428E+03  0.66605526811E+03  0.87976672102E+02 0.  0.
         23    2    4    4    0    0 -0.71381843045E+02  0.12653290381E+03 -0.35574586378E+03  0.39478853025E+03  0.90536847480E+02 0.  0.
          4    1    3    3  502    0 -0.39501120781E+03 -0.22863979076E+03 -0.62397624756E+03  0.77308237965E+03  0.00000000000E+00 0. -1.
         -3    1    3    3    0  502 -0.77108513669E+02 -0.70525469448E+02 -0.98974173941E+02  0.14392863450E+03  0.00000000000E+00 0.  1.
         13    1    5    5    0    0  0.46210813408E+03  0.12885574733E+03  0.30901771044E+03  0.57064847022E+03  0.00000000000E+00 0.  1.
        -13    1    5    5    0    0  0.81393430443E+02  0.43776609075E+02  0.23689133838E+02  0.95406797889E+02  0.00000000000E+00 0. -1.
          4    1    6    6  503    0 -0.32318039321E+02 -0.60807782716E+01 -0.64731744896E+02  0.72605993742E+02  0.00000000000E+00 0. -1.
         -4    1    6    6    0  503 -0.39063803724E+02  0.13261368208E+03 -0.29101411889E+03  0.32218253650E+03  0.00000000000E+00 0.  1.
<mgrwt>
<rscale>  0 0.18317777E+04</rscale>
<asrwt>0</asrwt>
<pdfrwt beam="1">  1        2 0.20952648E+00 0.18317777E+04</pdfrwt>
<pdfrwt beam="2">  1       -1 0.94758874E-01 0.18317777E+04</pdfrwt>
<totfact> 0.17591398E+01</totfact>
</mgrwt>
</event>
<event>
12    7  0.1661464E-007  0.2663555E+04  0.7818608E-02  0.8346928E-01
         -1   -1    0    0    0  501 -0.00000000000E+00  0.00000000000E+00  0.11518471492E+04  0.11518471492E+04  0.00000000000E+00 0.  1.
          2   -1    0    0  501    0  0.00000000000E+00 -0.00000000000E+00 -0.15398143041E+04  0.15398143041E+04  0.00000000000E+00 0. -1.
         24    2    1    2    0    0  0.79235089725E+03 -0.85808614027E+03 -0.38536528468E+02  0.11713525054E+04  0.80311015898E+02 0.  0.
        254    2    1    2    0    0 -0.79235089725E+03  0.85808614027E+03 -0.34943062643E+03  0.15203089479E+04  0.90835332663E+03 0.  0.
         23    2    4    4    0    0 -0.78279060971E+02 -0.17206692702E+03  0.14195982684E+02  0.21205944637E+03  0.95042327996E+02 0.  0.
         23    2    4    4    0    0 -0.71407183628E+03  0.10301530673E+04 -0.36362660911E+03  0.13082495016E+04  0.90435159516E+02 0.  0.
          4    1    3    3  502    0  0.12653090003E+03 -0.16336668772E+03 -0.31771870312E+02  0.20906504983E+03  0.00000000000E+00 0. -1.
         -3    1    3    3    0  502  0.66581999722E+03 -0.69471945255E+03 -0.67646581553E+01  0.96228745552E+03  0.00000000000E+00 0.  1.
         13    1    5    5    0    0 -0.22988738719E+02 -0.10041841667E+02 -0.26079617780E+02  0.36186560427E+02  0.00000000000E+00 0.  1.
        -13    1    5    5    0    0 -0.55290322252E+02 -0.16202508535E+03  0.40275600463E+02  0.17587288595E+03  0.00000000000E+00 0. -1.
          1    1    6    6  503    0 -0.43825137081E+03  0.55543609486E+03 -0.21501412443E+03  0.73946236767E+03  0.00000000000E+00 0. -1.
         -1    1    6    6    0  503 -0.27582046547E+03  0.47471697244E+03 -0.14861248468E+03  0.56878713390E+03  0.00000000000E+00 0.  1.
<mgrwt>
<rscale>  0 0.26635546E+04</rscale>
<asrwt>0</asrwt>
<pdfrwt beam="1">  1        2 0.23689451E+00 0.26635546E+04</pdfrwt>
<pdfrwt beam="2">  1       -1 0.17720725E+00 0.26635546E+04</pdfrwt>
<totfact> 0.26332001E+00</totfact>
</mgrwt>
</event>
<event>
12    7  0.1661464E-007  0.1056348E+04  0.7818608E-02  0.9248814E-01
          2   -1    0    0  501    0  0.00000000000E+00  0.00000000000E+00  0.21985193118E+04  0.21985193118E+04  0.00000000000E+00 0. -1.
         -1   -1    0    0    0  501 -0.00000000000E+00 -0.00000000000E+00 -0.12688899634E+03  0.12688899634E+03  0.00000000000E+00 0.  1.
         24    2    1    2    0    0 -0.76526493586E+02  0.21008417730E+02  0.44211525116E+03  0.45617714175E+03  0.79586628963E+02 0.  0.
        254    2    1    2    0    0  0.76526493586E+02 -0.21008417730E+02  0.16295150643E+04  0.18692311664E+04  0.91236404511E+03 0.  0.
         23    2    4    4    0    0  0.45195600943E+03  0.13077334015E+03  0.66860855621E+03  0.82254893700E+03  0.90462430704E+02 0.  0.
         23    2    4    4    0    0 -0.37542951585E+03 -0.15178175788E+03  0.96090650812E+03  0.10466822294E+04  0.90649592615E+02 0.  0.
          4    1    3    3  502    0 -0.63915781476E+02  0.52271132148E+01  0.42467373517E+03  0.42948845291E+03  0.00000000000E+00 0. -1.
         -3    1    3    3    0  502 -0.12610712110E+02  0.15781304515E+02  0.17441515983E+02  0.26688688838E+02  0.00000000000E+00 0.  1.
         13    1    5    5    0    0  0.41066993210E+02 -0.14027799705E+02  0.56923735512E+02  0.71579248113E+02  0.00000000000E+00 0.  1.
        -13    1    5    5    0    0  0.41088901622E+03  0.14480113986E+03  0.61168482070E+03  0.75096968889E+03  0.00000000000E+00 0. -1.
          2    1    6    6  503    0 -0.30888771730E+03 -0.16009065375E+03  0.80755185729E+03  0.87930690975E+03  0.00000000000E+00 0. -1.
         -2    1    6    6    0  503 -0.66541798544E+02  0.83088958670E+01  0.15335465083E+03  0.16737531968E+03  0.00000000000E+00 0.  1.
<mgrwt>
<rscale>  0 0.10563483E+04</rscale>
<asrwt>0</asrwt>
<pdfrwt beam="1">  1        2 0.33823371E+00 0.10563483E+04</pdfrwt>
<pdfrwt beam="2">  1       -1 0.19521386E-01 0.10563483E+04</pdfrwt>
<totfact> 0.12561187E+02</totfact>
</mgrwt>
</event>
<event>
12    7  0.1661464E-007  0.2047432E+04  0.7818608E-02  0.8584760E-01
         -1   -1    0    0    0  501 -0.00000000000E+00  0.00000000000E+00  0.36647844088E+03  0.36647844088E+03  0.00000000000E+00 0.  1.
          2   -1    0    0  501    0  0.00000000000E+00 -0.00000000000E+00 -0.28596336766E+04  0.28596336766E+04  0.00000000000E+00 0. -1.
         24    2    1    2    0    0  0.23484076857E+03  0.29095862479E+03 -0.21580202685E+04  0.21909534677E+04  0.58468030644E+02 0.  0.
        254    2    1    2    0    0 -0.23484076857E+03 -0.29095862479E+03 -0.33513496720E+03  0.10351586497E+04  0.90522421308E+03 0.  0.
         23    2    4    4    0    0 -0.24263267589E+03  0.26864589922E+03  0.56738799364E+01  0.37350470780E+03  0.91827769545E+02 0.  0.
         23    2    4    4    0    0  0.77919073178E+01 -0.55960452401E+03 -0.34080884714E+03  0.66165394193E+03  0.91746016115E+02 0.  0.
          4    1    3    3  502    0  0.63795494418E+02  0.96181243655E+02 -0.52959145369E+03  0.54202195948E+03  0.00000000000E+00 0. -1.
         -3    1    3    3    0  502  0.17104527415E+03  0.19477738114E+03 -0.16284288148E+04  0.16489315082E+04  0.00000000000E+00 0.  1.
         13    1    5    5    0    0 -0.20492852788E+03  0.25410806128E+03  0.27456289972E+02  0.32759801007E+03  0.00000000000E+00 0. -1.
        -13    1    5    5    0    0 -0.37704148009E+02  0.14537837938E+02 -0.21782410036E+02  0.45906697725E+02  0.00000000000E+00 0.  1.
          1    1    6    6  503    0 -0.16143351697E+02 -0.48241252474E+03 -0.26401486960E+03  0.55016934048E+03  0.00000000000E+00 0. -1.
         -1    1    6    6    0  503  0.23935259015E+02 -0.77191999268E+02 -0.76793977537E+02  0.11148460145E+03  0.00000000000E+00 0.  1.
<mgrwt>
<rscale>  0 0.20474317E+04</rscale>
<asrwt>0</asrwt>
<pdfrwt beam="1">  1        2 0.43994363E+00 0.20474317E+04</pdfrwt>
<pdfrwt beam="2">  1       -1 0.56381301E-01 0.20474317E+04</pdfrwt>
<totfact> 0.71433391E+00</totfact>
</mgrwt>
</event>
<event>
12    7  0.1661464E-007  0.3164835E+04  0.7818608E-02  0.8198166E-01
         -1   -1    0    0    0  501 -0.00000000000E+00  0.00000000000E+00  0.15204954511E+04  0.15204954511E+04  0.00000000000E+00 0.  1.
          2   -1    0    0  501    0  0.00000000000E+00 -0.00000000000E+00 -0.16468615831E+04  0.16468615831E+04  0.00000000000E+00 0. -1.
         24    2    1    2    0    0  0.34286050539E+03  0.44883895773E+03 -0.13964940430E+04  0.15085986439E+04  0.81636513508E+02 0.  0.
        254    2    1    2    0    0 -0.34286050539E+03 -0.44883895773E+03  0.12701279110E+04  0.16587583903E+04  0.90512140124E+03 0.  0.
         23    2    4    4    0    0 -0.13178727784E+03 -0.64994986860E+03  0.11483421835E+04  0.13292098899E+04  0.91139686955E+02 0.  0.
         23    2    4    4    0    0 -0.21107322754E+03  0.20111091087E+03  0.12178572748E+03  0.32954850045E+03  0.93663999910E+02 0.  0.
          4    1    3    3  502    0  0.33749654040E+03  0.42454418492E+03 -0.12926386400E+04  0.14018046702E+04  0.00000000000E+00 0. -1.
         -3    1    3    3    0  502  0.53639649895E+01  0.24294772809E+02 -0.10385540294E+03  0.10679397373E+03  0.00000000000E+00 0.  1.
         13    1    5    5    0    0 -0.30865733508E+02 -0.52704762263E+02  0.14300604475E+03  0.15550310063E+03  0.00000000000E+00 0. -1.
        -13    1    5    5    0    0 -0.10092154433E+03 -0.59724510633E+03  0.10053361388E+04  0.11737067892E+04  0.00000000000E+00 0.  1.
          4    1    6    6  503    0 -0.81233378716E+02  0.20966597892E+02  0.39555326074E+02  0.92752810554E+02  0.00000000000E+00 0. -1.
         -4    1    6    6    0  503 -0.12983984883E+03  0.18014431297E+03  0.82230401403E+02  0.23679568990E+03  0.00000000000E+00 0.  1.
<mgrwt>
<rscale>  0 0.31648353E+04</rscale>
<asrwt>0</asrwt>
<pdfrwt beam="1">  1        2 0.25336332E+00 0.31648353E+04</pdfrwt>
<pdfrwt beam="2">  1       -1 0.23392238E+00 0.31648353E+04</pdfrwt>
<totfact> 0.89732624E-01</totfact>
</mgrwt>
</event>
<event>
12    7  0.1661464E-007  0.1198065E+04  0.7818608E-02  0.9114552E-01
          2   -1    0    0  501    0  0.00000000000E+00  0.00000000000E+00  0.14316489819E+04  0.14316489819E+04  0.00000000000E+00 0. -1.
         -1   -1    0    0    0  501 -0.00000000000E+00 -0.00000000000E+00 -0.25064800296E+03  0.25064800296E+03  0.00000000000E+00 0.  1.
         24    2    1    2    0    0  0.14316124665E+03  0.40676941373E+02  0.52903456850E+03  0.55523323441E+03  0.79098759897E+02 0.  0.
        254    2    1    2    0    0 -0.14316124665E+03 -0.40676941373E+02  0.65196641045E+03  0.11270637505E+04  0.90722805355E+03 0.  0.
         23    2    4    4    0    0 -0.45293879250E+03 -0.23362987347E+03  0.50581777788E+03  0.72372948849E+03  0.90533311895E+02 0.  0.
         23    2    4    4    0    0  0.30977754585E+03  0.19295293210E+03  0.14614863257E+03  0.40333426197E+03  0.90145117217E+02 0.  0.
          2    1    3    3  502    0  0.74518154069E+02  0.35812619410E+02  0.40533229786E+03  0.41367834206E+03  0.00000000000E+00 0. -1.
         -1    1    3    3    0  502  0.68643092580E+02  0.48643219633E+01  0.12370227064E+03  0.14155489235E+03  0.00000000000E+00 0.  1.
         13    1    5    5    0    0 -0.99310129848E+02 -0.93700746403E+02  0.15148173015E+03  0.20393392640E+03  0.00000000000E+00 0. -1.
        -13    1    5    5    0    0 -0.35362866265E+03 -0.13992912707E+03  0.35433604774E+03  0.51979556210E+03  0.00000000000E+00 0.  1.
          4    1    6    6  503    0  0.19456440145E+03  0.10740545083E+03  0.42381099039E+02  0.22624631431E+03  0.00000000000E+00 0. -1.
         -4    1    6    6    0  503  0.11521314440E+03  0.85547481265E+02  0.10376753353E+03  0.17708794766E+03  0.00000000000E+00 0.  1.
<mgrwt>
<rscale>  0 0.11980650E+04</rscale>
<asrwt>0</asrwt>
<pdfrwt beam="1">  1        2 0.22025368E+00 0.11980650E+04</pdfrwt>
<pdfrwt beam="2">  1       -1 0.38561232E-01 0.11980650E+04</pdfrwt>
<totfact> 0.10159970E+02</totfact>
</mgrwt>
</event>
<event>
12    7  0.1661464E-007  0.1273552E+04  0.7818608E-02  0.9050806E-01
         -1   -1    0    0    0  501 -0.00000000000E+00  0.00000000000E+00  0.17416962342E+03  0.17416962342E+03  0.00000000000E+00 0.  1.
          2   -1    0    0  501    0  0.00000000000E+00 -0.00000000000E+00 -0.23280967516E+04  0.23280967516E+04  0.00000000000E+00 0. -1.
         24    2    1    2    0    0 -0.92970073429E+02 -0.48132560521E+02  0.26719128580E+02  0.13469557143E+03  0.80428895277E+02 0.  0.
        254    2    1    2    0    0  0.92970073429E+02  0.48132560521E+02 -0.21806462567E+04  0.23675708036E+04  0.91608582293E+03 0.  0.
         23    2    4    4    0    0 -0.37690635112E+02  0.45666163167E+03 -0.13298905418E+04  0.14096271751E+04  0.92084145461E+02 0.  0.
         23    2    4    4    0    0  0.13066070854E+03 -0.40852907115E+03 -0.85075571500E+03  0.95794362851E+03  0.99511235948E+02 0.  0.
          2    1    3    3  502    0 -0.10132775282E+02 -0.37098911808E+02 -0.15015230154E+02  0.41285100567E+02  0.00000000000E+00 0. -1.
         -1    1    3    3    0  502 -0.82837298147E+02 -0.11033648713E+02  0.41734358734E+02  0.93410470865E+02  0.00000000000E+00 0.  1.
         13    1    5    5    0    0 -0.21767257365E+02  0.34334123580E+03 -0.11046792483E+04  0.11570104836E+04  0.00000000000E+00 0.  1.
        -13    1    5    5    0    0 -0.15923377747E+02  0.11332039587E+03 -0.22521129349E+03  0.25261669144E+03  0.00000000000E+00 0. -1.
          3    1    6    6  503    0  0.53453282548E+01 -0.16835243553E+03 -0.35745291502E+03  0.39515022654E+03  0.00000000000E+00 0. -1.
         -3    1    6    6    0  503  0.12531538029E+03 -0.24017663562E+03 -0.49330279998E+03  0.56279340197E+03  0.00000000000E+00 0.  1.
<mgrwt>
<rscale>  0 0.12735521E+04</rscale>
<asrwt>0</asrwt>
<pdfrwt beam="1">  1        2 0.35816871E+00 0.12735521E+04</pdfrwt>
<pdfrwt beam="2">  1       -1 0.26795328E-01 0.12735521E+04</pdfrwt>
<totfact> 0.60945955E+01</totfact>
</mgrwt>
</event>
<event>
12    7  0.1661464E-007  0.2446766E+04  0.7818608E-02  0.8422200E-01
          2   -1    0    0  501    0  0.00000000000E+00  0.00000000000E+00  0.15731857595E+04  0.15731857595E+04  0.00000000000E+00 0. -1.
         -1   -1    0    0    0  501 -0.00000000000E+00 -0.00000000000E+00 -0.95135989223E+03  0.95135989223E+03  0.00000000000E+00 0.  1.
         24    2    1    2    0    0 -0.32549619189E+03 -0.80292368502E+03 -0.35820582620E+03  0.94085030492E+03  0.79080133144E+02 0.  0.
        254    2    1    2    0    0  0.32549619189E+03  0.80292368502E+03  0.98003169350E+03  0.15836953468E+04  0.89274554965E+03 0.  0.
         23    2    4    4    0    0  0.70844105163E+02  0.30065906010E+03  0.96003359706E+03  0.10127897072E+04  0.93079137326E+02 0.  0.
         23    2    4    4    0    0  0.25465208672E+03  0.50226462492E+03  0.19998096442E+02  0.57090563967E+03  0.91738142698E+02 0.  0.
          2    1    3    3  502    0 -0.92014790950E+02 -0.32117937239E+03 -0.12141704156E+03  0.35547856332E+03  0.00000000000E+00 0. -1.
         -1    1    3    3    0  502 -0.23348140094E+03 -0.48174431263E+03 -0.23678878464E+03  0.58537174160E+03  0.00000000000E+00 0.  1.
         13    1    5    5    0    0  0.77002025562E+02  0.23827600535E+03  0.85038339479E+03  0.88648558071E+03  0.00000000000E+00 0. -1.
        -13    1    5    5    0    0 -0.61579203987E+01  0.62383054745E+02  0.10965020227E+03  0.12630412646E+03  0.00000000000E+00 0.  1.
          1    1    6    6  503    0  0.18123640389E+03  0.42119328408E+03 -0.56509637508E+01  0.45856553517E+03  0.00000000000E+00 0. -1.
         -1    1    6    6    0  503  0.73415682830E+02  0.81071340838E+02  0.25649060193E+02  0.11234010450E+03  0.00000000000E+00 0.  1.
<mgrwt>
<rscale>  0 0.24467659E+04</rscale>
<asrwt>0</asrwt>
<pdfrwt beam="1">  1        2 0.24202858E+00 0.24467659E+04</pdfrwt>
<pdfrwt beam="2">  1       -1 0.14636306E+00 0.24467659E+04</pdfrwt>
<totfact> 0.43893057E+00</totfact>
</mgrwt>
</event>
<event>
12    7  0.1661464E-007  0.1206273E+04  0.7818608E-02  0.9107384E-01
         -1   -1    0    0    0  501 -0.00000000000E+00  0.00000000000E+00  0.17222221989E+04  0.17222221989E+04  0.00000000000E+00 0.  1.
          2   -1    0    0  501    0  0.00000000000E+00 -0.00000000000E+00 -0.21122331027E+03  0.21122331027E+03  0.00000000000E+00 0. -1.
         24    2    1    2    0    0 -0.16973911635E+03 -0.80834605903E+02  0.51234208791E+02  0.21087864701E+03  0.80617978659E+02 0.  0.
        254    2    1    2    0    0  0.16973911635E+03  0.80834605903E+02  0.14597646798E+04  0.17225668621E+04  0.89497378339E+03 0.  0.
         23    2    4    4    0    0 -0.25821652386E+03  0.39735168536E+02  0.11539266633E+04  0.11870502803E+04  0.96368910951E+02 0.  0.
         23    2    4    4    0    0  0.42795564021E+03  0.41099437367E+02  0.30583801655E+03  0.53551658181E+03  0.91683822419E+02 0.  0.
          4    1    3    3  502    0 -0.13928601504E+03 -0.95293469887E+02  0.31080910227E+02  0.17160262926E+03  0.00000000000E+00 0. -1.
         -3    1    3    3    0  502 -0.30453101314E+02  0.14458863984E+02  0.20153298565E+02  0.39276017751E+02  0.00000000000E+00 0.  1.
         13    1    5    5    0    0 -0.15727392700E+03 -0.97987823950E+01  0.52452554742E+03  0.54768435632E+03  0.00000000000E+00 0.  1.
        -13    1    5    5    0    0 -0.10094259685E+03  0.49533950931E+02  0.62940111584E+03  0.63936592400E+03  0.00000000000E+00 0. -1.
          3    1    6    6  503    0  0.43843850809E+01  0.41036884577E+01  0.25581569899E+02  0.26276982513E+02  0.00000000000E+00 0. -1.
         -3    1    6    6    0  503  0.42357125513E+03  0.36995748910E+02  0.28025644665E+03  0.50923959930E+03  0.00000000000E+00 0.  1.
<mgrwt>
<rscale>  0 0.12062727E+04</rscale>
<asrwt>0</asrwt>
<pdfrwt beam="1">  1        2 0.32495895E-01 0.12062727E+04</pdfrwt>
<pdfrwt beam="2">  1       -1 0.26495725E+00 0.12062727E+04</pdfrwt>
<totfact> 0.10290718E+01</totfact>
</mgrwt>
</event>
<event>
12    7  0.1661464E-007  0.2223173E+04  0.7818608E-02  0.8508844E-01
          2   -1    0    0  501    0  0.00000000000E+00  0.00000000000E+00  0.90722662567E+03  0.90722662567E+03  0.00000000000E+00 0. -1.
         -1   -1    0    0    0  501 -0.00000000000E+00 -0.00000000000E+00 -0.13619804168E+04  0.13619804168E+04  0.00000000000E+00 0.  1.
         24    2    1    2    0    0  0.66690626223E+02 -0.51796916263E+02  0.75374262015E+03  0.76268451958E+03  0.80182160217E+02 0.  0.
        254    2    1    2    0    0 -0.66690626223E+02  0.51796916263E+02 -0.12084964113E+04  0.15065225229E+04  0.89555344662E+03 0.  0.
         23    2    4    4    0    0  0.21546104229E+03  0.38648573749E+03 -0.57530272208E+03  0.73130124048E+03  0.89630331181E+02 0.  0.
         23    2    4    4    0    0 -0.28215166851E+03 -0.33468882123E+03 -0.63319368921E+03  0.77522128243E+03  0.91693061722E+02 0.  0.
          4    1    3    3  502    0  0.88637763428E+01 -0.45454596867E+02  0.50989771249E+03  0.51199644932E+03  0.00000000000E+00 0. -1.
         -3    1    3    3    0  502  0.57826849880E+02 -0.63423193960E+01  0.24384490765E+03  0.25068807026E+03  0.00000000000E+00 0.  1.
         13    1    5    5    0    0 -0.41955141183E+01  0.23443503772E+02 -0.13880219631E+02  0.27565571005E+02  0.00000000000E+00 0. -1.
        -13    1    5    5    0    0  0.21965655641E+03  0.36304223372E+03 -0.56142250245E+03  0.70373566948E+03  0.00000000000E+00 0.  1.
          3    1    6    6  503    0 -0.28745352234E+02 -0.79949434487E+02 -0.88421735807E+02  0.12262385866E+03  0.00000000000E+00 0. -1.
         -3    1    6    6    0  503 -0.25340631628E+03 -0.25473938674E+03 -0.54477195340E+03  0.65259742376E+03  0.00000000000E+00 0.  1.
<mgrwt>
<rscale>  0 0.22231733E+04</rscale>
<asrwt>0</asrwt>
<pdfrwt beam="1">  1        2 0.13957333E+00 0.22231733E+04</pdfrwt>
<pdfrwt beam="2">  1       -1 0.20953545E+00 0.22231733E+04</pdfrwt>
<totfact> 0.39068135E+00</totfact>
</mgrwt>
</event>
<event>
12    7  0.1661464E-007  0.1345752E+04  0.7818608E-02  0.8994050E-01
         -3   -1    0    0    0  501 -0.00000000000E+00  0.00000000000E+00  0.14185627574E+04  0.14185627574E+04  0.00000000000E+00 0.  1.
          4   -1    0    0  501    0  0.00000000000E+00 -0.00000000000E+00 -0.31916952511E+03  0.31916952511E+03  0.00000000000E+00 0. -1.
         24    2    1    2    0    0  0.10620250287E+03  0.16465260463E+03  0.69889861038E+03  0.73046800575E+03  0.82065754150E+02 0.  0.
        254    2    1    2    0    0 -0.10620250287E+03 -0.16465260463E+03  0.40049462194E+03  0.10072642768E+04  0.90321422114E+03 0.  0.
         23    2    4    4    0    0 -0.16265021098E+03  0.21284970000E+03  0.52233351938E+03  0.59443300555E+03  0.93585291003E+02 0.  0.
         23    2    4    4    0    0  0.56447708104E+02 -0.37750230463E+03 -0.12183889744E+03  0.41283127124E+03  0.99451535092E+02 0.  0.
          4    1    3    3  502    0  0.72137984567E+02  0.75075413488E+02  0.23905650622E+03  0.26074550752E+03  0.00000000000E+00 0. -1.
         -3    1    3    3    0  502  0.34064518306E+02  0.89577191140E+02  0.45984210417E+03  0.46972249823E+03  0.00000000000E+00 0.  1.
         13    1    5    5    0    0 -0.17234804477E+02 -0.57506551325E+01  0.60703843544E+02  0.63364541669E+02  0.00000000000E+00 0. -1.
        -13    1    5    5    0    0 -0.14541540650E+03  0.21860035513E+03  0.46162967584E+03  0.53106846388E+03  0.00000000000E+00 0.  1.
          3    1    6    6  503    0  0.51045156712E+02 -0.19819841562E+03 -0.17750569948E+02  0.20543442436E+03  0.00000000000E+00 0. -1.
         -3    1    6    6    0  503  0.54025513917E+01 -0.17930388901E+03 -0.10408832749E+03  0.20739684688E+03  0.00000000000E+00 0.  1.
<mgrwt>
<rscale>  0 0.13457518E+04</rscale>
<asrwt>0</asrwt>
<pdfrwt beam="1">  1        4 0.49103004E-01 0.13457518E+04</pdfrwt>
<pdfrwt beam="2">  1       -3 0.21824042E+00 0.13457518E+04</pdfrwt>
<totfact> 0.10130655E+00</totfact>
</mgrwt>
</event>
<event>
12    7  0.1661464E-007  0.1753247E+04  0.7818608E-02  0.8731565E-01
          2   -1    0    0  501    0  0.00000000000E+00  0.00000000000E+00  0.96180781571E+03  0.96180781571E+03  0.00000000000E+00 0. -1.
         -1   -1    0    0    0  501 -0.00000000000E+00 -0.00000000000E+00 -0.79898370518E+03  0.79898370518E+03  0.00000000000E+00 0.  1.
         24    2    1    2    0    0 -0.26311710039E+03  0.12343792688E+03 -0.50650071313E+03  0.58920568370E+03  0.78440008925E+02 0.  0.
        254    2    1    2    0    0  0.26311710039E+03 -0.12343792688E+03  0.66932482366E+03  0.11715858372E+04  0.91659703470E+03 0.  0.
         23    2    4    4    0    0  0.17586255927E+03 -0.19972075293E+03  0.87463785835E+03  0.91923406086E+03  0.95832439600E+02 0.  0.
         23    2    4    4    0    0  0.87254541116E+02  0.76282826043E+02 -0.20531303469E+03  0.25235177633E+03  0.89975287202E+02 0.  0.
          2    1    3    3  502    0  0.28298090563E+01  0.38794175639E+01 -0.36807304453E-01  0.48019844552E+01  0.00000000000E+00 0. -1.
         -1    1    3    3    0  502 -0.26594690945E+03  0.11955850932E+03 -0.50646390582E+03  0.58440369925E+03  0.00000000000E+00 0.  1.
         13    1    5    5    0    0  0.18544623519E+03 -0.19106561146E+03  0.85675267095E+03  0.89717418220E+03  0.00000000000E+00 0.  1.
        -13    1    5    5    0    0 -0.95836759218E+01 -0.86551414661E+01  0.17885187398E+02  0.22059878654E+02  0.00000000000E+00 0. -1.
          3    1    6    6  503    0  0.27803235965E+02 -0.17135552451E+02 -0.26632277133E+02  0.42141728408E+02  0.00000000000E+00 0. -1.
         -3    1    6    6    0  503  0.59451305151E+02  0.93418378495E+02 -0.17868075756E+03  0.21021004792E+03  0.00000000000E+00 0.  1.
<mgrwt>
<rscale>  0 0.17532470E+04</rscale>
<asrwt>0</asrwt>
<pdfrwt beam="1">  1        2 0.14797043E+00 0.17532470E+04</pdfrwt>
<pdfrwt beam="2">  1       -1 0.12292057E+00 0.17532470E+04</pdfrwt>
<totfact> 0.16825812E+01</totfact>
</mgrwt>
</event>
<event>
12    7  0.1699113E-007  0.2676102E+04  0.7818608E-02  0.8342801E-01
          2   -1    0    0  501    0  0.00000000000E+00  0.00000000000E+00  0.12382516426E+04  0.12382516426E+04  0.00000000000E+00 0. -1.
         -1   -1    0    0    0  501 -0.00000000000E+00 -0.00000000000E+00 -0.14458943622E+04  0.14458943622E+04  0.00000000000E+00 0.  1.
         24    2    1    2    0    0  0.54957943514E+03 -0.79879110491E+03  0.59027561124E+03  0.11385376700E+04  0.87965584056E+02 0.  0.
        254    2    1    2    0    0 -0.54957943514E+03  0.79879110491E+03 -0.79791833083E+03  0.15456083348E+04  0.90118071282E+03 0.  0.
         23    2    4    4    0    0 -0.47700192389E+03  0.69503999409E+03 -0.12739978719E+03  0.85742858196E+03  0.91332571498E+02 0.  0.
         23    2    4    4    0    0 -0.72577511243E+02  0.10375111082E+03 -0.67051854364E+03  0.68817975284E+03  0.89243860999E+02 0.  0.
          4    1    3    3  502    0  0.48829344087E+03 -0.74783728199E+03  0.52938730370E+03  0.10382398577E+04  0.00000000000E+00 0. -1.
         -3    1    3    3    0  502  0.61285994268E+02 -0.50953822913E+02  0.60888307542E+02  0.10029781233E+03  0.00000000000E+00 0.  1.
         13    1    5    5    0    0 -0.35667692474E+03  0.45738130091E+03 -0.63424518957E+02  0.58347129549E+03  0.00000000000E+00 0. -1.
        -13    1    5    5    0    0 -0.12032499916E+03  0.23765869318E+03 -0.63975268236E+02  0.27395728647E+03  0.00000000000E+00 0.  1.
          1    1    6    6  503    0 -0.70809029945E+02  0.10012755728E+03 -0.67256766042E+03  0.68365686151E+03  0.00000000000E+00 0. -1.
         -1    1    6    6    0  503 -0.17684812981E+01  0.36235535448E+01  0.20491167839E+01  0.45228913306E+01  0.00000000000E+00 0.  1.
<mgrwt>
<rscale>  0 0.26761024E+04</rscale>
<asrwt>0</asrwt>
<pdfrwt beam="1">  1        2 0.19050025E+00 0.26761024E+04</pdfrwt>
<pdfrwt beam="2">  1       -1 0.22244529E+00 0.26761024E+04</pdfrwt>
<totfact> 0.19077775E+00</totfact>
</mgrwt>
</event>
<event>
12    7  0.1661464E-007  0.1296445E+04  0.7818608E-02  0.9032389E-01
          2   -1    0    0  501    0  0.00000000000E+00  0.00000000000E+00  0.29868082028E+04  0.29868082028E+04  0.00000000000E+00 0. -1.
         -1   -1    0    0    0  501 -0.00000000000E+00 -0.00000000000E+00 -0.14068279546E+03  0.14068279546E+03  0.00000000000E+00 0.  1.
         24    2    1    2    0    0  0.26515628943E+03  0.55691395634E+02  0.10746026561E+04  0.11111692985E+04  0.80727640970E+02 0.  0.
        254    2    1    2    0    0 -0.26515628943E+03 -0.55691395634E+02  0.17715227512E+04  0.20163216998E+04  0.92404055617E+03 0.  0.
         23    2    4    4    0    0 -0.46314950712E+03  0.46825436794E+01  0.17167737986E+04  0.17804925826E+04  0.91171098686E+02 0.  0.
         23    2    4    4    0    0  0.19799321769E+03 -0.60373939313E+02  0.54748952684E+02  0.23582911714E+03  0.98851392879E+02 0.  0.
          4    1    3    3  502    0  0.23077084389E+03  0.37302527285E+02  0.78853106268E+03  0.82245236807E+03  0.00000000000E+00 0. -1.
         -3    1    3    3    0  502  0.34385445545E+02  0.18388868349E+02  0.28607159345E+03  0.28871693044E+03  0.00000000000E+00 0.  1.
         13    1    5    5    0    0 -0.21361143915E+03 -0.24342660750E+02  0.65406343609E+03  0.68849211360E+03  0.00000000000E+00 0. -1.
        -13    1    5    5    0    0 -0.24953806797E+03  0.29025204429E+02  0.10627103625E+04  0.10920004690E+04  0.00000000000E+00 0.  1.
          3    1    6    6  503    0  0.14624896778E+03 -0.23199965438E+02  0.78785831844E+02  0.16773254386E+03  0.00000000000E+00 0. -1.
         -3    1    6    6    0  503  0.51744249910E+02 -0.37173973875E+02 -0.24036879160E+02  0.68096573278E+02  0.00000000000E+00 0.  1.
<mgrwt>
<rscale>  0 0.12964452E+04</rscale>
<asrwt>0</asrwt>
<pdfrwt beam="1">  1        2 0.45950890E+00 0.12964452E+04</pdfrwt>
<pdfrwt beam="2">  1       -1 0.21643509E-01 0.12964452E+04</pdfrwt>
<totfact> 0.35888943E+01</totfact>
</mgrwt>
</event>
<event>
12    7  0.1661464E-007  0.2696085E+04  0.7818608E-02  0.8336276E-01
         -1   -1    0    0    0  501 -0.00000000000E+00  0.00000000000E+00  0.69034859526E+03  0.69034859526E+03  0.00000000000E+00 0.  1.
          2   -1    0    0  501    0  0.00000000000E+00 -0.00000000000E+00 -0.26323197947E+04  0.26323197947E+04  0.00000000000E+00 0. -1.
         24    2    1    2    0    0 -0.65305996105E+03  0.77373320557E+03 -0.16556550146E+04  0.19422740607E+04  0.78003931970E+02 0.  0.
        254    2    1    2    0    0  0.65305996105E+03 -0.77373320557E+03 -0.28631618482E+03  0.13803943292E+04  0.89351058212E+03 0.  0.
         23    2    4    4    0    0  0.63973940365E+03 -0.22783303368E+03  0.11730762399E+03  0.69508890874E+03  0.90626246715E+02 0.  0.
         23    2    4    4    0    0  0.13320557399E+02 -0.54590017189E+03 -0.40362380881E+03  0.68530542049E+03  0.92449474805E+02 0.  0.
          4    1    3    3  502    0 -0.65316767999E+03  0.77169332860E+03 -0.16559773459E+04  0.19402060668E+04  0.00000000000E+00 0. -1.
         -3    1    3    3    0  502  0.10771894235E+00  0.20398769692E+01  0.32233126006E+00  0.20679939219E+01  0.00000000000E+00 0.  1.
         13    1    5    5    0    0  0.25650425303E+03 -0.13882751597E+03  0.47303467012E+02  0.29547441345E+03  0.00000000000E+00 0.  1.
        -13    1    5    5    0    0  0.38323515063E+03 -0.89005517709E+02  0.70004156980E+02  0.39961449530E+03  0.00000000000E+00 0. -1.
          1    1    6    6  503    0  0.39316517790E+02 -0.40254587465E+03 -0.33034283038E+03  0.52222155773E+03  0.00000000000E+00 0. -1.
         -1    1    6    6    0  503 -0.25995960391E+02 -0.14335429724E+03 -0.73280978427E+02  0.16308386276E+03  0.00000000000E+00 0.  1.
<mgrwt>
<rscale>  0 0.26960848E+04</rscale>
<asrwt>0</asrwt>
<pdfrwt beam="1">  1        2 0.40497229E+00 0.26960848E+04</pdfrwt>
<pdfrwt beam="2">  1       -1 0.10620747E+00 0.26960848E+04</pdfrwt>
<totfact> 0.24081953E+00</totfact>
</mgrwt>
</event>
<event>
12    7  0.1661464E-007  0.2050356E+04  0.7818608E-02  0.8583433E-01
         -1   -1    0    0    0  501 -0.00000000000E+00  0.00000000000E+00  0.36416910672E+03  0.36416910672E+03  0.00000000000E+00 0.  1.
          2   -1    0    0  501    0  0.00000000000E+00 -0.00000000000E+00 -0.28859935297E+04  0.28859935297E+04  0.00000000000E+00 0. -1.
         24    2    1    2    0    0 -0.61715677506E+03 -0.55474878051E+03 -0.11781580269E+04  0.14433785813E+04  0.81588590447E+02 0.  0.
        254    2    1    2    0    0  0.61715677506E+03  0.55474878051E+03 -0.13436663961E+04  0.18067840552E+04  0.87772463989E+03 0.  0.
         23    2    4    4    0    0  0.31074351804E+03 -0.14441819213E+03 -0.14673757108E+03  0.38417689576E+03  0.92961412681E+02 0.  0.
         23    2    4    4    0    0  0.30641325703E+03  0.69916697264E+03 -0.11969288250E+04  0.14226071594E+04  0.91918322987E+02 0.  0.
          2    1    3    3  502    0 -0.35911106732E+03 -0.31298891133E+03 -0.60670823425E+03  0.77137390337E+03  0.00000000000E+00 0. -1.
         -1    1    3    3    0  502 -0.25804570774E+03 -0.24175986918E+03 -0.57144979264E+03  0.67200467791E+03  0.00000000000E+00 0.  1.
         13    1    5    5    0    0  0.73973729266E+02  0.44934461295E+01 -0.17982600807E+02  0.76260590159E+02  0.00000000000E+00 0.  1.
        -13    1    5    5    0    0  0.23676978877E+03 -0.14891163826E+03 -0.12875497027E+03  0.30791630560E+03  0.00000000000E+00 0. -1.
          2    1    6    6  503    0  0.23979212617E+03  0.53764957394E+03 -0.84709706356E+03  0.10315719864E+04  0.00000000000E+00 0. -1.
         -2    1    6    6    0  503  0.66621130854E+02  0.16151739870E+03 -0.34983176147E+03  0.39103517296E+03  0.00000000000E+00 0.  1.
<mgrwt>
<rscale>  0 0.20503558E+04</rscale>
<asrwt>0</asrwt>
<pdfrwt beam="1">  1        2 0.44399903E+00 0.20503558E+04</pdfrwt>
<pdfrwt beam="2">  1       -1 0.56026014E-01 0.20503558E+04</pdfrwt>
<totfact> 0.69667886E+00</totfact>
</mgrwt>
</event>
<event>
12    7  0.1661464E-007  0.1620926E+04  0.7818608E-02  0.8807794E-01
         -1   -1    0    0    0  501 -0.00000000000E+00  0.00000000000E+00  0.59917124866E+03  0.59917124866E+03  0.00000000000E+00 0.  1.
          2   -1    0    0  501    0  0.00000000000E+00 -0.00000000000E+00 -0.10962652773E+04  0.10962652773E+04  0.00000000000E+00 0. -1.
         24    2    1    2    0    0 -0.46991151441E+03  0.20951673212E+03 -0.40699424545E+03  0.66154410014E+03  0.85335738061E+02 0.  0.
        254    2    1    2    0    0  0.46991151441E+03 -0.20951673212E+03 -0.90099783183E+02  0.10338924258E+04  0.89224519320E+03 0.  0.
         23    2    4    4    0    0 -0.23448727798E+03 -0.53431923531E+02  0.11081072609E+03  0.27967968873E+03  0.90013650524E+02 0.  0.
         23    2    4    4    0    0  0.70439879240E+03 -0.15608480859E+03 -0.20091050927E+03  0.75421273708E+03  0.89060057426E+02 0.  0.
          2    1    3    3  502    0 -0.46079662554E+03  0.20964468786E+03 -0.41051483986E+03  0.65177209130E+03  0.00000000000E+00 0. -1.
         -1    1    3    3    0  502 -0.91148888698E+01 -0.12795573940E+00  0.35205944083E+01  0.97720088399E+01  0.00000000000E+00 0.  1.
         13    1    5    5    0    0 -0.11849970193E+03  0.18089936125E+02  0.61818559684E+02  0.13487386503E+03  0.00000000000E+00 0. -1.
        -13    1    5    5    0    0 -0.11598757606E+03 -0.71521859655E+02  0.48992166407E+02  0.14480582370E+03  0.00000000000E+00 0.  1.
          2    1    6    6  503    0  0.46979443260E+03 -0.14453012625E+03 -0.12219439225E+03  0.50648517826E+03  0.00000000000E+00 0. -1.
         -2    1    6    6    0  503  0.23460435979E+03 -0.11554682339E+02 -0.78716117024E+02  0.24772755882E+03  0.00000000000E+00 0.  1.
<mgrwt>
<rscale>  0 0.16209264E+04</rscale>
<asrwt>0</asrwt>
<pdfrwt beam="1">  1        2 0.16865619E+00 0.16209264E+04</pdfrwt>
<pdfrwt beam="2">  1       -1 0.92180194E-01 0.16209264E+04</pdfrwt>
<totfact> 0.27401490E+01</totfact>
</mgrwt>
</event>
<event>
12    7  0.1661464E-007  0.1353269E+04  0.7818608E-02  0.8988358E-01
         -1   -1    0    0    0  501 -0.00000000000E+00  0.00000000000E+00  0.31270133341E+03  0.31270133341E+03  0.00000000000E+00 0.  1.
          2   -1    0    0  501    0  0.00000000000E+00 -0.00000000000E+00 -0.14641252850E+04  0.14641252850E+04  0.00000000000E+00 0. -1.
         24    2    1    2    0    0 -0.89615245973E+02  0.75944609872E+02  0.13559772493E+03  0.19566731232E+03  0.78105556938E+02 0.  0.
        254    2    1    2    0    0  0.89615245973E+02 -0.75944609872E+02 -0.12870216765E+04  0.15811593061E+04  0.91095635425E+03 0.  0.
         23    2    4    4    0    0  0.17165288884E+03  0.14400363556E+03 -0.13057220598E+04  0.13280618702E+04  0.92932622737E+02 0.  0.
         23    2    4    4    0    0 -0.82037642864E+02 -0.21994824543E+03  0.18700383298E+02  0.25309743586E+03  0.92742666502E+02 0.  0.
          2    1    3    3  502    0 -0.27835980269E+02  0.44124318302E+02  0.11479095969E+02  0.53418787963E+02  0.00000000000E+00 0. -1.
         -3    1    3    3    0  502 -0.61779265703E+02  0.31820291570E+02  0.12411862896E+03  0.14224852436E+03  0.00000000000E+00 0.  1.
         13    1    5    5    0    0  0.92846768999E+02  0.97880986439E+02 -0.99801729240E+03  0.10070946956E+04  0.00000000000E+00 0.  1.
        -13    1    5    5    0    0  0.78806119838E+02  0.46122649122E+02 -0.30770476743E+03  0.32096717462E+03  0.00000000000E+00 0. -1.
          1    1    6    6  503    0 -0.78079839216E+02 -0.83980175108E+02 -0.60898569052E+01  0.11483125646E+03  0.00000000000E+00 0. -1.
         -1    1    6    6    0  503 -0.39578036475E+01 -0.13596807032E+03  0.24790240203E+02  0.13826617940E+03  0.00000000000E+00 0.  1.
<mgrwt>
<rscale>  0 0.13532685E+04</rscale>
<asrwt>0</asrwt>
<pdfrwt beam="1">  1        2 0.22525004E+00 0.13532685E+04</pdfrwt>
<pdfrwt beam="2">  1       -1 0.48107899E-01 0.13532685E+04</pdfrwt>
<totfact> 0.63921915E+01</totfact>
</mgrwt>
</event>
<event>
12    7  0.1661464E-007  0.3742661E+04  0.7818608E-02  0.8058573E-01
         -1   -1    0    0    0  501 -0.00000000000E+00  0.00000000000E+00  0.10810895678E+04  0.10810895678E+04  0.00000000000E+00 0.  1.
          2   -1    0    0  501    0  0.00000000000E+00 -0.00000000000E+00 -0.32392113511E+04  0.32392113511E+04  0.00000000000E+00 0. -1.
         24    2    1    2    0    0 -0.71416244533E+03  0.43868421822E+03 -0.28087102295E+04  0.29322036340E+04  0.80580122912E+02 0.  0.
        254    2    1    2    0    0  0.71416244533E+03 -0.43868421822E+03  0.65058844629E+03  0.13880972849E+04  0.89502899630E+03 0.  0.
         23    2    4    4    0    0  0.17411282732E+03  0.15649632325E+03  0.50829421933E+03  0.56683682492E+03  0.90191999976E+02 0.  0.
         23    2    4    4    0    0  0.54004961801E+03 -0.59518054147E+03  0.14229422696E+03  0.82126045996E+03  0.91255844796E+02 0.  0.
          4    1    3    3  502    0 -0.64100690246E+03  0.37353369307E+03 -0.24083589729E+04  0.25200417082E+04  0.00000000000E+00 0. -1.
         -3    1    3    3    0  502 -0.73155542863E+02  0.65150525149E+02 -0.40035125664E+03  0.41216192579E+03  0.00000000000E+00 0.  1.
         13    1    5    5    0    0  0.14527202630E+03  0.15011524421E+03  0.48846661519E+03  0.53126093619E+03  0.00000000000E+00 0. -1.
        -13    1    5    5    0    0  0.28840801019E+02  0.63810790389E+01  0.19827604138E+02  0.35575888731E+02  0.00000000000E+00 0.  1.
          1    1    6    6  503    0  0.16947155851E+03 -0.25244764289E+03  0.55619596593E+02  0.30910186196E+03  0.00000000000E+00 0.  1.
         -1    1    6    6    0  503  0.37057805950E+03 -0.34273289858E+03  0.86674630370E+02  0.51215859800E+03  0.00000000000E+00 0. -1.
<mgrwt>
<rscale>  0 0.37426609E+04</rscale>
<asrwt>0</asrwt>
<pdfrwt beam="1">  1        2 0.49834022E+00 0.37426609E+04</pdfrwt>
<pdfrwt beam="2">  1       -1 0.16632147E+00 0.37426609E+04</pdfrwt>
<totfact> 0.29249269E-01</totfact>
</mgrwt>
</event>
<event>
12    7  0.1661464E-007  0.2227472E+04  0.7818608E-02  0.8507080E-01
          4   -1    0    0  501    0  0.00000000000E+00  0.00000000000E+00  0.77019691763E+03  0.77019691763E+03  0.00000000000E+00 0. -1.
         -1   -1    0    0    0  501 -0.00000000000E+00 -0.00000000000E+00 -0.16105073692E+04  0.16105073692E+04  0.00000000000E+00 0.  1.
         24    2    1    2    0    0 -0.21486508669E+03  0.50133576596E+03 -0.11488282474E+04  0.12749094936E+04  0.89907280463E+02 0.  0.
        254    2    1    2    0    0  0.21486508669E+03 -0.50133576596E+03  0.30851779590E+03  0.11057947932E+04  0.91109513144E+03 0.  0.
         23    2    4    4    0    0 -0.18707651794E+02 -0.49945655552E+03  0.55598868935E+03  0.75326639053E+03  0.92086944403E+02 0.  0.
         23    2    4    4    0    0  0.23357273848E+03 -0.18792104398E+01 -0.24747089345E+03  0.35252840265E+03  0.92058003340E+02 0.  0.
          4    1    3    3  502    0 -0.19916139524E+02  0.45179830837E+02 -0.17749734055E+03  0.18423673800E+03  0.00000000000E+00 0. -1.
         -3    1    3    3    0  502 -0.19494894717E+03  0.45615593512E+03 -0.97133090690E+03  0.10906727556E+04  0.00000000000E+00 0.  1.
         13    1    5    5    0    0 -0.35505257005E+02 -0.46043350457E+03  0.47915548178E+03  0.66546946671E+03  0.00000000000E+00 0.  1.
        -13    1    5    5    0    0  0.16797605211E+02 -0.39023050948E+02  0.76833207575E+02  0.87796923821E+02  0.00000000000E+00 0. -1.
          4    1    6    6  503    0  0.13171733274E+02  0.23876939262E+02 -0.14877522866E+02  0.31063539280E+02  0.00000000000E+00 0. -1.
         -4    1    6    6    0  503  0.22040100521E+03 -0.25756149702E+02 -0.23259337058E+03  0.32146486337E+03  0.00000000000E+00 0.  1.
<mgrwt>
<rscale>  0 0.22274719E+04</rscale>
<asrwt>0</asrwt>
<pdfrwt beam="1">  1        4 0.11849183E+00 0.22274719E+04</pdfrwt>
<pdfrwt beam="2">  1       -1 0.24777037E+00 0.22274719E+04</pdfrwt>
<totfact> 0.14959058E-01</totfact>
</mgrwt>
</event>
<event>
12    7  0.1661464E-007  0.1697712E+04  0.7818608E-02  0.8762670E-01
          2   -1    0    0  501    0  0.00000000000E+00  0.00000000000E+00  0.13113476298E+04  0.13113476298E+04  0.00000000000E+00 0. -1.
         -1   -1    0    0    0  501 -0.00000000000E+00 -0.00000000000E+00 -0.54947812718E+03  0.54947812718E+03  0.00000000000E+00 0.  1.
         24    2    1    2    0    0 -0.38299419619E+03 -0.26626325300E+03  0.71529551498E+03  0.85765636174E+03  0.79662330281E+02 0.  0.
        254    2    1    2    0    0  0.38299419619E+03  0.26626325300E+03  0.46573987632E+02  0.10031693952E+04  0.88690418029E+03 0.  0.
         23    2    4    4    0    0 -0.32763714048E+01  0.50542603847E+03  0.13366146988E+03  0.53055086272E+03  0.90291829227E+02 0.  0.
         23    2    4    4    0    0  0.38627056760E+03 -0.23916278547E+03 -0.87087482253E+02  0.47261853252E+03  0.96851733961E+02 0.  0.
          2    1    3    3  502    0 -0.30575034762E+03 -0.19594103749E+03  0.60593488566E+03  0.70642285559E+03  0.00000000000E+00 0. -1.
         -1    1    3    3    0  502 -0.77243848575E+02 -0.70322215509E+02  0.10936062932E+03  0.15123350615E+03  0.00000000000E+00 0.  1.
         13    1    5    5    0    0  0.70012736161E+01  0.12210349387E+03  0.72686294837E+02  0.14227290151E+03  0.00000000000E+00 0.  1.
        -13    1    5    5    0    0 -0.10277645021E+02  0.38332254460E+03  0.60975175048E+02  0.38827796120E+03  0.00000000000E+00 0. -1.
          3    1    6    6  503    0  0.39219122089E+03 -0.23670480476E+03 -0.86493371907E+02  0.46618046047E+03  0.00000000000E+00 0. -1.
         -3    1    6    6    0  503 -0.59206532951E+01 -0.24579807110E+01 -0.59411034565E+00  0.64380720498E+01  0.00000000000E+00 0.  1.
<mgrwt>
<rscale>  0 0.16977124E+04</rscale>
<asrwt>0</asrwt>
<pdfrwt beam="1">  1        2 0.20174579E+00 0.16977124E+04</pdfrwt>
<pdfrwt beam="2">  1       -1 0.84535097E-01 0.16977124E+04</pdfrwt>
<totfact> 0.24474862E+01</totfact>
</mgrwt>
</event>
<event>
12    7  0.1661464E-007  0.1550103E+04  0.7818608E-02  0.8851802E-01
          2   -1    0    0  501    0  0.00000000000E+00  0.00000000000E+00  0.14613910035E+04  0.14613910035E+04  0.00000000000E+00 0. -1.
         -1   -1    0    0    0  501 -0.00000000000E+00 -0.00000000000E+00 -0.41105001966E+03  0.41105001966E+03  0.00000000000E+00 0.  1.
         24    2    1    2    0    0  0.32199658563E+02  0.17112329661E+03  0.93037055324E+03  0.94981127685E+03  0.78943616813E+02 0.  0.
        254    2    1    2    0    0 -0.32199658563E+02 -0.17112329661E+03  0.11997043062E+03  0.92262974632E+03  0.89807168084E+03 0.  0.
         23    2    4    4    0    0 -0.17505863371E+03  0.91520038600E+02 -0.31885842590E+03  0.38391700046E+03  0.81854289910E+02 0.  0.
         23    2    4    4    0    0  0.14285897515E+03 -0.26264333521E+03  0.43882885652E+03  0.53871274586E+03  0.90831981845E+02 0.  0.
          2    1    3    3  502    0  0.15515015641E+02  0.65705034533E+02  0.56951975864E+03  0.57350729966E+03  0.00000000000E+00 0. -1.
         -1    1    3    3    0  502  0.16684642921E+02  0.10541826208E+03  0.36085079460E+03  0.37630397719E+03  0.00000000000E+00 0.  1.
         13    1    5    5    0    0 -0.56192254758E+02  0.61515641017E+02 -0.18208846666E+03  0.20024473345E+03  0.00000000000E+00 0.  1.
        -13    1    5    5    0    0 -0.11886637895E+03  0.30004397583E+02 -0.13676995924E+03  0.18367226702E+03  0.00000000000E+00 0. -1.
          2    1    6    6  503    0  0.15381053665E+03 -0.22802139689E+03  0.37178909475E+03  0.46247007427E+03  0.00000000000E+00 0. -1.
         -2    1    6    6    0  503 -0.10951561500E+02 -0.34621938326E+02  0.67039761771E+02  0.76242671589E+02  0.00000000000E+00 0.  1.
<mgrwt>
<rscale>  0 0.15501030E+04</rscale>
<asrwt>0</asrwt>
<pdfrwt beam="1">  1        2 0.22482938E+00 0.15501030E+04</pdfrwt>
<pdfrwt beam="2">  1       -1 0.63238465E-01 0.15501030E+04</pdfrwt>
<totfact> 0.37137145E+01</totfact>
</mgrwt>
</event>
<event>
12    7  0.1661464E-007  0.1870156E+04  0.7818608E-02  0.8669856E-01
          2   -1    0    0  501    0  0.00000000000E+00  0.00000000000E+00  0.32692969086E+04  0.32692969086E+04  0.00000000000E+00 0. -1.
         -1   -1    0    0    0  501 -0.00000000000E+00 -0.00000000000E+00 -0.26744913735E+03  0.26744913735E+03  0.00000000000E+00 0.  1.
         24    2    1    2    0    0 -0.47935849624E+03  0.35576016172E+03  0.40943971078E+03  0.72826197982E+03  0.79842181284E+02 0.  0.
        254    2    1    2    0    0  0.47935849624E+03 -0.35576016172E+03  0.25924080605E+04  0.28084840661E+04  0.90036289187E+03 0.  0.
         23    2    4    4    0    0  0.52902700259E+02  0.10895850861E+03  0.17285633009E+04  0.17352227856E+04  0.91631751948E+02 0.  0.
         23    2    4    4    0    0  0.42645579598E+03 -0.46471867033E+03  0.86384475957E+03  0.10732612806E+04  0.88509995192E+02 0.  0.
          4    1    3    3  502    0 -0.57355750590E+02  0.37249321077E+02  0.80277162386E+02  0.10545907665E+03  0.00000000000E+00 0. -1.
         -3    1    3    3    0  502 -0.42200274565E+03  0.31851084064E+03  0.32916254839E+03  0.62280290318E+03  0.00000000000E+00 0.  1.
         13    1    5    5    0    0 -0.30800004594E+01  0.25411005388E+02  0.92992294066E+03  0.93027516422E+03  0.00000000000E+00 0.  1.
        -13    1    5    5    0    0  0.55982700718E+02  0.83547503227E+02  0.79864036027E+03  0.80494762136E+03  0.00000000000E+00 0. -1.
          2    1    6    6  503    0  0.54044941192E+02 -0.10969215921E+03  0.17382542427E+03  0.21252883000E+03  0.00000000000E+00 0. -1.
         -2    1    6    6    0  503  0.37241085479E+03 -0.35502651112E+03  0.69001933531E+03  0.86073245057E+03  0.00000000000E+00 0.  1.
<mgrwt>
<rscale>  0 0.18701558E+04</rscale>
<asrwt>0</asrwt>
<pdfrwt beam="1">  1        2 0.50296872E+00 0.18701558E+04</pdfrwt>
<pdfrwt beam="2">  1       -1 0.41146024E-01 0.18701558E+04</pdfrwt>
<totfact> 0.72528030E+00</totfact>
</mgrwt>
</event>
<event>
12    7  0.1661464E-007  0.1611029E+04  0.7818608E-02  0.8813801E-01
          2   -1    0    0  501    0  0.00000000000E+00  0.00000000000E+00  0.15819137274E+04  0.15819137274E+04  0.00000000000E+00 0. -1.
         -1   -1    0    0    0  501 -0.00000000000E+00 -0.00000000000E+00 -0.41017019245E+03  0.41017019245E+03  0.00000000000E+00 0.  1.
         24    2    1    2    0    0  0.37636449448E+03  0.27500159495E+03  0.53042423323E+02  0.47628664903E+03  0.82215347956E+02 0.  0.
        254    2    1    2    0    0 -0.37636449448E+03 -0.27500159495E+03  0.11187011116E+04  0.15157972708E+04  0.91042466969E+03 0.  0.
         23    2    4    4    0    0 -0.80182480159E+02  0.23903150606E+03  0.78405568680E+03  0.82832786505E+03  0.88421948690E+02 0.  0.
         23    2    4    4    0    0 -0.29618201432E+03 -0.51403310101E+03  0.33464542484E+03  0.68746940579E+03  0.93127917293E+02 0.  0.
          2    1    3    3  502    0  0.25389238831E+03  0.18677433616E+03 -0.31963386135E+01  0.31520820749E+03  0.00000000000E+00 0. -1.
         -1    1    3    3    0  502  0.12247210617E+03  0.88227258791E+02  0.56238761936E+02  0.16107844154E+03  0.00000000000E+00 0.  1.
         13    1    5    5    0    0 -0.30817887968E+02  0.16015995998E+02  0.62748564158E+02  0.71719151212E+02  0.00000000000E+00 0.  1.
        -13    1    5    5    0    0 -0.49364592191E+02  0.22301551007E+03  0.72130712264E+03  0.75660871384E+03  0.00000000000E+00 0. -1.
          3    1    6    6  503    0 -0.28050165975E+03 -0.42948869828E+03  0.26856065569E+03  0.57902206249E+03  0.00000000000E+00 0. -1.
         -3    1    6    6    0  503 -0.15680354576E+02 -0.84544402733E+02  0.66084769154E+02  0.10844734329E+03  0.00000000000E+00 0.  1.
<mgrwt>
<rscale>  0 0.16110293E+04</rscale>
<asrwt>0</asrwt>
<pdfrwt beam="1">  1        2 0.24337134E+00 0.16110293E+04</pdfrwt>
<pdfrwt beam="2">  1       -1 0.63103107E-01 0.16110293E+04</pdfrwt>
<totfact> 0.31739213E+01</totfact>
</mgrwt>
</event>
<event>
12    7  0.1661464E-007  0.1556481E+04  0.7818608E-02  0.8847739E-01
          2   -1    0    0  501    0  0.00000000000E+00  0.00000000000E+00  0.14661952430E+04  0.14661952430E+04  0.00000000000E+00 0. -1.
         -1   -1    0    0    0  501 -0.00000000000E+00 -0.00000000000E+00 -0.41308145981E+03  0.41308145981E+03  0.00000000000E+00 0.  1.
         24    2    1    2    0    0  0.73504971433E+02  0.41170791675E+03  0.71835315826E+03  0.83500720152E+03  0.79368615073E+02 0.  0.
        254    2    1    2    0    0 -0.73504971433E+02 -0.41170791675E+03  0.33476062493E+03  0.10442695013E+04  0.89639708042E+03 0.  0.
         23    2    4    4    0    0 -0.36418452930E+03 -0.21155762376E+02  0.39565191946E+03  0.54563533274E+03  0.89997429432E+02 0.  0.
         23    2    4    4    0    0  0.29067955786E+03 -0.39055215437E+03 -0.60891294531E+02  0.49863416855E+03  0.88897095862E+02 0.  0.
          4    1    3    3  502    0  0.80629609334E+02  0.25878264291E+03  0.49242741006E+03  0.56209816255E+03  0.00000000000E+00 0. -1.
         -3    1    3    3    0  502 -0.71246379010E+01  0.15292527384E+03  0.22592574821E+03  0.27290903896E+03  0.00000000000E+00 0.  1.
         13    1    5    5    0    0 -0.69719310171E+02  0.11315000170E+02  0.34755260524E+02  0.78719372289E+02  0.00000000000E+00 0. -1.
        -13    1    5    5    0    0 -0.29446521912E+03 -0.32470762546E+02  0.36089665893E+03  0.46691596045E+03  0.00000000000E+00 0.  1.
          2    1    6    6  503    0  0.27271528972E+03 -0.39122362442E+03 -0.59699059929E+02  0.48061786412E+03  0.00000000000E+00 0.  1.
         -2    1    6    6    0  503  0.17964268146E+02  0.67147005291E+00 -0.11922346018E+01  0.18016304432E+02  0.00000000000E+00 0. -1.
<mgrwt>
<rscale>  0 0.15564807E+04</rscale>
<asrwt>0</asrwt>
<pdfrwt beam="1">  1        2 0.22556850E+00 0.15564807E+04</pdfrwt>
<pdfrwt beam="2">  1       -1 0.63550995E-01 0.15564807E+04</pdfrwt>
<totfact> 0.36523296E+01</totfact>
</mgrwt>
</event>
<event>
12    7  0.1661464E-007  0.3330109E+04  0.7818608E-02  0.8155276E-01
         -1   -1    0    0    0  501 -0.00000000000E+00  0.00000000000E+00  0.10994939236E+04  0.10994939236E+04  0.00000000000E+00 0.  1.
          2   -1    0    0  501    0  0.00000000000E+00 -0.00000000000E+00 -0.25215297288E+04  0.25215297288E+04  0.00000000000E+00 0. -1.
         24    2    1    2    0    0  0.33118501596E+03 -0.14077062098E+02  0.97281584373E+03  0.10308551326E+04  0.80062226485E+02 0.  0.
        254    2    1    2    0    0 -0.33118501596E+03  0.14077062098E+02 -0.23948516489E+04  0.25901685199E+04  0.92939596643E+03 0.  0.
         23    2    4    4    0    0  0.27718568649E+03 -0.15359216230E+03 -0.10710793917E+04  0.11208365053E+04  0.92956717753E+02 0.  0.
         23    2    4    4    0    0 -0.60837070245E+03  0.16766922440E+03 -0.13237722573E+04  0.14693320145E+04  0.91300051136E+02 0.  0.
          2    1    3    3  502    0  0.60112579691E+02 -0.12997784703E+02  0.10498274030E+03  0.12167103355E+03  0.00000000000E+00 0. -1.
         -1    1    3    3    0  502  0.27107243627E+03 -0.10792773955E+01  0.86783310344E+03  0.90918409905E+03  0.00000000000E+00 0.  1.
         13    1    5    5    0    0  0.33024862976E+02 -0.37978412089E+02 -0.88645176482E+02  0.10193610093E+03  0.00000000000E+00 0. -1.
        -13    1    5    5    0    0  0.24416082351E+03 -0.11561375021E+03 -0.98243421518E+03  0.10189004044E+04  0.00000000000E+00 0.  1.
          3    1    6    6  503    0 -0.11082647803E+03  0.10747437337E+02 -0.30619567501E+03  0.32581253358E+03  0.00000000000E+00 0. -1.
         -3    1    6    6    0  503 -0.49754422441E+03  0.15692178706E+03 -0.10175765823E+04  0.11435194809E+04  0.00000000000E+00 0.  1.
<mgrwt>
<rscale>  0 0.33301091E+04</rscale>
<asrwt>0</asrwt>
<pdfrwt beam="1">  1        2 0.38792765E+00 0.33301091E+04</pdfrwt>
<pdfrwt beam="2">  1       -1 0.16915291E+00 0.33301091E+04</pdfrwt>
<totfact> 0.79923428E-01</totfact>
</mgrwt>
</event>
<event>
12    7  0.1661464E-007  0.1130788E+04  0.7818608E-02  0.9175693E-01
         -1   -1    0    0    0  501 -0.00000000000E+00  0.00000000000E+00  0.34769519759E+03  0.34769519759E+03  0.00000000000E+00 0.  1.
          2   -1    0    0  501    0  0.00000000000E+00 -0.00000000000E+00 -0.91939815863E+03  0.91939815863E+03  0.00000000000E+00 0. -1.
         24    2    1    2    0    0  0.73425414737E+02  0.87949019251E+02 -0.29267446590E+03  0.32494789183E+03  0.82501320615E+02 0.  0.
        254    2    1    2    0    0 -0.73425414737E+02 -0.87949019251E+02 -0.27902849515E+03  0.94214546439E+03  0.89255523832E+03 0.  0.
         23    2    4    4    0    0  0.10640820115E+03 -0.90447261126E+02  0.29246702982E+03  0.33605461668E+03  0.88838783998E+02 0.  0.
         23    2    4    4    0    0 -0.17983361588E+03  0.24982418752E+01 -0.57149552497E+03  0.60609084771E+03  0.91611189283E+02 0.  0.
          4    1    3    3  502    0  0.89662463309E+02  0.80995210844E+02 -0.27278411687E+03  0.29834670423E+03  0.00000000000E+00 0. -1.
         -3    1    3    3    0  502 -0.16237048572E+02  0.69538084064E+01 -0.19890349022E+02  0.26601187604E+02  0.00000000000E+00 0.  1.
         13    1    5    5    0    0  0.79496120327E+02 -0.10405531048E+02  0.15994912772E+03  0.17891794679E+03  0.00000000000E+00 0.  1.
        -13    1    5    5    0    0  0.26912080821E+02 -0.80041730078E+02  0.13251790210E+03  0.15713666989E+03  0.00000000000E+00 0. -1.
          3    1    6    6  503    0 -0.16373048581E+03  0.64319892759E+01 -0.56501077127E+03  0.58829092643E+03  0.00000000000E+00 0. -1.
         -3    1    6    6    0  503 -0.16103130077E+02 -0.39337474007E+01 -0.64847536950E+01  0.17799921275E+02  0.00000000000E+00 0.  1.
<mgrwt>
<rscale>  0 0.11307879E+04</rscale>
<asrwt>0</asrwt>
<pdfrwt beam="1">  1        2 0.14144587E+00 0.11307879E+04</pdfrwt>
<pdfrwt beam="2">  1       -1 0.53491570E-01 0.11307879E+04</pdfrwt>
<totfact> 0.11341577E+02</totfact>
</mgrwt>
</event>
<event>
12    7  0.1661464E-007  0.1244095E+04  0.7818608E-02  0.9075112E-01
          2   -1    0    0  501    0  0.00000000000E+00  0.00000000000E+00  0.12436775582E+04  0.12436775582E+04  0.00000000000E+00 0. -1.
         -1   -1    0    0    0  501 -0.00000000000E+00 -0.00000000000E+00 -0.31112816922E+03  0.31112816922E+03  0.00000000000E+00 0.  1.
         24    2    1    2    0    0 -0.13647254460E+03 -0.70705614425E+02  0.51296375179E+03  0.54142023481E+03  0.79875031590E+02 0.  0.
        254    2    1    2    0    0  0.13647254460E+03  0.70705614425E+02  0.41958563714E+03  0.10133854926E+04  0.90954604628E+03 0.  0.
         23    2    4    4    0    0 -0.66007199160E+02  0.23415114479E+03  0.62024794962E+03  0.67238960437E+03  0.90645199045E+02 0.  0.
         23    2    4    4    0    0  0.20247974376E+03 -0.16344553037E+03 -0.20066231247E+03  0.34099588820E+03  0.91106224201E+02 0.  0.
          2    1    3    3  502    0 -0.94621786102E+02 -0.14382226735E+02  0.36980350678E+03  0.38198791143E+03  0.00000000000E+00 0. -1.
         -1    1    3    3    0  502 -0.41850758502E+02 -0.56323387690E+02  0.14316024501E+03  0.15943232338E+03  0.00000000000E+00 0.  1.
         13    1    5    5    0    0 -0.53850977967E+02  0.23888087993E+03  0.60251836923E+03  0.65037864962E+03  0.00000000000E+00 0. -1.
        -13    1    5    5    0    0 -0.12156221193E+02 -0.47297351383E+01  0.17729580391E+02  0.22010954750E+02  0.00000000000E+00 0.  1.
          4    1    6    6  503    0  0.10904697536E+03 -0.33344633556E+02 -0.66129231909E+02  0.13181874956E+03  0.00000000000E+00 0.  1.
         -4    1    6    6    0  503  0.93432768403E+02 -0.13010089681E+03 -0.13453308056E+03  0.20917713864E+03  0.00000000000E+00 0. -1.
<mgrwt>
<rscale>  0 0.12440950E+04</rscale>
<asrwt>0</asrwt>
<pdfrwt beam="1">  1        2 0.19133501E+00 0.12440950E+04</pdfrwt>
<pdfrwt beam="2">  1       -1 0.47865873E-01 0.12440950E+04</pdfrwt>
<totfact> 0.87222761E+01</totfact>
</mgrwt>
</event>
<event>
12    7  0.1661464E-007  0.1477612E+04  0.7818608E-02  0.8899479E-01
          2   -1    0    0  501    0  0.00000000000E+00  0.00000000000E+00  0.41490454335E+03  0.41490454335E+03  0.00000000000E+00 0. -1.
         -1   -1    0    0    0  501 -0.00000000000E+00 -0.00000000000E+00 -0.13155654455E+04  0.13155654455E+04  0.00000000000E+00 0.  1.
         24    2    1    2    0    0 -0.16127762396E+03  0.32912709372E+03 -0.58505894758E+03  0.69494972565E+03  0.79536364182E+02 0.  0.
        254    2    1    2    0    0  0.16127762396E+03 -0.32912709372E+03 -0.31560195458E+03  0.10355202632E+04  0.91562137696E+03 0.  0.
         23    2    4    4    0    0  0.15657417805E+03  0.84063054658E+02 -0.52632064962E+03  0.56276062123E+03  0.90022331668E+02 0.  0.
         23    2    4    4    0    0  0.47034459135E+01 -0.41319014838E+03  0.21071869504E+03  0.47275964197E+03  0.91384295766E+02 0.  0.
          4    1    3    3  502    0 -0.52615055872E+02  0.11672848301E+03 -0.13824754637E+03  0.18843106678E+03  0.00000000000E+00 0. -1.
         -3    1    3    3    0  502 -0.10866256809E+03  0.21239861072E+03 -0.44681140121E+03  0.50651865888E+03  0.00000000000E+00 0.  1.
         13    1    5    5    0    0  0.12921051747E+03  0.66541971501E+02 -0.50074405554E+03  0.52140943696E+03  0.00000000000E+00 0. -1.
        -13    1    5    5    0    0  0.27363660586E+02  0.17521083157E+02 -0.25576594084E+02  0.41351184271E+02  0.00000000000E+00 0.  1.
          1    1    6    6  503    0 -0.14025917822E+02 -0.39295165828E+03  0.20858634292E+03  0.44510222935E+03  0.00000000000E+00 0. -1.
         -1    1    6    6    0  503  0.18729363736E+02 -0.20238490100E+02  0.21323521240E+01  0.27657412624E+02  0.00000000000E+00 0.  1.
<mgrwt>
<rscale>  0 0.14776117E+04</rscale>
<asrwt>0</asrwt>
<pdfrwt beam="1">  1        2 0.63831469E-01 0.14776117E+04</pdfrwt>
<pdfrwt beam="2">  1       -1 0.20239468E+00 0.14776117E+04</pdfrwt>
<totfact> 0.12237076E+01</totfact>
</mgrwt>
</event>
<event>
12    7  0.1661464E-007  0.2340440E+04  0.7818608E-02  0.8462145E-01
         -1   -1    0    0    0  501 -0.00000000000E+00  0.00000000000E+00  0.11059975150E+04  0.11059975150E+04  0.00000000000E+00 0.  1.
          2   -1    0    0  501    0  0.00000000000E+00 -0.00000000000E+00 -0.12381713015E+04  0.12381713015E+04  0.00000000000E+00 0. -1.
         24    2    1    2    0    0  0.28653024380E+02  0.12820782427E+03 -0.10456485426E+04  0.10569018343E+04  0.80014814822E+02 0.  0.
        254    2    1    2    0    0 -0.28653024380E+02 -0.12820782427E+03  0.91347475613E+03  0.12872669822E+04  0.89741958488E+03 0.  0.
         23    2    4    4    0    0  0.14392608227E+03 -0.46831468999E+03  0.38781989666E+03  0.63124118244E+03  0.89597947215E+02 0.  0.
         23    2    4    4    0    0 -0.17257910665E+03  0.34010686572E+03  0.52565485948E+03  0.65602579975E+03  0.92739368579E+02 0.  0.
          2    1    3    3  502    0  0.36942611808E+02  0.78825690244E+02 -0.86728251962E+03  0.87164053075E+03  0.00000000000E+00 0. -1.
         -1    1    3    3    0  502 -0.82895874283E+01  0.49382134027E+02 -0.17836602298E+03  0.18526130350E+03  0.00000000000E+00 0.  1.
         13    1    5    5    0    0  0.14251227210E+03 -0.33280799920E+03  0.29468223658E+03  0.46680674009E+03  0.00000000000E+00 0. -1.
        -13    1    5    5    0    0  0.14138101669E+01 -0.13550669079E+03  0.93137660072E+02  0.16443444235E+03  0.00000000000E+00 0.  1.
          3    1    6    6  503    0 -0.13820787114E+03  0.17358361224E+03  0.27978361831E+03  0.35708760712E+03  0.00000000000E+00 0. -1.
         -3    1    6    6    0  503 -0.34371235506E+02  0.16652325348E+03  0.24587124117E+03  0.29893819263E+03  0.00000000000E+00 0.  1.
<mgrwt>
<rscale>  0 0.23404396E+04</rscale>
<asrwt>0</asrwt>
<pdfrwt beam="1">  1        2 0.19048789E+00 0.23404396E+04</pdfrwt>
<pdfrwt beam="2">  1       -1 0.17015346E+00 0.23404396E+04</pdfrwt>
<totfact> 0.45436657E+00</totfact>
</mgrwt>
</event>
<event>
12    7  0.1661464E-007  0.2212698E+04  0.7818608E-02  0.8513161E-01
          2   -1    0    0  501    0  0.00000000000E+00  0.00000000000E+00  0.30257796473E+04  0.30257796473E+04  0.00000000000E+00 0. -1.
         -1   -1    0    0    0  501 -0.00000000000E+00 -0.00000000000E+00 -0.40452665236E+03  0.40452665236E+03  0.00000000000E+00 0.  1.
         24    2    1    2    0    0  0.24392309366E+03 -0.38626802347E+02  0.24717144527E+04  0.24853075675E+04  0.79942880671E+02 0.  0.
        254    2    1    2    0    0 -0.24392309366E+03  0.38626802347E+02  0.14953854231E+03  0.94499873219E+03  0.89981682731E+03 0.  0.
         23    2    4    4    0    0 -0.19275464765E+03 -0.14839978217E+03 -0.32930327117E+03  0.41945635853E+03  0.91247700063E+02 0.  0.
         23    2    4    4    0    0 -0.51168446006E+02  0.18702658452E+03  0.47884181349E+03  0.52554237366E+03  0.96478759241E+02 0.  0.
          4    1    3    3  502    0  0.19699975266E+03 -0.37389547634E+02  0.22354758170E+04  0.22444507144E+04  0.00000000000E+00 0. -1.
         -3    1    3    3    0  502  0.46923341001E+02 -0.12372547131E+01  0.23623863563E+03  0.24085685312E+03  0.00000000000E+00 0.  1.
         13    1    5    5    0    0 -0.95530051925E+02 -0.12917696409E+03 -0.20738072950E+03  0.26233460664E+03  0.00000000000E+00 0. -1.
        -13    1    5    5    0    0 -0.97224595725E+02 -0.19222818076E+02 -0.12192254167E+03  0.15712175189E+03  0.00000000000E+00 0.  1.
          4    1    6    6  503    0 -0.29164263902E+00  0.12226793706E+03  0.36572940091E+03  0.38562615079E+03  0.00000000000E+00 0. -1.
         -4    1    6    6    0  503 -0.50876803367E+02  0.64758647453E+02  0.11311241258E+03  0.13991622286E+03  0.00000000000E+00 0.  1.
<mgrwt>
<rscale>  0 0.22126984E+04</rscale>
<asrwt>0</asrwt>
<pdfrwt beam="1">  1        2 0.46550455E+00 0.22126984E+04</pdfrwt>
<pdfrwt beam="2">  1       -1 0.62234871E-01 0.22126984E+04</pdfrwt>
<totfact> 0.45693664E+00</totfact>
</mgrwt>
</event>
<event>
12    7  0.1661464E-007  0.1408501E+04  0.7818608E-02  0.8947688E-01
         -1   -1    0    0    0  501 -0.00000000000E+00  0.00000000000E+00  0.29832594395E+03  0.29832594395E+03  0.00000000000E+00 0.  1.
          2   -1    0    0  501    0  0.00000000000E+00 -0.00000000000E+00 -0.16625060431E+04  0.16625060431E+04  0.00000000000E+00 0. -1.
         24    2    1    2    0    0 -0.35755553075E+03 -0.12929604359E+03 -0.59721905914E+03  0.71228613986E+03  0.78214550975E+02 0.  0.
        254    2    1    2    0    0  0.35755553075E+03  0.12929604359E+03 -0.76696103997E+03  0.12485458471E+04  0.90888617061E+03 0.  0.
         23    2    4    4    0    0  0.20223942033E+03  0.24176781322E+03 -0.92662224062E+03  0.98260822295E+03  0.86819838459E+02 0.  0.
         23    2    4    4    0    0  0.15531611042E+03 -0.11247176963E+03  0.15966120065E+03  0.26593762419E+03  0.91968080616E+02 0.  0.
          4    1    3    3  502    0 -0.30432549348E+03 -0.13316975965E+03 -0.48291178409E+03  0.58613307540E+03  0.00000000000E+00 0. -1.
         -3    1    3    3    0  502 -0.53230037269E+02  0.38737160573E+01 -0.11430727505E+03  0.12615306446E+03  0.00000000000E+00 0.  1.
         13    1    5    5    0    0  0.55643839085E+02  0.49302647910E+02 -0.34040384049E+03  0.34842755709E+03  0.00000000000E+00 0.  1.
        -13    1    5    5    0    0  0.14659558124E+03  0.19246516531E+03 -0.58621840013E+03  0.63418066586E+03  0.00000000000E+00 0. -1.
          4    1    6    6  503    0  0.68895518387E+02 -0.97570289867E+02  0.12124423523E+03  0.17019611774E+03  0.00000000000E+00 0. -1.
         -4    1    6    6    0  503  0.86420592030E+02 -0.14901479761E+02  0.38416965420E+02  0.95741506454E+02  0.00000000000E+00 0.  1.
<mgrwt>
<rscale>  0 0.14085009E+04</rscale>
<asrwt>0</asrwt>
<pdfrwt beam="1">  1        2 0.25577017E+00 0.14085009E+04</pdfrwt>
<pdfrwt beam="2">  1       -1 0.45896298E-01 0.14085009E+04</pdfrwt>
<totfact> 0.53818439E+01</totfact>
</mgrwt>
</event>
<event>
12    7  0.1661464E-007  0.1897556E+04  0.7818608E-02  0.8656074E-01
         -1   -1    0    0    0  501 -0.00000000000E+00  0.00000000000E+00  0.60401512637E+03  0.60401512637E+03  0.00000000000E+00 0.  1.
          2   -1    0    0  501    0  0.00000000000E+00 -0.00000000000E+00 -0.14903267378E+04  0.14903267378E+04  0.00000000000E+00 0. -1.
         24    2    1    2    0    0 -0.65135139641E+03 -0.33871692847E+03 -0.25952599857E+03  0.78290434940E+03  0.81226086603E+02 0.  0.
        254    2    1    2    0    0  0.65135139641E+03  0.33871692847E+03 -0.62678561290E+03  0.13114375148E+04  0.88770510388E+03 0.  0.
         23    2    4    4    0    0  0.52989323111E+03 -0.12304868680E+03 -0.45554170114E+02  0.55342993011E+03  0.91003787951E+02 0.  0.
         23    2    4    4    0    0  0.12145816530E+03  0.46176561527E+03 -0.58123144278E+03  0.75800758469E+03  0.93626593473E+02 0.  0.
          2    1    3    3  502    0 -0.49619501797E+03 -0.24124876381E+03 -0.16039005701E+03  0.57457413124E+03  0.00000000000E+00 0. -1.
         -1    1    3    3    0  502 -0.15515637844E+03 -0.97468164662E+02 -0.99135941560E+02  0.20833021817E+03  0.00000000000E+00 0.  1.
         13    1    5    5    0    0  0.12268191988E+03  0.58572146146E+01  0.73351321937E+01  0.12304049981E+03  0.00000000000E+00 0.  1.
        -13    1    5    5    0    0  0.40721131123E+03 -0.12890590142E+03 -0.52889302308E+02  0.43038943030E+03  0.00000000000E+00 0. -1.
          2    1    6    6  503    0  0.13234351468E+03  0.40924597018E+03 -0.53997200068E+03  0.69033820082E+03  0.00000000000E+00 0. -1.
         -2    1    6    6    0  503 -0.10885349380E+02  0.52519645091E+02 -0.41259442105E+02  0.67669383878E+02  0.00000000000E+00 0.  1.
<mgrwt>
<rscale>  0 0.18975562E+04</rscale>
<asrwt>0</asrwt>
<pdfrwt beam="1">  1        2 0.22928103E+00 0.18975562E+04</pdfrwt>
<pdfrwt beam="2">  1       -1 0.92925406E-01 0.18975562E+04</pdfrwt>
<totfact> 0.15437193E+01</totfact>
</mgrwt>
</event>
<event>
12    7  0.1661464E-007  0.1704024E+04  0.7818608E-02  0.8759073E-01
          2   -1    0    0  501    0  0.00000000000E+00  0.00000000000E+00  0.90387040556E+03  0.90387040556E+03  0.00000000000E+00 0. -1.
         -1   -1    0    0    0  501 -0.00000000000E+00 -0.00000000000E+00 -0.80312878759E+03  0.80312878759E+03  0.00000000000E+00 0.  1.
         24    2    1    2    0    0 -0.36126239862E+03 -0.33895180793E+03  0.39212371789E+03  0.63724287592E+03  0.83178266489E+02 0.  0.
        254    2    1    2    0    0  0.36126239862E+03  0.33895180793E+03 -0.29138209992E+03  0.10697563172E+04  0.90226171444E+03 0.  0.
         23    2    4    4    0    0  0.22152388763E+03  0.30032761208E+03 -0.60313808049E+03  0.71462115608E+03  0.87397626991E+02 0.  0.
         23    2    4    4    0    0  0.13973851099E+03  0.38624195850E+02  0.31175598057E+03  0.35513516115E+03  0.88941055231E+02 0.  0.
          2    1    3    3  502    0 -0.34293503246E+03 -0.34127059921E+03  0.37635117409E+03  0.61295208998E+03  0.00000000000E+00 0. -1.
         -1    1    3    3    0  502 -0.18327366160E+02  0.23187912785E+01  0.15772543806E+02  0.24290785938E+02  0.00000000000E+00 0.  1.
         13    1    5    5    0    0  0.16155052184E+02  0.14350433735E+02 -0.88320110915E+02  0.90925038639E+02  0.00000000000E+00 0.  1.
        -13    1    5    5    0    0  0.20536883545E+03  0.28597717835E+03 -0.51481796958E+03  0.62369611744E+03  0.00000000000E+00 0. -1.
          1    1    6    6  503    0 -0.83127600598E+01  0.16953597717E+02  0.52582714106E+02  0.55870101826E+02  0.00000000000E+00 0.  1.
         -1    1    6    6    0  503  0.14805127104E+03  0.21670598132E+02  0.25917326647E+03  0.29926505933E+03  0.00000000000E+00 0. -1.
<mgrwt>
<rscale>  0 0.17040239E+04</rscale>
<asrwt>0</asrwt>
<pdfrwt beam="1">  1        2 0.13905699E+00 0.17040239E+04</pdfrwt>
<pdfrwt beam="2">  1       -1 0.12355827E+00 0.17040239E+04</pdfrwt>
<totfact> 0.18228074E+01</totfact>
</mgrwt>
</event>
<event>
12    7  0.1661464E-007  0.1789530E+04  0.7818608E-02  0.8711887E-01
          2   -1    0    0  501    0  0.00000000000E+00  0.00000000000E+00  0.63515132715E+03  0.63515132715E+03  0.00000000000E+00 0. -1.
         -1   -1    0    0    0  501 -0.00000000000E+00 -0.00000000000E+00 -0.12604933625E+04  0.12604933625E+04  0.00000000000E+00 0.  1.
         24    2    1    2    0    0  0.49648012242E+03  0.23007180274E+03  0.16682354320E+03  0.57810823738E+03  0.83387608141E+02 0.  0.
        254    2    1    2    0    0 -0.49648012242E+03 -0.23007180274E+03 -0.79216557859E+03  0.13175364523E+04  0.89941672927E+03 0.  0.
         23    2    4    4    0    0 -0.38073778392E+03 -0.15594042426E+03 -0.98004241685E+03  0.10675372197E+04  0.99367503154E+02 0.  0.
         23    2    4    4    0    0 -0.11574233850E+03 -0.74131378473E+02  0.18787683826E+03  0.24999923257E+03  0.91160077519E+02 0.  0.
          4    1    3    3  502    0  0.41694368809E+03  0.21223720734E+03  0.11589335080E+03  0.48199371362E+03  0.00000000000E+00 0. -1.
         -3    1    3    3    0  502  0.79536434333E+02  0.17834595400E+02  0.50930192400E+02  0.96114523758E+02  0.00000000000E+00 0.  1.
         13    1    5    5    0    0 -0.25556614215E+03 -0.62273922380E+02 -0.54261904550E+03  0.60301535881E+03  0.00000000000E+00 0. -1.
        -13    1    5    5    0    0 -0.12517164177E+03 -0.93666501883E+02 -0.43742337136E+03  0.46452186093E+03  0.00000000000E+00 0.  1.
          1    1    6    6  503    0 -0.93932317132E+01 -0.28623806534E+02  0.10081723481E+03  0.10522200310E+03  0.00000000000E+00 0. -1.
         -1    1    6    6    0  503 -0.10634910679E+03 -0.45507571939E+02  0.87059603453E+02  0.14477722946E+03  0.00000000000E+00 0.  1.
<mgrwt>
<rscale>  0 0.17895296E+04</rscale>
<asrwt>0</asrwt>
<pdfrwt beam="1">  1        2 0.97715590E-01 0.17895296E+04</pdfrwt>
<pdfrwt beam="2">  1       -1 0.19392205E+00 0.17895296E+04</pdfrwt>
<totfact> 0.82796995E+00</totfact>
</mgrwt>
</event>
<event>
12    7  0.1661464E-007  0.3286602E+04  0.7818608E-02  0.8166313E-01
          2   -1    0    0  501    0  0.00000000000E+00  0.00000000000E+00  0.30278719743E+04  0.30278719743E+04  0.00000000000E+00 0. -1.
         -3   -1    0    0    0  501 -0.00000000000E+00 -0.00000000000E+00 -0.89186000878E+03  0.89186000878E+03  0.00000000000E+00 0.  1.
         24    2    1    2    0    0  0.74910489887E+03 -0.12977076579E+04  0.11910638050E+04  0.19159946101E+04  0.84847177131E+02 0.  0.
        254    2    1    2    0    0 -0.74910489887E+03  0.12977076579E+04  0.94494816053E+03  0.20037373730E+04  0.93639367733E+03 0.  0.
         23    2    4    4    0    0 -0.91762218261E+02 -0.11028488149E+03 -0.20768582285E+02  0.17203734656E+03  0.92641539361E+02 0.  0.
         23    2    4    4    0    0 -0.65734268060E+03  0.14079925394E+04  0.96571674282E+03  0.18317000264E+04  0.89295961458E+02 0.  0.
          2    1    3    3  502    0  0.65129187335E+03 -0.10694746597E+04  0.10082676958E+04  0.16076569592E+04  0.00000000000E+00 0. -1.
         -1    1    3    3    0  502  0.97813025517E+02 -0.22823299821E+03  0.18279610911E+03  0.30833765086E+03  0.00000000000E+00 0.  1.
         13    1    5    5    0    0 -0.51361051057E+02 -0.11735628597E+03 -0.25921481615E+02  0.13069957395E+03  0.00000000000E+00 0. -1.
        -13    1    5    5    0    0 -0.40401167204E+02  0.70714044759E+01  0.51528993297E+01  0.41337772608E+02  0.00000000000E+00 0.  1.
          1    1    6    6  503    0 -0.65189116367E+03  0.13650418617E+04  0.94572905433E+03  0.17840136820E+04  0.00000000000E+00 0. -1.
         -1    1    6    6    0  503 -0.54515169351E+01  0.42950677691E+02  0.19987688486E+02  0.47686344398E+02  0.00000000000E+00 0.  1.
<mgrwt>
<rscale>  0 0.32866018E+04</rscale>
<asrwt>0</asrwt>
<pdfrwt beam="1">  1        2 0.46582645E+00 0.32866018E+04</pdfrwt>
<pdfrwt beam="2">  1       -3 0.13720923E+00 0.32866018E+04</pdfrwt>
<totfact> 0.36113275E-01</totfact>
</mgrwt>
</event>
<event>
12    7  0.1661464E-007  0.2182821E+04  0.7818608E-02  0.8525613E-01
         -1   -1    0    0    0  501 -0.00000000000E+00  0.00000000000E+00  0.57215997911E+03  0.57215997911E+03  0.00000000000E+00 0.  1.
          2   -1    0    0  501    0  0.00000000000E+00 -0.00000000000E+00 -0.20818938704E+04  0.20818938704E+04  0.00000000000E+00 0. -1.
         24    2    1    2    0    0 -0.90874690230E+03  0.58403007967E+02 -0.62833735442E+03  0.11092520679E+04  0.80002971809E+02 0.  0.
        254    2    1    2    0    0  0.90874690230E+03 -0.58403007967E+02 -0.88139653692E+03  0.15448017816E+04  0.88335771088E+03 0.  0.
         23    2    4    4    0    0  0.56600835783E+03 -0.20190288481E+03 -0.26751538425E+02  0.60811551899E+03  0.89211006050E+02 0.  0.
         23    2    4    4    0    0  0.34273854448E+03  0.14349987684E+03 -0.85464499849E+03  0.93668626262E+03  0.94345941102E+02 0.  0.
          4    1    3    3  502    0 -0.69849922503E+03  0.13806314229E+02 -0.49689720290E+03  0.85732060043E+03  0.00000000000E+00 0. -1.
         -3    1    3    3    0  502 -0.21024767727E+03  0.44596693737E+02 -0.13144015153E+03  0.25193146751E+03  0.00000000000E+00 0.  1.
         13    1    5    5    0    0  0.19248207558E+03 -0.24815112466E+02 -0.41517775213E+01  0.19411949022E+03  0.00000000000E+00 0.  1.
        -13    1    5    5    0    0  0.37352628224E+03 -0.17708777234E+03 -0.22599760903E+02  0.41399602876E+03  0.00000000000E+00 0. -1.
          1    1    6    6  503    0  0.33235091711E+03  0.14809869675E+03 -0.77415250419E+03  0.85539608125E+03  0.00000000000E+00 0. -1.
         -1    1    6    6    0  503  0.10387627370E+02 -0.45988199080E+01 -0.80492494302E+02  0.81290181362E+02  0.00000000000E+00 0.  1.
<mgrwt>
<rscale>  0 0.21828205E+04</rscale>
<asrwt>0</asrwt>
<pdfrwt beam="1">  1        2 0.32029136E+00 0.21828205E+04</pdfrwt>
<pdfrwt beam="2">  1       -1 0.88024612E-01 0.21828205E+04</pdfrwt>
<totfact> 0.79474382E+00</totfact>
</mgrwt>
</event>
<event>
12    7  0.1661464E-007  0.3192425E+04  0.7818608E-02  0.8190821E-01
          2   -1    0    0  501    0  0.00000000000E+00  0.00000000000E+00  0.19857043897E+04  0.19857043897E+04  0.00000000000E+00 0. -1.
         -1   -1    0    0    0  501 -0.00000000000E+00 -0.00000000000E+00 -0.12831182736E+04  0.12831182736E+04  0.00000000000E+00 0.  1.
         24    2    1    2    0    0  0.10119715958E+04  0.65151287366E+03  0.11363918926E+04  0.16571509046E+04  0.78784845425E+02 0.  0.
        254    2    1    2    0    0 -0.10119715958E+04 -0.65151287366E+03 -0.43380577642E+03  0.16116717587E+04  0.98017491845E+03 0.  0.
         23    2    4    4    0    0 -0.16104116404E+03 -0.38683307438E+03  0.23784580915E+03  0.49213796163E+03  0.10027492405E+03 0.  0.
         23    2    4    4    0    0 -0.85093043178E+03 -0.26467979928E+03 -0.67165158557E+03  0.11195337970E+04  0.90011523966E+02 0.  0.
          2    1    3    3  502    0  0.97339710911E+03  0.64154202072E+03  0.11069357843E+04  0.16076022291E+04  0.00000000000E+00 0. -1.
         -1    1    3    3    0  502  0.38574486705E+02  0.99708529399E+01  0.29456108314E+02  0.49548675562E+02  0.00000000000E+00 0.  1.
         13    1    5    5    0    0 -0.51873350455E+02 -0.25233675398E+03  0.14374507670E+03  0.29500394738E+03  0.00000000000E+00 0. -1.
        -13    1    5    5    0    0 -0.10916781359E+03 -0.13449632041E+03  0.94100732452E+02  0.19713401425E+03  0.00000000000E+00 0.  1.
          3    1    6    6  503    0 -0.45547755948E+03 -0.11503900877E+03 -0.39968871789E+03  0.61680211732E+03  0.00000000000E+00 0. -1.
         -3    1    6    6    0  503 -0.39545287230E+03 -0.14964079051E+03 -0.27196286767E+03  0.50273167971E+03  0.00000000000E+00 0.  1.
<mgrwt>
<rscale>  0 0.31924245E+04</rscale>
<asrwt>0</asrwt>
<pdfrwt beam="1">  1        2 0.30549298E+00 0.31924245E+04</pdfrwt>
<pdfrwt beam="2">  1       -1 0.19740281E+00 0.31924245E+04</pdfrwt>
<totfact> 0.10230756E+00</totfact>
</mgrwt>
</event>
<event>
12    7  0.1661464E-007  0.2922051E+04  0.7818608E-02  0.8266347E-01
         -1   -1    0    0    0  501 -0.00000000000E+00  0.00000000000E+00  0.22933693682E+04  0.22933693682E+04  0.00000000000E+00 0.  1.
          2   -1    0    0  501    0  0.00000000000E+00 -0.00000000000E+00 -0.93076825297E+03  0.93076825297E+03  0.00000000000E+00 0. -1.
         24    2    1    2    0    0 -0.28594659572E+03 -0.12109170493E+04  0.11002679133E+04  0.16628839655E+04  0.80672460037E+02 0.  0.
        254    2    1    2    0    0  0.28594659572E+03  0.12109170493E+04  0.26233320195E+03  0.15612536556E+04  0.90587455666E+03 0.  0.
         23    2    4    4    0    0  0.38702244826E+03  0.86975303802E+02  0.76990723330E+02  0.41408104908E+03  0.90468031907E+02 0.  0.
         23    2    4    4    0    0 -0.10107585254E+03  0.11239417455E+04  0.18534247862E+03  0.11471726066E+04  0.90508450033E+02 0.  0.
          2    1    3    3  502    0 -0.25272051597E+02 -0.63116468597E+02  0.41009512812E+02  0.79398648233E+02  0.00000000000E+00 0. -1.
         -1    1    3    3    0  502 -0.26067454413E+03 -0.11478005807E+04  0.10592584005E+04  0.15834853173E+04  0.00000000000E+00 0.  1.
         13    1    5    5    0    0  0.22443379770E+03  0.90604493350E+02  0.67050936698E+02  0.25114842599E+03  0.00000000000E+00 0.  1.
        -13    1    5    5    0    0  0.16258865056E+03 -0.36291895480E+01  0.99397866320E+01  0.16293262309E+03  0.00000000000E+00 0. -1.
          1    1    6    6  503    0 -0.21133431780E+02  0.44495484210E+03  0.11379923255E+03  0.45976265483E+03  0.00000000000E+00 0. -1.
         -1    1    6    6    0  503 -0.79942420759E+02  0.67898690343E+03  0.71543246068E+02  0.68740995173E+03  0.00000000000E+00 0.  1.
<mgrwt>
<rscale>  0 0.29220509E+04</rscale>
<asrwt>0</asrwt>
<pdfrwt beam="1">  1        2 0.14319512E+00 0.29220509E+04</pdfrwt>
<pdfrwt beam="2">  1       -1 0.35282605E+00 0.29220509E+04</pdfrwt>
<totfact> 0.40845022E-01</totfact>
</mgrwt>
</event>
<event>
12    7  0.1661464E-007  0.1303137E+04  0.7818608E-02  0.9027081E-01
          2   -1    0    0  501    0  0.00000000000E+00  0.00000000000E+00  0.43877311242E+03  0.43877311242E+03  0.00000000000E+00 0. -1.
         -1   -1    0    0    0  501 -0.00000000000E+00 -0.00000000000E+00 -0.96756560554E+03  0.96756560554E+03  0.00000000000E+00 0.  1.
         24    2    1    2    0    0  0.69465904397E+02  0.38294463643E+02 -0.49328596272E+03  0.51022613467E+03  0.10347796704E+03 0.  0.
        254    2    1    2    0    0 -0.69465904397E+02 -0.38294463643E+02 -0.35506530404E+02  0.89611258329E+03  0.89188848541E+03 0.  0.
         23    2    4    4    0    0  0.11461990302E+03  0.26123102254E+03 -0.31748682596E+03  0.43624077902E+03  0.90159654580E+02 0.  0.
         23    2    4    4    0    0 -0.18408580741E+03 -0.29952548619E+03  0.28198029556E+03  0.45987180427E+03  0.91466321202E+02 0.  0.
          4    1    3    3  502    0  0.32446079545E+02 -0.11128565043E+02 -0.39742028786E+02  0.52497827477E+02  0.00000000000E+00 0. -1.
         -3    1    3    3    0  502  0.37019824852E+02  0.49423028687E+02 -0.45354393394E+03  0.45772830720E+03  0.00000000000E+00 0.  1.
         13    1    5    5    0    0  0.87836550435E+02  0.25758383974E+03 -0.28863491469E+03  0.39670493829E+03  0.00000000000E+00 0. -1.
        -13    1    5    5    0    0  0.26783352580E+02  0.36471828005E+01 -0.28851911272E+02  0.39535840725E+02  0.00000000000E+00 0.  1.
          1    1    6    6  503    0 -0.14576230537E+03 -0.28794801240E+03  0.25814855906E+03  0.41328124329E+03  0.00000000000E+00 0. -1.
         -1    1    6    6    0  503 -0.38323502040E+02 -0.11577473790E+02  0.23831736498E+02  0.46590560980E+02  0.00000000000E+00 0.  1.
<mgrwt>
<rscale>  0 0.13031374E+04</rscale>
<asrwt>0</asrwt>
<pdfrwt beam="1">  1        2 0.67503556E-01 0.13031374E+04</pdfrwt>
<pdfrwt beam="2">  1       -1 0.14885625E+00 0.13031374E+04</pdfrwt>
<totfact> 0.28588184E+01</totfact>
</mgrwt>
</event>
<event>
12    7  0.1661464E-007  0.2591640E+04  0.7818608E-02  0.8371046E-01
          2   -1    0    0  501    0  0.00000000000E+00  0.00000000000E+00  0.19782094017E+04  0.19782094017E+04  0.00000000000E+00 0. -1.
         -1   -1    0    0    0  501 -0.00000000000E+00 -0.00000000000E+00 -0.84882302229E+03  0.84882302229E+03  0.00000000000E+00 0.  1.
         24    2    1    2    0    0 -0.10829104247E+03 -0.97373403185E+03  0.11471287000E+04  0.15106799738E+04  0.79779786914E+02 0.  0.
        254    2    1    2    0    0  0.10829104247E+03  0.97373403185E+03 -0.17742320507E+02  0.13163524502E+04  0.87896761519E+03 0.  0.
         23    2    4    4    0    0  0.14022021162E+03 -0.12552788620E+03  0.31199171610E+02  0.21191006175E+03  0.92268781289E+02 0.  0.
         23    2    4    4    0    0 -0.31929169153E+02  0.10992619180E+04 -0.48941492117E+02  0.11044423885E+04  0.89451011530E+02 0.  0.
          4    1    3    3  502    0 -0.10127949641E+03 -0.65940814631E+03  0.81716995147E+03  0.10549139156E+04  0.00000000000E+00 0. -1.
         -3    1    3    3    0  502 -0.70115460549E+01 -0.31432588554E+03  0.32995874849E+03  0.45576605819E+03  0.00000000000E+00 0.  1.
         13    1    5    5    0    0  0.60746025567E+02 -0.26423354518E+02 -0.27802723145E+02  0.71841942488E+02  0.00000000000E+00 0. -1.
        -13    1    5    5    0    0  0.79474186052E+02 -0.99104531678E+02  0.59001894754E+02  0.14006811926E+03  0.00000000000E+00 0.  1.
          1    1    6    6  503    0 -0.34539468316E+02  0.14383638833E+03 -0.74571278337E+01  0.14811309947E+03  0.00000000000E+00 0. -1.
         -1    1    6    6    0  503  0.26102991633E+01  0.95542552972E+03 -0.41484364283E+02  0.95632928899E+03  0.00000000000E+00 0.  1.
<mgrwt>
<rscale>  0 0.25916402E+04</rscale>
<asrwt>0</asrwt>
<pdfrwt beam="1">  1        2 0.30433991E+00 0.25916402E+04</pdfrwt>
<pdfrwt beam="2">  1       -1 0.13058816E+00 0.25916402E+04</pdfrwt>
<totfact> 0.34692712E+00</totfact>
</mgrwt>
</event>
<event>
12    7  0.1661464E-007  0.2004194E+04  0.7818608E-02  0.8604662E-01
          2   -1    0    0  501    0  0.00000000000E+00  0.00000000000E+00  0.44152249500E+04  0.44152249500E+04  0.00000000000E+00 0. -1.
         -1   -1    0    0    0  501 -0.00000000000E+00 -0.00000000000E+00 -0.22743988178E+03  0.22743988178E+03  0.00000000000E+00 0.  1.
         24    2    1    2    0    0  0.69464171220E+03  0.18743082997E+03  0.24334424241E+04  0.25388287748E+04  0.79700012168E+02 0.  0.
        254    2    1    2    0    0 -0.69464171220E+03 -0.18743082997E+03  0.17543426441E+04  0.21038360570E+04  0.91145521961E+03 0.  0.
         23    2    4    4    0    0 -0.81811454765E+03 -0.27822823682E+03  0.17121728291E+04  0.19200163026E+04  0.90578367042E+02 0.  0.
         23    2    4    4    0    0  0.12347283544E+03  0.90797406855E+02  0.42169815006E+02  0.18381975441E+03  0.92313046916E+02 0.  0.
          2    1    3    3  502    0  0.59289118789E+03  0.13159550576E+03  0.20765670698E+04  0.21635545136E+04  0.00000000000E+00 0. -1.
         -1    1    3    3    0  502  0.10175052432E+03  0.55835324204E+02  0.35687535426E+03  0.37527426119E+03  0.00000000000E+00 0.  1.
         13    1    5    5    0    0 -0.33980822722E+03 -0.15142824646E+03  0.80005533332E+03  0.88232005615E+03  0.00000000000E+00 0. -1.
        -13    1    5    5    0    0 -0.47830632043E+03 -0.12679999036E+03  0.91211749577E+03  0.10376962464E+04  0.00000000000E+00 0.  1.
          2    1    6    6  503    0  0.14335931495E+01 -0.16406496568E+02  0.33260122183E+01  0.16801508153E+02  0.00000000000E+00 0. -1.
         -2    1    6    6    0  503  0.12203924229E+03  0.10720390342E+03  0.38843802787E+02  0.16701824626E+03  0.00000000000E+00 0.  1.
<mgrwt>
<rscale>  0 0.20041938E+04</rscale>
<asrwt>0</asrwt>
<pdfrwt beam="1">  1        2 0.67926531E+00 0.20041938E+04</pdfrwt>
<pdfrwt beam="2">  1       -1 0.34990754E-01 0.20041938E+04</pdfrwt>
<totfact> 0.12375320E+00</totfact>
</mgrwt>
</event>
<event>
12    7  0.1661464E-007  0.2009313E+04  0.7818608E-02  0.8602279E-01
          2   -1    0    0  501    0  0.00000000000E+00  0.00000000000E+00  0.12159116260E+04  0.12159116260E+04  0.00000000000E+00 0. -1.
         -1   -1    0    0    0  501 -0.00000000000E+00 -0.00000000000E+00 -0.83010496379E+03  0.83010496379E+03  0.00000000000E+00 0.  1.
         24    2    1    2    0    0 -0.33691376251E+03  0.33310078048E+03 -0.50276308605E+03  0.69511429917E+03  0.77111314882E+02 0.  0.
        254    2    1    2    0    0  0.33691376251E+03 -0.33310078048E+03  0.88856974829E+03  0.13509022907E+04  0.90050751689E+03 0.  0.
         23    2    4    4    0    0  0.42942308127E+03 -0.50534272852E+03  0.91398900783E+03  0.11332258472E+04  0.95128640653E+02 0.  0.
         23    2    4    4    0    0 -0.92509318762E+02  0.17224194804E+03 -0.25419259542E+02  0.21767644347E+03  0.92258509458E+02 0.  0.
          4    1    3    3  502    0 -0.30999412874E+02  0.16256529086E+02 -0.15432643449E+02  0.38254474513E+02  0.00000000000E+00 0. -1.
         -3    1    3    3    0  502 -0.30591434964E+03  0.31684425140E+03 -0.48733044261E+03  0.65685982466E+03  0.00000000000E+00 0.  1.
         13    1    5    5    0    0  0.38100653636E+03 -0.48251112043E+03  0.81749901193E+03  0.10228820052E+04  0.00000000000E+00 0.  1.
        -13    1    5    5    0    0  0.48416544918E+02 -0.22831608088E+02  0.96489995900E+02  0.11034384196E+03  0.00000000000E+00 0. -1.
          4    1    6    6  503    0 -0.10874363280E+03  0.13183264774E+03 -0.31284921509E+02  0.17373477199E+03  0.00000000000E+00 0. -1.
         -4    1    6    6    0  503  0.16234314038E+02  0.40409300291E+02  0.58656619669E+01  0.43941671481E+02  0.00000000000E+00 0.  1.
<mgrwt>
<rscale>  0 0.20093126E+04</rscale>
<asrwt>0</asrwt>
<pdfrwt beam="1">  1        2 0.18706333E+00 0.20093126E+04</pdfrwt>
<pdfrwt beam="2">  1       -1 0.12770846E+00 0.20093126E+04</pdfrwt>
<totfact> 0.10403965E+01</totfact>
</mgrwt>
</event>
<event>
12    7  0.1661464E-007  0.2569167E+04  0.7818608E-02  0.8378751E-01
         -1   -1    0    0    0  501 -0.00000000000E+00  0.00000000000E+00  0.76597738733E+03  0.76597738733E+03  0.00000000000E+00 0.  1.
          2   -1    0    0  501    0  0.00000000000E+00 -0.00000000000E+00 -0.21543121320E+04  0.21543121320E+04  0.00000000000E+00 0. -1.
         24    2    1    2    0    0  0.12389534924E+03  0.10732067602E+04 -0.94949542114E+03  0.14404807956E+04  0.79501949436E+02 0.  0.
        254    2    1    2    0    0 -0.12389534924E+03 -0.10732067602E+04 -0.43883932357E+03  0.14798087238E+04  0.91111530512E+03 0.  0.
         23    2    4    4    0    0 -0.10752037117E+03 -0.34278674714E+03  0.26995368792E+03  0.45789997316E+03  0.87943206482E+02 0.  0.
         23    2    4    4    0    0 -0.16374978070E+02 -0.73042001309E+03 -0.70879301149E+03  0.10219087506E+04  0.90157783800E+02 0.  0.
          4    1    3    3  502    0  0.23537325006E+02  0.84976498588E+02 -0.56118937555E+02  0.10451959689E+03  0.00000000000E+00 0. -1.
         -3    1    3    3    0  502  0.10035802423E+03  0.98823026165E+03 -0.89337648358E+03  0.13359611987E+04  0.00000000000E+00 0.  1.
         13    1    5    5    0    0 -0.11387378759E+03 -0.33985710442E+03  0.27271177112E+03  0.45037961881E+03  0.00000000000E+00 0. -1.
        -13    1    5    5    0    0  0.63534164184E+01 -0.29296427212E+01 -0.27580832055E+01  0.75203543553E+01  0.00000000000E+00 0.  1.
          2    1    6    6  503    0  0.17474833195E+02 -0.56797653133E+03 -0.51629916477E+03  0.76776789297E+03  0.00000000000E+00 0. -1.
         -2    1    6    6    0  503 -0.33849811266E+02 -0.16244348176E+03 -0.19249384672E+03  0.25414085763E+03  0.00000000000E+00 0.  1.
<mgrwt>
<rscale>  0 0.25691667E+04</rscale>
<asrwt>0</asrwt>
<pdfrwt beam="1">  1        2 0.33143263E+00 0.25691667E+04</pdfrwt>
<pdfrwt beam="2">  1       -1 0.11784268E+00 0.25691667E+04</pdfrwt>
<totfact> 0.35760432E+00</totfact>
</mgrwt>
</event>
<event>
12    7  0.1661464E-007  0.1052793E+04  0.7818608E-02  0.9252465E-01
          2   -1    0    0  501    0  0.00000000000E+00  0.00000000000E+00  0.87148718431E+03  0.87148718431E+03  0.00000000000E+00 0. -1.
         -1   -1    0    0    0  501 -0.00000000000E+00 -0.00000000000E+00 -0.31795454774E+03  0.31795454774E+03  0.00000000000E+00 0.  1.
         24    2    1    2    0    0 -0.10014156153E+03 -0.49990749099E+02  0.18638890077E+03  0.23079281223E+03  0.77440896845E+02 0.  0.
        254    2    1    2    0    0  0.10014156153E+03  0.49990749099E+02  0.36714373580E+03  0.95864891983E+03  0.87845649944E+03 0.  0.
         23    2    4    4    0    0 -0.71591104129E+02 -0.14545716957E+03 -0.23375558311E+03  0.29743275937E+03  0.86841806408E+02 0.  0.
         23    2    4    4    0    0  0.17173266566E+03  0.19544791866E+03  0.60089931891E+03  0.66121616046E+03  0.91841287102E+02 0.  0.
          4    1    3    3  502    0 -0.10813261482E+03 -0.59661989695E+02  0.16716084995E+03  0.20783398461E+03  0.00000000000E+00 0. -1.
         -3    1    3    3    0  502  0.79910532873E+01  0.96712405968E+01  0.19228050826E+02  0.22958827624E+02  0.00000000000E+00 0.  1.
         13    1    5    5    0    0 -0.39513007964E+02 -0.10667200310E+02 -0.28827601351E+02  0.50060938470E+02  0.00000000000E+00 0.  1.
        -13    1    5    5    0    0 -0.32078096166E+02 -0.13478996926E+03 -0.20492798176E+03  0.24737182090E+03  0.00000000000E+00 0. -1.
          3    1    6    6  503    0  0.89853068492E+02  0.16226309213E+03  0.44336457843E+03  0.48059862088E+03  0.00000000000E+00 0. -1.
         -3    1    6    6    0  503  0.81879597169E+02  0.33184826535E+02  0.15753474048E+03  0.18061753958E+03  0.00000000000E+00 0.  1.
<mgrwt>
<rscale>  0 0.10527931E+04</rscale>
<asrwt>0</asrwt>
<pdfrwt beam="1">  1        2 0.13407495E+00 0.10527931E+04</pdfrwt>
<pdfrwt beam="2">  1       -1 0.48916085E-01 0.10527931E+04</pdfrwt>
<totfact> 0.14572048E+02</totfact>
</mgrwt>
</event>
<event>
12    7  0.1661464E-007  0.2564929E+04  0.7818608E-02  0.8380212E-01
          2   -1    0    0  501    0  0.00000000000E+00  0.00000000000E+00  0.95860005389E+03  0.95860005389E+03  0.00000000000E+00 0. -1.
         -3   -1    0    0    0  501 -0.00000000000E+00 -0.00000000000E+00 -0.17157475077E+04  0.17157475077E+04  0.00000000000E+00 0.  1.
         24    2    1    2    0    0  0.85984363325E+03  0.27409648485E+02  0.42724900972E+03  0.96390432310E+03  0.80544803077E+02 0.  0.
        254    2    1    2    0    0 -0.85984363325E+03 -0.27409648485E+02 -0.11843964636E+04  0.17104432385E+04  0.88472522676E+03 0.  0.
         23    2    4    4    0    0  0.14434381308E+03  0.77534426429E+02 -0.58653396402E+02  0.19554252406E+03  0.89162403215E+02 0.  0.
         23    2    4    4    0    0 -0.10041874463E+04 -0.10494407491E+03 -0.11257430672E+04  0.15149007145E+04  0.90669924541E+02 0.  0.
          4    1    3    3  502    0  0.68720176286E+03  0.39802726235E+02  0.37064275530E+03  0.78179701454E+03  0.00000000000E+00 0. -1.
         -3    1    3    3    0  502  0.17264187040E+03 -0.12393077750E+02  0.56606254420E+02  0.18210730855E+03  0.00000000000E+00 0.  1.
         13    1    5    5    0    0  0.19535140717E+02  0.39072542417E+02  0.14277963773E+02  0.45958084635E+02  0.00000000000E+00 0.  1.
        -13    1    5    5    0    0  0.12480867237E+03  0.38461884011E+02 -0.72931360175E+02  0.14958443942E+03  0.00000000000E+00 0. -1.
          1    1    6    6  503    0 -0.81173445535E+03 -0.60685453067E+02 -0.86446533500E+03  0.11873903594E+04  0.00000000000E+00 0. -1.
         -1    1    6    6    0  503 -0.19245299098E+03 -0.44258621847E+02 -0.26127773217E+03  0.32751035507E+03  0.00000000000E+00 0.  1.
<mgrwt>
<rscale>  0 0.25649294E+04</rscale>
<asrwt>0</asrwt>
<pdfrwt beam="1">  1        2 0.14747693E+00 0.25649294E+04</pdfrwt>
<pdfrwt beam="2">  1       -3 0.26396116E+00 0.25649294E+04</pdfrwt>
<totfact> 0.90554911E-01</totfact>
</mgrwt>
</event>
<event>
12    7  0.1661464E-007  0.3451508E+04  0.7818608E-02  0.8125379E-01
          2   -1    0    0  501    0  0.00000000000E+00  0.00000000000E+00  0.18898942584E+04  0.18898942584E+04  0.00000000000E+00 0. -1.
         -1   -1    0    0    0  501 -0.00000000000E+00 -0.00000000000E+00 -0.15758691324E+04  0.15758691324E+04  0.00000000000E+00 0.  1.
         24    2    1    2    0    0  0.12921237045E+04 -0.82647179314E+03 -0.31397264522E+03  0.15676425512E+04  0.79278331166E+02 0.  0.
        254    2    1    2    0    0 -0.12921237045E+04  0.82647179314E+03  0.62799777120E+03  0.18981208397E+04  0.92511741357E+03 0.  0.
         23    2    4    4    0    0 -0.55925171987E+03  0.84555040347E+03  0.17728449392E+03  0.10325994750E+04  0.84344016404E+02 0.  0.
         23    2    4    4    0    0 -0.73287198460E+03 -0.19078610326E+02  0.45071327728E+03  0.86552136463E+03  0.92300786225E+02 0.  0.
          2    1    3    3  502    0  0.17475345424E+03 -0.13200336052E+03 -0.22652007282E+02  0.22017440903E+03  0.00000000000E+00 0. -1.
         -1    1    3    3    0  502  0.11173702502E+04 -0.69446843262E+03 -0.29132063793E+03  0.13474681421E+04  0.00000000000E+00 0.  1.
         13    1    5    5    0    0 -0.22554779271E+03  0.35284965476E+03  0.11496730948E+03  0.43427199761E+03  0.00000000000E+00 0.  1.
        -13    1    5    5    0    0 -0.33370392716E+03  0.49270074871E+03  0.62317184439E+02  0.59832747744E+03  0.00000000000E+00 0. -1.
          4    1    6    6  503    0 -0.13741670727E+01 -0.33305376115E+01  0.11720796303E+02  0.12262050477E+02  0.00000000000E+00 0. -1.
         -4    1    6    6    0  503 -0.73149781752E+03 -0.15748072714E+02  0.43899248098E+03  0.85325931415E+03  0.00000000000E+00 0.  1.
<mgrwt>
<rscale>  0 0.34515075E+04</rscale>
<asrwt>0</asrwt>
<pdfrwt beam="1">  1        2 0.29075296E+00 0.34515075E+04</pdfrwt>
<pdfrwt beam="2">  1       -1 0.24244140E+00 0.34515075E+04</pdfrwt>
<totfact> 0.56411791E-01</totfact>
</mgrwt>
</event>
<event>
12    7  0.1661464E-007  0.2711875E+04  0.7818608E-02  0.8331162E-01
         -1   -1    0    0    0  501 -0.00000000000E+00  0.00000000000E+00  0.93244592706E+03  0.93244592706E+03  0.00000000000E+00 0.  1.
          2   -1    0    0  501    0  0.00000000000E+00 -0.00000000000E+00 -0.19717669139E+04  0.19717669139E+04  0.00000000000E+00 0. -1.
         24    2    1    2    0    0 -0.10348489072E+04 -0.59283808715E+03 -0.65574776538E+03  0.13629578860E+04  0.72662293961E+02 0.  0.
        254    2    1    2    0    0  0.10348489072E+04  0.59283808715E+03 -0.38357322148E+03  0.15412549549E+04  0.89775785242E+03 0.  0.
         23    2    4    4    0    0  0.63678192285E+03  0.62438146668E+03  0.10688637729E+03  0.90273145196E+03  0.90310262479E+02 0.  0.
         23    2    4    4    0    0  0.39806698436E+03 -0.31543379530E+02 -0.49045959877E+03  0.63852350299E+03  0.87802830305E+02 0.  0.
          4    1    3    3  502    0 -0.97782090088E+03 -0.57391775083E+03 -0.63421035203E+03  0.12991297355E+04  0.00000000000E+00 0. -1.
         -3    1    3    3    0  502 -0.57028006330E+02 -0.18920336322E+02 -0.21537413348E+02  0.63828150579E+02  0.00000000000E+00 0.  1.
         13    1    5    5    0    0  0.43324115681E+02  0.77215624735E+02  0.20779434852E+02  0.90945129697E+02  0.00000000000E+00 0.  1.
        -13    1    5    5    0    0  0.59345780717E+03  0.54716584194E+03  0.86106942442E+02  0.81178632227E+03  0.00000000000E+00 0. -1.
          4    1    6    6  503    0  0.37523404438E+03 -0.41335743467E+02 -0.42468631531E+03  0.56821448253E+03  0.00000000000E+00 0. -1.
         -4    1    6    6    0  503  0.22832939978E+02  0.97923639372E+01 -0.65773283462E+02  0.70309020452E+02  0.00000000000E+00 0.  1.
<mgrwt>
<rscale>  0 0.27118746E+04</rscale>
<asrwt>0</asrwt>
<pdfrwt beam="1">  1        2 0.30334876E+00 0.27118746E+04</pdfrwt>
<pdfrwt beam="2">  1       -1 0.14345322E+00 0.27118746E+04</pdfrwt>
<totfact> 0.27154439E+00</totfact>
</mgrwt>
</event>
<event>
12    7  0.1661464E-007  0.1469919E+04  0.7818608E-02  0.8904706E-01
         -3   -1    0    0    0  501 -0.00000000000E+00  0.00000000000E+00  0.13642286752E+04  0.13642286752E+04  0.00000000000E+00 0.  1.
          2   -1    0    0  501    0  0.00000000000E+00 -0.00000000000E+00 -0.39594958978E+03  0.39594958978E+03  0.00000000000E+00 0. -1.
         24    2    1    2    0    0  0.78020622086E+01 -0.39210844709E+03  0.57290202867E+03  0.69870014550E+03  0.78455416704E+02 0.  0.
        254    2    1    2    0    0 -0.78020622086E+01  0.39210844709E+03  0.39537705676E+03  0.10614781195E+04  0.90366081840E+03 0.  0.
         23    2    4    4    0    0  0.41569797847E+03  0.33933138551E+03  0.18089623668E+03  0.57375388282E+03  0.92300981123E+02 0.  0.
         23    2    4    4    0    0 -0.42350004067E+03  0.52777061575E+02  0.21448082008E+03  0.48772423667E+03  0.98667148430E+02 0.  0.
          4    1    3    3  502    0  0.24312786970E+02 -0.37349989444E+03  0.52553849459E+03  0.64520073780E+03  0.00000000000E+00 0. -1.
         -3    1    3    3    0  502 -0.16510724762E+02 -0.18608552651E+02  0.47363534081E+02  0.53499407703E+02  0.00000000000E+00 0.  1.
         13    1    5    5    0    0  0.37185293171E+03  0.27753261935E+03  0.12796746444E+03  0.48132590786E+03  0.00000000000E+00 0.  1.
        -13    1    5    5    0    0  0.43845046754E+02  0.61798766161E+02  0.52928772246E+02  0.92427974961E+02  0.00000000000E+00 0. -1.
          4    1    6    6  503    0 -0.21750702708E+03 -0.21075361102E+02  0.93626385368E+02  0.23773804431E+03  0.00000000000E+00 0. -1.
         -4    1    6    6    0  503 -0.20599301360E+03  0.73852422676E+02  0.12085443471E+03  0.24998619237E+03  0.00000000000E+00 0.  1.
<mgrwt>
<rscale>  0 0.14699194E+04</rscale>
<asrwt>0</asrwt>
<pdfrwt beam="1">  1        2 0.60915322E-01 0.14699194E+04</pdfrwt>
<pdfrwt beam="2">  1       -3 0.20988133E+00 0.14699194E+04</pdfrwt>
<totfact> 0.61766077E+00</totfact>
</mgrwt>
</event>
<event>
12    7  0.1661464E-007  0.1757022E+04  0.7818608E-02  0.8729495E-01
         -1   -1    0    0    0  501 -0.00000000000E+00  0.00000000000E+00  0.37692475722E+03  0.37692475722E+03  0.00000000000E+00 0.  1.
          2   -1    0    0  501    0  0.00000000000E+00 -0.00000000000E+00 -0.20475741482E+04  0.20475741482E+04  0.00000000000E+00 0. -1.
         24    2    1    2    0    0 -0.93570937147E+02 -0.14132933064E+03 -0.14814440734E+04  0.14931649702E+04  0.78329978984E+02 0.  0.
        254    2    1    2    0    0  0.93570937147E+02  0.14132933064E+03 -0.18920531763E+03  0.93133393527E+03  0.89602162183E+03 0.  0.
         23    2    4    4    0    0 -0.70552842753E+02 -0.24607023438E+03 -0.37441091262E+03  0.46281135189E+03  0.92100771353E+02 0.  0.
         23    2    4    4    0    0  0.16412377990E+03  0.38739956501E+03  0.18520559500E+03  0.46852258338E+03  0.90538724396E+02 0.  0.
          2    1    3    3  502    0 -0.24766395737E+02 -0.98692139883E+02 -0.97471171876E+03  0.98000839155E+03  0.00000000000E+00 0. -1.
         -1    1    3    3    0  502 -0.68804541410E+02 -0.42637190755E+02 -0.50673235463E+03  0.51315657862E+03  0.00000000000E+00 0.  1.
         13    1    5    5    0    0 -0.82691503205E+02 -0.14598212908E+03 -0.19707683703E+03  0.25882029752E+03  0.00000000000E+00 0.  1.
        -13    1    5    5    0    0  0.12138660453E+02 -0.10008810530E+03 -0.17733407559E+03  0.20399105438E+03  0.00000000000E+00 0. -1.
          2    1    6    6  503    0  0.16097741478E+03  0.32953579101E+03  0.13179711244E+03  0.38971533775E+03  0.00000000000E+00 0.  1.
         -2    1    6    6    0  503  0.31463651223E+01  0.57863774002E+02  0.53408482556E+02  0.78807245632E+02  0.00000000000E+00 0. -1.
<mgrwt>
<rscale>  0 0.17570218E+04</rscale>
<asrwt>0</asrwt>
<pdfrwt beam="1">  1        2 0.31501141E+00 0.17570218E+04</pdfrwt>
<pdfrwt beam="2">  1       -1 0.57988423E-01 0.17570218E+04</pdfrwt>
<totfact> 0.20432316E+01</totfact>
</mgrwt>
</event>
<event>
12    7  0.1661464E-007  0.1161157E+04  0.7818608E-02  0.9147552E-01
          2   -1    0    0  501    0  0.00000000000E+00  0.00000000000E+00  0.15157056960E+04  0.15157056960E+04  0.00000000000E+00 0. -1.
         -1   -1    0    0    0  501 -0.00000000000E+00 -0.00000000000E+00 -0.22238594451E+03  0.22238594451E+03  0.00000000000E+00 0.  1.
         24    2    1    2    0    0  0.14608392479E+03 -0.50640719107E+02  0.19134373764E+02  0.17483005656E+03  0.79337436972E+02 0.  0.
        254    2    1    2    0    0 -0.14608392479E+03  0.50640719107E+02  0.12741853777E+04  0.15632615839E+04  0.89237514955E+03 0.  0.
         23    2    4    4    0    0 -0.86867621422E+02  0.24884077077E+03  0.11276244978E+02  0.28026547728E+03  0.94624897391E+02 0.  0.
         23    2    4    4    0    0 -0.59216303363E+02 -0.19820005166E+03  0.12629091327E+04  0.12829961067E+04  0.91376698904E+02 0.  0.
          2    1    3    3  502    0  0.29812646982E+02  0.93932736413E+01  0.30256926539E+02  0.43502978212E+02  0.00000000000E+00 0. -1.
         -1    1    3    3    0  502  0.11627127780E+03 -0.60033992748E+02 -0.11122552775E+02  0.13132707835E+03  0.00000000000E+00 0.  1.
         13    1    5    5    0    0 -0.10201428621E+03  0.15940692327E+03  0.10678576040E+02  0.18955609661E+03  0.00000000000E+00 0. -1.
        -13    1    5    5    0    0  0.15146664788E+02  0.89433847502E+02  0.59766893813E+00  0.90709380669E+02  0.00000000000E+00 0.  1.
          3    1    6    6  503    0 -0.91022911696E+01 -0.10996541133E+03  0.87917231976E+03  0.88606952957E+03  0.00000000000E+00 0. -1.
         -3    1    6    6    0  503 -0.50114012193E+02 -0.88234640336E+02  0.38373681296E+03  0.39692657709E+03  0.00000000000E+00 0.  1.
<mgrwt>
<rscale>  0 0.11611574E+04</rscale>
<asrwt>0</asrwt>
<pdfrwt beam="1">  1        2 0.23318549E+00 0.11611574E+04</pdfrwt>
<pdfrwt beam="2">  1       -1 0.34213223E-01 0.11611574E+04</pdfrwt>
<totfact> 0.11323497E+02</totfact>
</mgrwt>
</event>
<event>
12    7  0.1661464E-007  0.1305754E+04  0.7818608E-02  0.9025014E-01
          2   -1    0    0  501    0  0.00000000000E+00  0.00000000000E+00  0.25832754981E+04  0.25832754981E+04  0.00000000000E+00 0. -1.
         -1   -1    0    0    0  501 -0.00000000000E+00 -0.00000000000E+00 -0.16500310291E+03  0.16500310291E+03  0.00000000000E+00 0.  1.
         24    2    1    2    0    0  0.26609100699E+03 -0.21006463973E+03  0.69136482996E+03  0.77463833876E+03  0.84543780949E+02 0.  0.
        254    2    1    2    0    0 -0.26609100699E+03  0.21006463973E+03  0.17269075652E+04  0.19736402623E+04  0.89337258134E+03 0.  0.
         23    2    4    4    0    0 -0.22568949730E+02  0.49925375524E+03  0.12999224093E+04  0.13953982707E+04  0.87030994237E+02 0.  0.
         23    2    4    4    0    0 -0.24352205726E+03 -0.28918911551E+03  0.42698515590E+03  0.57824199157E+03  0.95468008027E+02 0.  0.
          4    1    3    3  502    0  0.24094172596E+03 -0.16606346985E+03  0.52893172583E+03  0.60448222630E+03  0.00000000000E+00 0. -1.
         -3    1    3    3    0  502  0.25149281029E+02 -0.44001169885E+02  0.16243310414E+03  0.17015611246E+03  0.00000000000E+00 0.  1.
         13    1    5    5    0    0  0.25697581454E+02  0.17423698805E+03  0.38856153324E+03  0.42661335986E+03  0.00000000000E+00 0. -1.
        -13    1    5    5    0    0 -0.48266531184E+02  0.32501676719E+03  0.91136087608E+03  0.96878491082E+03  0.00000000000E+00 0.  1.
          4    1    6    6  503    0 -0.88041716403E+02 -0.42436403274E+02  0.94210983572E+02  0.13574940728E+03  0.00000000000E+00 0. -1.
         -4    1    6    6    0  503 -0.15548034085E+03 -0.24675271223E+03  0.33277417233E+03  0.44249258430E+03  0.00000000000E+00 0.  1.
<mgrwt>
<rscale>  0 0.13057541E+04</rscale>
<asrwt>0</asrwt>
<pdfrwt beam="1">  1        2 0.39742697E+00 0.13057541E+04</pdfrwt>
<pdfrwt beam="2">  1       -1 0.25385095E-01 0.13057541E+04</pdfrwt>
<totfact> 0.47660824E+01</totfact>
</mgrwt>
</event>
<event>
12    7  0.1661464E-007  0.5026567E+04  0.7818608E-02  0.7824422E-01
         -1   -1    0    0    0  501 -0.00000000000E+00  0.00000000000E+00  0.16748502440E+04  0.16748502440E+04  0.00000000000E+00 0.  1.
          2   -1    0    0  501    0  0.00000000000E+00 -0.00000000000E+00 -0.37714385018E+04  0.37714385018E+04  0.00000000000E+00 0. -1.
         24    2    1    2    0    0  0.10720396855E+04 -0.62433736579E+03 -0.32809059092E+04  0.35085990731E+04  0.82810848072E+02 0.  0.
        254    2    1    2    0    0 -0.10720396855E+04  0.62433736579E+03  0.11843176515E+04  0.19376896727E+04  0.90164667944E+03 0.  0.
         23    2    4    4    0    0 -0.59447566171E+03  0.16819718021E+02  0.11047050421E+03  0.61165919094E+03  0.90769038114E+02 0.  0.
         23    2    4    4    0    0 -0.47756402383E+03  0.60751764777E+03  0.10738471473E+04  0.13260304818E+04  0.89800076611E+02 0.  0.
          4    1    3    3  502    0  0.10231860849E+04 -0.61443951999E+03 -0.31511625048E+04  0.33696098914E+04  0.00000000000E+00 0. -1.
         -3    1    3    3    0  502  0.48853600590E+02 -0.98978458081E+01 -0.12974340441E+03  0.13898918171E+03  0.00000000000E+00 0.  1.
         13    1    5    5    0    0 -0.29961348970E+02 -0.11852465141E+02 -0.99704774724E+01  0.33727937723E+02  0.00000000000E+00 0. -1.
        -13    1    5    5    0    0 -0.56451431274E+03  0.28672183162E+02  0.12044098168E+03  0.57793125322E+03  0.00000000000E+00 0.  1.
          4    1    6    6  503    0 -0.86366359963E+02  0.15323577317E+03  0.29048031308E+03  0.33958675269E+03  0.00000000000E+00 0. -1.
         -4    1    6    6    0  503 -0.39119766386E+03  0.45428187460E+03  0.78336683418E+03  0.98644372911E+03  0.00000000000E+00 0.  1.
<mgrwt>
<rscale>  0 0.50265673E+04</rscale>
<asrwt>0</asrwt>
<pdfrwt beam="1">  1        2 0.58022131E+00 0.50265673E+04</pdfrwt>
<pdfrwt beam="2">  1       -1 0.25766927E+00 0.50265673E+04</pdfrwt>
<totfact> 0.26367380E-02</totfact>
</mgrwt>
</event>
<event>
12    7  0.1661464E-007  0.3009608E+04  0.7818608E-02  0.8240993E-01
         -1   -1    0    0    0  501 -0.00000000000E+00  0.00000000000E+00  0.83177912047E+03  0.83177912047E+03  0.00000000000E+00 0.  1.
          2   -1    0    0  501    0  0.00000000000E+00 -0.00000000000E+00 -0.27223987250E+04  0.27223987250E+04  0.00000000000E+00 0. -1.
         24    2    1    2    0    0 -0.31982404018E+03 -0.42716934162E+03  0.62582418318E+03  0.82669941590E+03  0.83755315600E+02 0.  0.
        254    2    1    2    0    0  0.31982404018E+03  0.42716934162E+03 -0.25164437877E+04  0.27274784296E+04  0.90658048953E+03 0.  0.
         23    2    4    4    0    0  0.16544757618E+03  0.16225556080E+03 -0.23571163882E+04  0.23701093985E+04  0.87869937395E+02 0.  0.
         23    2    4    4    0    0  0.15437646400E+03  0.26491378082E+03 -0.15932739948E+03  0.35736903104E+03  0.91192106103E+02 0.  0.
          2    1    3    3  502    0  0.38032522126E+01 -0.10625610030E+02  0.59229223081E+01  0.12745560975E+02  0.00000000000E+00 0. -1.
         -1    1    3    3    0  502 -0.32362729240E+03 -0.41654373158E+03  0.61990126087E+03  0.81395385492E+03  0.00000000000E+00 0.  1.
         13    1    5    5    0    0  0.65795008771E+02  0.31500667400E+02 -0.44507654310E+03  0.45101486056E+03  0.00000000000E+00 0. -1.
        -13    1    5    5    0    0  0.99652567411E+02  0.13075489340E+03 -0.19120398451E+04  0.19190945380E+04  0.00000000000E+00 0.  1.
          3    1    6    6  503    0 -0.22053177327E+01  0.69174225362E+02 -0.33080706543E+02  0.76708995731E+02  0.00000000000E+00 0. -1.
         -3    1    6    6    0  503  0.15658178173E+03  0.19573955546E+03 -0.12624669294E+03  0.28066003531E+03  0.00000000000E+00 0.  1.
<mgrwt>
<rscale>  0 0.30096076E+04</rscale>
<asrwt>0</asrwt>
<pdfrwt beam="1">  1        2 0.41883058E+00 0.30096076E+04</pdfrwt>
<pdfrwt beam="2">  1       -1 0.12796602E+00 0.30096076E+04</pdfrwt>
<totfact> 0.13202636E+00</totfact>
</mgrwt>
</event>
<event>
12    7  0.1661464E-007  0.2207149E+04  0.7818608E-02  0.8515458E-01
         -1   -1    0    0    0  501 -0.00000000000E+00  0.00000000000E+00  0.15895153690E+04  0.15895153690E+04  0.00000000000E+00 0.  1.
          2   -1    0    0  501    0  0.00000000000E+00 -0.00000000000E+00 -0.76619404295E+03  0.76619404295E+03  0.00000000000E+00 0. -1.
         24    2    1    2    0    0  0.70230613637E+03  0.44239193278E+03  0.76268062284E+03  0.11305448271E+04  0.86633377734E+02 0.  0.
        254    2    1    2    0    0 -0.70230613637E+03 -0.44239193278E+03  0.60640703197E+02  0.12251645849E+04  0.89911424959E+03 0.  0.
         23    2    4    4    0    0 -0.26216394657E+03 -0.21194654987E+03  0.46348265448E+03  0.57891117038E+03  0.81674336839E+02 0.  0.
         23    2    4    4    0    0 -0.44014218980E+03 -0.23044538291E+03 -0.40284195128E+03  0.64625341452E+03  0.92366749000E+02 0.  0.
          4    1    3    3  502    0  0.23189138929E+03  0.19228870499E+03  0.25639252351E+03  0.39558272031E+03  0.00000000000E+00 0. -1.
         -3    1    3    3    0  502  0.47041474709E+03  0.25010322779E+03  0.50628809933E+03  0.73496210674E+03  0.00000000000E+00 0.  1.
         13    1    5    5    0    0 -0.12887307468E+03 -0.13497102206E+03  0.19835130770E+03  0.27233928736E+03  0.00000000000E+00 0. -1.
        -13    1    5    5    0    0 -0.13329087189E+03 -0.76975527815E+02  0.26513134677E+03  0.30657188301E+03  0.00000000000E+00 0.  1.
          4    1    6    6  503    0 -0.23504105958E+03 -0.86045572446E+02 -0.24279740571E+03  0.34871008079E+03  0.00000000000E+00 0. -1.
         -4    1    6    6    0  503 -0.20510113022E+03 -0.14439981046E+03 -0.16004454557E+03  0.29754333372E+03  0.00000000000E+00 0.  1.
<mgrwt>
<rscale>  0 0.22071495E+04</rscale>
<asrwt>0</asrwt>
<pdfrwt beam="1">  1        2 0.11787601E+00 0.22071495E+04</pdfrwt>
<pdfrwt beam="2">  1       -1 0.24454083E+00 0.22071495E+04</pdfrwt>
<totfact> 0.28773514E+00</totfact>
</mgrwt>
</event>
<event>
12    7  0.1661464E-007  0.1459188E+04  0.7818608E-02  0.8912055E-01
         -1   -1    0    0    0  501 -0.00000000000E+00  0.00000000000E+00  0.91653940247E+03  0.91653940247E+03  0.00000000000E+00 0.  1.
          2   -1    0    0  501    0  0.00000000000E+00 -0.00000000000E+00 -0.58077987812E+03  0.58077987812E+03  0.00000000000E+00 0. -1.
         24    2    1    2    0    0  0.22738518820E+03  0.34466095717E+03 -0.73644982732E+02  0.42706843511E+03  0.80428014874E+02 0.  0.
        254    2    1    2    0    0 -0.22738518820E+03 -0.34466095717E+03  0.40940450709E+03  0.10702508455E+04  0.89851523226E+03 0.  0.
         23    2    4    4    0    0  0.26612394125E+03 -0.39239101380E+03  0.16588178353E+03  0.51043754506E+03  0.90758258484E+02 0.  0.
         23    2    4    4    0    0 -0.49350912945E+03  0.47730056627E+02  0.24352272356E+03  0.55981330041E+03  0.90874612880E+02 0.  0.
          4    1    3    3  502    0  0.19620632512E+03  0.23555057490E+03 -0.64075597400E+02  0.31318792686E+03  0.00000000000E+00 0. -1.
         -3    1    3    3    0  502  0.31178863080E+02  0.10911038228E+03 -0.95693853317E+01  0.11388050825E+03  0.00000000000E+00 0.  1.
         13    1    5    5    0    0 -0.32899412517E+01 -0.11436738574E+02 -0.58283044873E+01  0.13251106966E+02  0.00000000000E+00 0. -1.
        -13    1    5    5    0    0  0.26941388251E+03 -0.38095427523E+03  0.17171008801E+03  0.49718643810E+03  0.00000000000E+00 0.  1.
          1    1    6    6  503    0 -0.53464734653E+02  0.21249468208E+02  0.57472168752E+02  0.81320771835E+02  0.00000000000E+00 0. -1.
         -1    1    6    6    0  503 -0.44004439480E+03  0.26480588419E+02  0.18605055481E+03  0.47849252857E+03  0.00000000000E+00 0.  1.
<mgrwt>
<rscale>  0 0.14591883E+04</rscale>
<asrwt>0</asrwt>
<pdfrwt beam="1">  1        2 0.89350751E-01 0.14591883E+04</pdfrwt>
<pdfrwt beam="2">  1       -1 0.14100606E+00 0.14591883E+04</pdfrwt>
<totfact> 0.23505468E+01</totfact>
</mgrwt>
</event>
<event>
12    7  0.1661464E-007  0.1846891E+04  0.7818608E-02  0.8681753E-01
          2   -1    0    0  501    0  0.00000000000E+00  0.00000000000E+00  0.90507390592E+03  0.90507390592E+03  0.00000000000E+00 0. -1.
         -1   -1    0    0    0  501 -0.00000000000E+00 -0.00000000000E+00 -0.94218979006E+03  0.94218979006E+03  0.00000000000E+00 0.  1.
         24    2    1    2    0    0 -0.18327009723E+03  0.61474221580E+03  0.25129569154E+03  0.69366924347E+03  0.80818155857E+02 0.  0.
        254    2    1    2    0    0  0.18327009723E+03 -0.61474221580E+03 -0.28841157567E+03  0.11535944525E+04  0.91438668159E+03 0.  0.
         23    2    4    4    0    0  0.18027042715E+03  0.18804427174E+02 -0.45133303418E+03  0.49317238625E+03  0.81648401282E+02 0.  0.
         23    2    4    4    0    0  0.29996700763E+01 -0.63354664298E+03  0.16292145851E+03  0.66042206626E+03  0.90683830527E+02 0.  0.
          2    1    3    3  502    0 -0.15353083448E+03  0.42873380853E+03  0.20660289365E+03  0.50006914660E+03  0.00000000000E+00 0. -1.
         -1    1    3    3    0  502 -0.29739262745E+02  0.18600840727E+03  0.44692797893E+02  0.19360009687E+03  0.00000000000E+00 0.  1.
         13    1    5    5    0    0  0.64853328271E+02 -0.16769571330E+02 -0.24596338332E+03  0.25492186773E+03  0.00000000000E+00 0. -1.
        -13    1    5    5    0    0  0.11541709888E+03  0.35573998504E+02 -0.20536965086E+03  0.23825051853E+03  0.00000000000E+00 0.  1.
          2    1    6    6  503    0  0.40564864437E+02 -0.40111149465E+03  0.12384310974E+03  0.42174999134E+03  0.00000000000E+00 0. -1.
         -2    1    6    6    0  503 -0.37565194361E+02 -0.23243514833E+03  0.39078348766E+02  0.23867207493E+03  0.00000000000E+00 0.  1.
<mgrwt>
<rscale>  0 0.18468908E+04</rscale>
<asrwt>0</asrwt>
<pdfrwt beam="1">  1        2 0.13924214E+00 0.18468908E+04</pdfrwt>
<pdfrwt beam="2">  1       -1 0.14495227E+00 0.18468908E+04</pdfrwt>
<totfact> 0.11940645E+01</totfact>
</mgrwt>
</event>
<event>
12    7  0.1661464E-007  0.9864988E+03  0.7818608E-02  0.9323478E-01
          2   -1    0    0  501    0  0.00000000000E+00  0.00000000000E+00  0.22241945078E+04  0.22241945078E+04  0.00000000000E+00 0. -1.
         -1   -1    0    0    0  501 -0.00000000000E+00 -0.00000000000E+00 -0.10938565028E+03  0.10938565028E+03  0.00000000000E+00 0.  1.
         24    2    1    2    0    0 -0.78904652916E+02  0.33716042802E+02  0.27643297387E+03  0.30051930306E+03  0.80832831682E+02 0.  0.
        254    2    1    2    0    0  0.78904652916E+02 -0.33716042802E+02  0.18383758836E+04  0.20330608550E+04  0.86391425199E+03 0.  0.
         23    2    4    4    0    0  0.31235983846E+03  0.23007897495E+03  0.46949984795E+03  0.61598732126E+03  0.92224017084E+02 0.  0.
         23    2    4    4    0    0 -0.23345518555E+03 -0.26379501775E+03  0.13688760357E+04  0.14170735337E+04  0.10092900429E+03 0.  0.
          2    1    3    3  502    0 -0.28330078199E+02 -0.13885142938E+02  0.17350890305E+03  0.17635399049E+03  0.00000000000E+00 0. -1.
         -1    1    3    3    0  502 -0.50574574716E+02  0.47601185741E+02  0.10292407082E+03  0.12416531257E+03  0.00000000000E+00 0.  1.
         13    1    5    5    0    0  0.10508375902E+03  0.45516544179E+02  0.19172775744E+03  0.22332461839E+03  0.00000000000E+00 0.  1.
        -13    1    5    5    0    0  0.20727607944E+03  0.18456243077E+03  0.27777209051E+03  0.39266270287E+03  0.00000000000E+00 0. -1.
          3    1    6    6  503    0 -0.17724605907E+03 -0.13806145084E+03  0.74312411503E+03  0.77634436947E+03  0.00000000000E+00 0. -1.
         -3    1    6    6    0  503 -0.56209126475E+02 -0.12573356692E+03  0.62575192064E+03  0.64072916426E+03  0.00000000000E+00 0.  1.
<mgrwt>
<rscale>  0 0.98649878E+03</rscale>
<asrwt>0</asrwt>
<pdfrwt beam="1">  1        2 0.34218374E+00 0.98649878E+03</pdfrwt>
<pdfrwt beam="2">  1       -1 0.16828563E-01 0.98649878E+03</pdfrwt>
<totfact> 0.15637692E+02</totfact>
</mgrwt>
</event>
<event>
12    7  0.1661464E-007  0.1785864E+04  0.7818608E-02  0.8713853E-01
         -3   -1    0    0    0  501 -0.00000000000E+00  0.00000000000E+00  0.47063922027E+03  0.47063922027E+03  0.00000000000E+00 0.  1.
          2   -1    0    0  501    0  0.00000000000E+00 -0.00000000000E+00 -0.16941382082E+04  0.16941382082E+04  0.00000000000E+00 0. -1.
         24    2    1    2    0    0 -0.44886036146E+03 -0.17068678685E+03 -0.91654450241E+03  0.10377181884E+04  0.78712199006E+02 0.  0.
        254    2    1    2    0    0  0.44886036146E+03  0.17068678685E+03 -0.30695448556E+03  0.11270592401E+04  0.97233321000E+03 0.  0.
         23    2    4    4    0    0 -0.11308073085E+03 -0.23875109960E+03  0.12151204023E+03  0.30540575054E+03  0.93371073090E+02 0.  0.
         23    2    4    4    0    0  0.56194109231E+03  0.40943788645E+03 -0.42846652579E+03  0.82165348960E+03  0.90076185281E+02 0.  0.
          4    1    3    3  502    0 -0.25687489925E+03 -0.13874838304E+03 -0.54258414939E+03  0.61614396599E+03  0.00000000000E+00 0. -1.
         -3    1    3    3    0  502 -0.19198546221E+03 -0.31938403811E+02 -0.37396035302E+03  0.42157422238E+03  0.00000000000E+00 0.  1.
         13    1    5    5    0    0 -0.10033620767E+03 -0.20486373151E+03  0.13692767292E+03  0.26605580367E+03  0.00000000000E+00 0.  1.
        -13    1    5    5    0    0 -0.12744523183E+02 -0.33887368089E+02 -0.15415632684E+02  0.39349946864E+02  0.00000000000E+00 0. -1.
          3    1    6    6  503    0  0.46021092720E+03  0.31332761029E+03 -0.30386931600E+03  0.63427505870E+03  0.00000000000E+00 0. -1.
         -3    1    6    6    0  503  0.10173016511E+03  0.96110276157E+02 -0.12459720979E+03  0.18737843090E+03  0.00000000000E+00 0.  1.
<mgrwt>
<rscale>  0 0.17858644E+04</rscale>
<asrwt>0</asrwt>
<pdfrwt beam="1">  1        2 0.26063664E+00 0.17858644E+04</pdfrwt>
<pdfrwt beam="2">  1       -3 0.72406035E-01 0.17858644E+04</pdfrwt>
<totfact> 0.10815133E+01</totfact>
</mgrwt>
</event>
<event>
12    7  0.1661464E-007  0.1488499E+04  0.7818608E-02  0.8892137E-01
         -1   -1    0    0    0  501 -0.00000000000E+00  0.00000000000E+00  0.85650856458E+03  0.85650856458E+03  0.00000000000E+00 0.  1.
          2   -1    0    0  501    0  0.00000000000E+00 -0.00000000000E+00 -0.64670355542E+03  0.64670355542E+03  0.00000000000E+00 0. -1.
         24    2    1    2    0    0  0.28125232804E+03  0.22748222637E+03  0.36736980668E+03  0.52129999365E+03  0.77084844049E+02 0.  0.
        254    2    1    2    0    0 -0.28125232804E+03 -0.22748222637E+03 -0.15756479752E+03  0.98191212635E+03  0.89915166859E+03 0.  0.
         23    2    4    4    0    0  0.10308814492E+03 -0.13285428970E+03  0.30888153686E+03  0.36355271561E+03  0.92115934001E+02 0.  0.
         23    2    4    4    0    0 -0.38434047295E+03 -0.94627936668E+02 -0.46644633438E+03  0.61835941074E+03  0.90133969438E+02 0.  0.
          4    1    3    3  502    0  0.56584362400E+02  0.57040589181E+02  0.41769068229E+02  0.90554259662E+02  0.00000000000E+00 0. -1.
         -3    1    3    3    0  502  0.22466796564E+03  0.17044163719E+03  0.32560073845E+03  0.43074573399E+03  0.00000000000E+00 0.  1.
         13    1    5    5    0    0  0.17661754902E+02  0.44793567991E+01  0.87545993093E+02  0.89422050581E+02  0.00000000000E+00 0.  1.
        -13    1    5    5    0    0  0.85426390016E+02 -0.13733364650E+03  0.22133554377E+03  0.27413066503E+03  0.00000000000E+00 0. -1.
          3    1    6    6  503    0 -0.34294033298E+03 -0.52611376670E+02 -0.40035723258E+03  0.52977536996E+03  0.00000000000E+00 0. -1.
         -3    1    6    6    0  503 -0.41400139974E+02 -0.42016559998E+02 -0.66089101806E+02  0.88584040783E+02  0.00000000000E+00 0.  1.
<mgrwt>
<rscale>  0 0.14884988E+04</rscale>
<asrwt>0</asrwt>
<pdfrwt beam="1">  1        2 0.99492855E-01 0.14884988E+04</pdfrwt>
<pdfrwt beam="2">  1       -1 0.13177055E+00 0.14884988E+04</pdfrwt>
<totfact> 0.24501078E+01</totfact>
</mgrwt>
</event>
<event>
12    7  0.1661464E-007  0.2617868E+04  0.7818608E-02  0.8362157E-01
          2   -1    0    0  501    0  0.00000000000E+00  0.00000000000E+00  0.11423196929E+04  0.11423196929E+04  0.00000000000E+00 0. -1.
         -1   -1    0    0    0  501 -0.00000000000E+00 -0.00000000000E+00 -0.14998499459E+04  0.14998499459E+04  0.00000000000E+00 0.  1.
         24    2    1    2    0    0  0.10131681293E+04  0.55439003608E+02  0.39736305240E+03  0.10926621309E+04  0.80187252949E+02 0.  0.
        254    2    1    2    0    0 -0.10131681293E+04 -0.55439003608E+02 -0.75489330533E+03  0.15495075079E+04  0.89528010884E+03 0.  0.
         23    2    4    4    0    0  0.11300834609E+03  0.13735921825E+03 -0.57431760755E+02  0.20784848173E+03  0.90907332430E+02 0.  0.
         23    2    4    4    0    0 -0.11261764754E+04 -0.19279822186E+03 -0.69746154458E+03  0.13416590262E+04  0.90286922041E+02 0.  0.
          2    1    3    3  502    0  0.98656157363E+03  0.40672113327E+02  0.38658212777E+03  0.10603790364E+04  0.00000000000E+00 0. -1.
         -1    1    3    3    0  502  0.26606555658E+02  0.14766890281E+02  0.10780924637E+02  0.32283094471E+02  0.00000000000E+00 0.  1.
         13    1    5    5    0    0  0.87609161908E+02  0.11212309051E+03 -0.25435138052E+01  0.14231451837E+03  0.00000000000E+00 0.  1.
        -13    1    5    5    0    0  0.25399184185E+02  0.25236127734E+02 -0.54888246950E+02  0.65533963359E+02  0.00000000000E+00 0. -1.
          2    1    6    6  503    0 -0.40647926444E+03 -0.86369908207E+02 -0.20704284424E+03  0.46427566468E+03  0.00000000000E+00 0. -1.
         -2    1    6    6    0  503 -0.71969721094E+03 -0.10642831365E+03 -0.49041870033E+03  0.87738336149E+03  0.00000000000E+00 0.  1.
<mgrwt>
<rscale>  0 0.26178679E+04</rscale>
<asrwt>0</asrwt>
<pdfrwt beam="1">  1        2 0.17574149E+00 0.26178679E+04</pdfrwt>
<pdfrwt beam="2">  1       -1 0.23074614E+00 0.26178679E+04</pdfrwt>
<totfact> 0.19278260E+00</totfact>
</mgrwt>
</event>
<event>
12    7  0.1661464E-007  0.1681774E+04  0.7818608E-02  0.8771828E-01
          2   -1    0    0  501    0  0.00000000000E+00  0.00000000000E+00  0.71760322944E+03  0.71760322944E+03  0.00000000000E+00 0. -1.
         -1   -1    0    0    0  501 -0.00000000000E+00 -0.00000000000E+00 -0.98535054474E+03  0.98535054474E+03  0.00000000000E+00 0.  1.
         24    2    1    2    0    0 -0.22391963776E+03  0.22277541049E+03  0.41814753391E+03  0.53023545783E+03  0.80829406347E+02 0.  0.
        254    2    1    2    0    0  0.22391963776E+03 -0.22277541049E+03 -0.68589484921E+03  0.11727183164E+04  0.89724445813E+03 0.  0.
         23    2    4    4    0    0  0.10940525587E+03 -0.32931934336E+03  0.94500936421E+02  0.37149354399E+03  0.93039165480E+02 0.  0.
         23    2    4    4    0    0  0.11451438189E+03  0.10654393288E+03 -0.78039578563E+03  0.80122477237E+03  0.92078229434E+02 0.  0.
          4    1    3    3  502    0 -0.11980540302E+03  0.10697077702E+03  0.27630368337E+03  0.31959319013E+03  0.00000000000E+00 0. -1.
         -3    1    3    3    0  502 -0.10411423474E+03  0.11580463346E+03  0.14184385054E+03  0.21064226770E+03  0.00000000000E+00 0.  1.
         13    1    5    5    0    0 -0.56813042826E+01 -0.42570263717E+02 -0.12132813795E+02  0.44628575396E+02  0.00000000000E+00 0. -1.
        -13    1    5    5    0    0  0.11508656015E+03 -0.28674907965E+03  0.10663375022E+03  0.32686496859E+03  0.00000000000E+00 0.  1.
          2    1    6    6  503    0  0.12792858677E+03  0.77688504417E+02 -0.64000375368E+03  0.65727165750E+03  0.00000000000E+00 0. -1.
         -2    1    6    6    0  503 -0.13414204886E+02  0.28855428460E+02 -0.14039203195E+03  0.14395311487E+03  0.00000000000E+00 0.  1.
<mgrwt>
<rscale>  0 0.16817737E+04</rscale>
<asrwt>0</asrwt>
<pdfrwt beam="1">  1        2 0.11040050E+00 0.16817737E+04</pdfrwt>
<pdfrwt beam="2">  1       -1 0.15159239E+00 0.16817737E+04</pdfrwt>
<totfact> 0.14647337E+01</totfact>
</mgrwt>
</event>
<event>
12    7  0.1661464E-007  0.1355784E+04  0.7818608E-02  0.8986461E-01
         -1   -1    0    0    0  501 -0.00000000000E+00  0.00000000000E+00  0.21933911076E+03  0.21933911076E+03  0.00000000000E+00 0.  1.
          2   -1    0    0  501    0  0.00000000000E+00 -0.00000000000E+00 -0.20951015512E+04  0.20951015512E+04  0.00000000000E+00 0. -1.
         24    2    1    2    0    0 -0.20514369638E+03  0.17000684683E+03 -0.96961752738E+03  0.10086930583E+04  0.79481269759E+02 0.  0.
        254    2    1    2    0    0  0.20514369638E+03 -0.17000684683E+03 -0.90614491306E+03  0.13057476037E+04  0.90160520017E+03 0.  0.
         23    2    4    4    0    0 -0.28760141275E+03 -0.61041878958E+02 -0.67772870843E+03  0.74432539422E+03  0.90903281844E+02 0.  0.
         23    2    4    4    0    0  0.49274510913E+03 -0.10896496787E+03 -0.22841620463E+03  0.56142220948E+03  0.91377393045E+02 0.  0.
          2    1    3    3  502    0 -0.17364881328E+03  0.14993538570E+03 -0.90890902222E+03  0.93741673812E+03  0.00000000000E+00 0. -1.
         -1    1    3    3    0  502 -0.31494883101E+02  0.20071461132E+02 -0.60708505163E+02  0.71276320140E+02  0.00000000000E+00 0.  1.
         13    1    5    5    0    0 -0.57333797461E+02  0.21745510920E+02 -0.10648288445E+03  0.12287650816E+03  0.00000000000E+00 0.  1.
        -13    1    5    5    0    0 -0.23026761529E+03 -0.82787389878E+02 -0.57124582398E+03  0.62144888606E+03  0.00000000000E+00 0. -1.
          2    1    6    6  503    0  0.24155644345E+03 -0.22825812356E+02 -0.71372370912E+02  0.25291213575E+03  0.00000000000E+00 0. -1.
         -2    1    6    6    0  503  0.25118866569E+03 -0.86139155517E+02 -0.15704383372E+03  0.30851007373E+03  0.00000000000E+00 0.  1.
<mgrwt>
<rscale>  0 0.13557842E+04</rscale>
<asrwt>0</asrwt>
<pdfrwt beam="1">  1        2 0.32232331E+00 0.13557842E+04</pdfrwt>
<pdfrwt beam="2">  1       -1 0.33744479E-01 0.13557842E+04</pdfrwt>
<totfact> 0.54544620E+01</totfact>
</mgrwt>
</event>
<event>
12    7  0.1661464E-007  0.2323629E+04  0.7818608E-02  0.8468663E-01
          2   -1    0    0  501    0  0.00000000000E+00  0.00000000000E+00  0.30470137282E+04  0.30470137282E+04  0.00000000000E+00 0. -1.
         -1   -1    0    0    0  501 -0.00000000000E+00 -0.00000000000E+00 -0.44299520039E+03  0.44299520039E+03  0.00000000000E+00 0.  1.
         24    2    1    2    0    0 -0.16871813635E+01  0.23958904359E+03 -0.32750953416E+03  0.41310890751E+03  0.77399729388E+02 0.  0.
        254    2    1    2    0    0  0.16871813635E+01 -0.23958904359E+03  0.29315280620E+04  0.30769000211E+04  0.90335552540E+03 0.  0.
         23    2    4    4    0    0  0.40185324378E+03  0.55680317294E+02  0.10791746280E+04  0.11565039326E+04  0.91088644494E+02 0.  0.
         23    2    4    4    0    0 -0.40016606241E+03 -0.29526936088E+03  0.18523534340E+04  0.19203960885E+04  0.96907271789E+02 0.  0.
          2    1    3    3  502    0 -0.23371369995E+02  0.85756838901E+02 -0.73402878160E+02  0.11527549122E+03  0.00000000000E+00 0. -1.
         -1    1    3    3    0  502  0.21684188631E+02  0.15383220469E+03 -0.25410665600E+03  0.29783341629E+03  0.00000000000E+00 0.  1.
         13    1    5    5    0    0  0.16852532659E+03  0.37919370451E+02  0.34312785878E+03  0.38415542666E+03  0.00000000000E+00 0. -1.
        -13    1    5    5    0    0  0.23332791719E+03  0.17760946843E+02  0.73604676925E+03  0.77234850598E+03  0.00000000000E+00 0.  1.
          1    1    6    6  503    0 -0.22479028702E+03 -0.22385769384E+03  0.11745959266E+04  0.12166834144E+04  0.00000000000E+00 0. -1.
         -1    1    6    6    0  503 -0.17537577539E+03 -0.71411667045E+02  0.67775750742E+03  0.70371267407E+03  0.00000000000E+00 0.  1.
<mgrwt>
<rscale>  0 0.23236286E+04</rscale>
<asrwt>0</asrwt>
<pdfrwt beam="1">  1        2 0.46877133E+00 0.23236286E+04</pdfrwt>
<pdfrwt beam="2">  1       -1 0.68153110E-01 0.23236286E+04</pdfrwt>
<totfact> 0.36518881E+00</totfact>
</mgrwt>
</event>
<event>
12    7  0.1661464E-007  0.1403646E+04  0.7818608E-02  0.8951184E-01
          2   -1    0    0  501    0  0.00000000000E+00  0.00000000000E+00  0.70132231821E+03  0.70132231821E+03  0.00000000000E+00 0. -1.
         -1   -1    0    0    0  501 -0.00000000000E+00 -0.00000000000E+00 -0.70232359719E+03  0.70232359719E+03  0.00000000000E+00 0.  1.
         24    2    1    2    0    0  0.87621250638E+02  0.18196946790E+03 -0.35697556177E+03  0.41743332415E+03  0.77644430549E+02 0.  0.
        254    2    1    2    0    0 -0.87621250638E+02 -0.18196946790E+03  0.35597428280E+03  0.98621259125E+03  0.89727766846E+03 0.  0.
         23    2    4    4    0    0 -0.22329996424E+03  0.14419503985E+03  0.51633810686E+03  0.58814055092E+03  0.93000986589E+02 0.  0.
         23    2    4    4    0    0  0.13567871360E+03 -0.32616450775E+03 -0.16036382406E+03  0.39807204033E+03  0.89178437893E+02 0.  0.
          2    1    3    3  502    0  0.48860974999E+02  0.43123256606E+02 -0.66248994900E+02  0.92929755533E+02  0.00000000000E+00 0. -1.
         -1    1    3    3    0  502  0.38760275639E+02  0.13884621130E+03 -0.29072656687E+03  0.32450356862E+03  0.00000000000E+00 0.  1.
         13    1    5    5    0    0 -0.24693530672E+02  0.13539635748E+02  0.14147905416E+03  0.14425468782E+03  0.00000000000E+00 0. -1.
        -13    1    5    5    0    0 -0.19860643356E+03  0.13065540410E+03  0.37485905270E+03  0.44388586310E+03  0.00000000000E+00 0.  1.
          1    1    6    6  503    0  0.61731846574E+02 -0.79741610963E+02 -0.79412052525E+02  0.12835816876E+03  0.00000000000E+00 0. -1.
         -1    1    6    6    0  503  0.73946867024E+02 -0.24642289679E+03 -0.80951771535E+02  0.26971387157E+03  0.00000000000E+00 0.  1.
<mgrwt>
<rscale>  0 0.14036456E+04</rscale>
<asrwt>0</asrwt>
<pdfrwt beam="1">  1        2 0.10789574E+00 0.14036456E+04</pdfrwt>
<pdfrwt beam="2">  1       -1 0.10804978E+00 0.14036456E+04</pdfrwt>
<totfact> 0.36182053E+01</totfact>
</mgrwt>
</event>
<event>
12    7  0.1661464E-007  0.2878709E+04  0.7818608E-02  0.8279241E-01
          2   -1    0    0  501    0  0.00000000000E+00  0.00000000000E+00  0.20679285881E+04  0.20679285881E+04  0.00000000000E+00 0. -1.
         -1   -1    0    0    0  501 -0.00000000000E+00 -0.00000000000E+00 -0.10018436756E+04  0.10018436756E+04  0.00000000000E+00 0.  1.
         24    2    1    2    0    0  0.45402788212E+03  0.92772445488E+03 -0.35162508301E+03  0.10943311687E+04  0.84300212948E+02 0.  0.
        254    2    1    2    0    0 -0.45402788212E+03 -0.92772445488E+03  0.14177099955E+04  0.19754410950E+04  0.90865389807E+03 0.  0.
         23    2    4    4    0    0 -0.67998985796E+03 -0.87352176635E+03  0.12639266578E+04  0.16827119938E+04  0.92642184585E+02 0.  0.
         23    2    4    4    0    0  0.22596197583E+03 -0.54202688530E+02  0.15378333771E+03  0.29272910124E+03  0.89689831044E+02 0.  0.
          2    1    3    3  502    0  0.69019214479E+02  0.22065193995E+03 -0.80296028682E+02  0.24474146113E+03  0.00000000000E+00 0. -1.
         -1    1    3    3    0  502  0.38500866764E+03  0.70707251493E+03 -0.27132905433E+03  0.84958970760E+03  0.00000000000E+00 0.  1.
         13    1    5    5    0    0 -0.48309666354E+03 -0.63502707395E+03  0.84745586766E+03  0.11639687361E+04  0.00000000000E+00 0.  1.
        -13    1    5    5    0    0 -0.19689319441E+03 -0.23849469240E+03  0.41647079017E+03  0.51874325767E+03  0.00000000000E+00 0. -1.
          3    1    6    6  503    0  0.40445693278E+02 -0.42106358876E+02  0.13754725852E+02  0.59983264714E+02  0.00000000000E+00 0. -1.
         -3    1    6    6    0  503  0.18551628256E+03 -0.12096329654E+02  0.14002861185E+03  0.23274583653E+03  0.00000000000E+00 0.  1.
<mgrwt>
<rscale>  0 0.28787089E+04</rscale>
<asrwt>0</asrwt>
<pdfrwt beam="1">  1        2 0.31814286E+00 0.28787089E+04</pdfrwt>
<pdfrwt beam="2">  1       -1 0.15412980E+00 0.28787089E+04</pdfrwt>
<totfact> 0.19514893E+00</totfact>
</mgrwt>
</event>
<event>
12    7  0.1661464E-007  0.1646176E+04  0.7818608E-02  0.8792672E-01
         -1   -1    0    0    0  501 -0.00000000000E+00  0.00000000000E+00  0.33197278537E+03  0.33197278537E+03  0.00000000000E+00 0.  1.
          2   -1    0    0  501    0  0.00000000000E+00 -0.00000000000E+00 -0.20407510171E+04  0.20407510171E+04  0.00000000000E+00 0. -1.
         24    2    1    2    0    0  0.56593477860E+02 -0.54092940469E+03 -0.87664844752E+03  0.10344485912E+04  0.75920647657E+02 0.  0.
        254    2    1    2    0    0 -0.56593477860E+02  0.54092940469E+03 -0.83212978420E+03  0.13382752112E+04  0.89595374918E+03 0.  0.
         23    2    4    4    0    0 -0.68672689738E+01 -0.21270123127E+03 -0.40396802507E+03  0.46530130743E+03  0.89588884631E+02 0.  0.
         23    2    4    4    0    0 -0.49726208886E+02  0.75363063596E+03 -0.42816175912E+03  0.87297390381E+03  0.91263976738E+02 0.  0.
          2    1    3    3  502    0  0.68258779883E+02 -0.51546426854E+03 -0.81508027687E+03  0.96680842514E+03  0.00000000000E+00 0. -1.
         -1    1    3    3    0  502 -0.11665302023E+02 -0.25465136148E+02 -0.61568170646E+02  0.67640166078E+02  0.00000000000E+00 0.  1.
         13    1    5    5    0    0 -0.45196765926E+02 -0.12019047622E+03 -0.19355909966E+03  0.23227919254E+03  0.00000000000E+00 0.  1.
        -13    1    5    5    0    0  0.38329496952E+02 -0.92510755044E+02 -0.21040892542E+03  0.23302211489E+03  0.00000000000E+00 0. -1.
          3    1    6    6  503    0 -0.63709549444E+02  0.36774406425E+03 -0.18397261169E+03  0.41610158055E+03  0.00000000000E+00 0. -1.
         -3    1    6    6    0  503  0.13983340558E+02  0.38588657170E+03 -0.24418914744E+03  0.45687232326E+03  0.00000000000E+00 0.  1.
<mgrwt>
<rscale>  0 0.16461759E+04</rscale>
<asrwt>0</asrwt>
<pdfrwt beam="1">  1        2 0.31396169E+00 0.16461759E+04</pdfrwt>
<pdfrwt beam="2">  1       -1 0.51072736E-01 0.16461759E+04</pdfrwt>
<totfact> 0.26605508E+01</totfact>
</mgrwt>
</event>
<event>
12    7  0.1661464E-007  0.2143126E+04  0.7818608E-02  0.8542481E-01
         -1   -1    0    0    0  501 -0.00000000000E+00  0.00000000000E+00  0.22924727894E+03  0.22924727894E+03  0.00000000000E+00 0.  1.
          2   -1    0    0  501    0  0.00000000000E+00 -0.00000000000E+00 -0.50087700064E+04  0.50087700064E+04  0.00000000000E+00 0. -1.
         24    2    1    2    0    0 -0.81830757543E+03  0.36958444559E+03 -0.20255494058E+04  0.22170590496E+04  0.79249503065E+02 0.  0.
        254    2    1    2    0    0  0.81830757543E+03 -0.36958444559E+03 -0.27539733216E+04  0.30209582357E+04  0.85767106460E+03 0.  0.
         23    2    4    4    0    0 -0.15675072575E+03 -0.12864818379E+03 -0.34686633255E+03  0.41101631653E+03  0.86585302318E+02 0.  0.
         23    2    4    4    0    0  0.97505830118E+03 -0.24093626180E+03 -0.24071069891E+04  0.26099419192E+04  0.94041435262E+02 0.  0.
          2    1    3    3  502    0 -0.21908008767E+03  0.11786015975E+03 -0.48708650728E+03  0.54693726116E+03  0.00000000000E+00 0. -1.
         -1    1    3    3    0  502 -0.59922748776E+03  0.25172428584E+03 -0.15384628985E+04  0.16701217885E+04  0.00000000000E+00 0.  1.
         13    1    5    5    0    0 -0.15916055359E+03 -0.92150633925E+02 -0.29041834027E+03  0.34375373965E+03  0.00000000000E+00 0.  1.
        -13    1    5    5    0    0  0.24098278437E+01 -0.36497549867E+02 -0.56447992280E+02  0.67262576883E+02  0.00000000000E+00 0. -1.
          1    1    6    6  503    0  0.77702927899E+02  0.59466343838E+01 -0.17425431796E+03  0.19088654953E+03  0.00000000000E+00 0. -1.
         -1    1    6    6    0  503  0.89735537328E+03 -0.24688289618E+03 -0.22328526711E+04  0.24190553696E+04  0.00000000000E+00 0.  1.
<mgrwt>
<rscale>  0 0.21431257E+04</rscale>
<asrwt>0</asrwt>
<pdfrwt beam="1">  1        2 0.77058000E+00 0.21431257E+04</pdfrwt>
<pdfrwt beam="2">  1       -1 0.35268812E-01 0.21431257E+04</pdfrwt>
<totfact> 0.27312393E-01</totfact>
</mgrwt>
</event>
<event>
12    7  0.1661464E-007  0.1860311E+04  0.7818608E-02  0.8674868E-01
         -1   -1    0    0    0  501 -0.00000000000E+00  0.00000000000E+00  0.86686283977E+03  0.86686283977E+03  0.00000000000E+00 0.  1.
          2   -1    0    0  501    0  0.00000000000E+00 -0.00000000000E+00 -0.99806972323E+03  0.99806972323E+03  0.00000000000E+00 0. -1.
         24    2    1    2    0    0  0.11811862263E+03  0.64799138501E+03 -0.38721071314E+03  0.76827241453E+03  0.80408472803E+02 0.  0.
        254    2    1    2    0    0 -0.11811862263E+03 -0.64799138501E+03  0.25600382968E+03  0.10966601485E+04  0.83861831388E+03 0.  0.
         23    2    4    4    0    0 -0.30811644391E+03  0.34129108615E+02  0.19950830352E+03  0.38044248653E+03  0.93980760392E+02 0.  0.
         23    2    4    4    0    0  0.18999782128E+03 -0.68212049363E+03  0.56495526152E+02  0.71621766194E+03  0.91588508474E+02 0.  0.
          4    1    3    3  502    0  0.58921342163E+02  0.51015844550E+03 -0.29896085269E+03  0.59423139897E+03  0.00000000000E+00 0. -1.
         -3    1    3    3    0  502  0.59197280467E+02  0.13783293951E+03 -0.88249860453E+02  0.17404101556E+03  0.00000000000E+00 0.  1.
         13    1    5    5    0    0 -0.29816305088E+03  0.13942274402E+02  0.19735332842E+03  0.35783226260E+03  0.00000000000E+00 0. -1.
        -13    1    5    5    0    0 -0.99533930317E+01  0.20186834213E+02  0.21549751045E+01  0.22610223928E+02  0.00000000000E+00 0.  1.
          1    1    6    6  503    0  0.10870210557E+03 -0.53338458010E+03  0.37165401043E+02  0.54561573023E+03  0.00000000000E+00 0. -1.
         -1    1    6    6    0  503  0.81295715710E+02 -0.14873591352E+03  0.19330125109E+02  0.17060193170E+03  0.00000000000E+00 0.  1.
<mgrwt>
<rscale>  0 0.18603113E+04</rscale>
<asrwt>0</asrwt>
<pdfrwt beam="1">  1        2 0.15354919E+00 0.18603113E+04</pdfrwt>
<pdfrwt beam="2">  1       -1 0.13336351E+00 0.18603113E+04</pdfrwt>
<totfact> 0.12869177E+01</totfact>
</mgrwt>
</event>
<event>
12    7  0.1661464E-007  0.1882724E+04  0.7818608E-02  0.8663504E-01
          2   -1    0    0  501    0  0.00000000000E+00  0.00000000000E+00  0.27868206236E+04  0.27868206236E+04  0.00000000000E+00 0. -1.
         -1   -1    0    0    0  501 -0.00000000000E+00 -0.00000000000E+00 -0.31798342964E+03  0.31798342964E+03  0.00000000000E+00 0.  1.
         24    2    1    2    0    0 -0.58068152296E+03  0.27880551301E+03  0.41278865878E+03  0.76926949082E+03  0.80358742474E+02 0.  0.
        254    2    1    2    0    0  0.58068152296E+03 -0.27880551301E+03  0.20560485351E+04  0.23355345624E+04  0.90136705512E+03 0.  0.
         23    2    4    4    0    0  0.41974582760E+03 -0.59031815829E+03  0.15392556089E+04  0.17035483949E+04  0.90040082782E+02 0.  0.
         23    2    4    4    0    0  0.16093569536E+03  0.31151264528E+03  0.51679292622E+03  0.63198616745E+03  0.96908003010E+02 0.  0.
          2    1    3    3  502    0 -0.14795191143E+03  0.39719468506E+02  0.12086165802E+03  0.19512802120E+03  0.00000000000E+00 0. -1.
         -1    1    3    3    0  502 -0.43272961153E+03  0.23908604450E+03  0.29192700075E+03  0.57414146962E+03  0.00000000000E+00 0.  1.
         13    1    5    5    0    0  0.30374257268E+03 -0.39126564382E+03  0.96239712279E+03  0.10823846712E+04  0.00000000000E+00 0. -1.
        -13    1    5    5    0    0  0.11600325492E+03 -0.19905251447E+03  0.57685848611E+03  0.62116372372E+03  0.00000000000E+00 0.  1.
          3    1    6    6  503    0  0.17249886245E+02  0.13533402300E+03  0.19503075982E+03  0.23801229723E+03  0.00000000000E+00 0. -1.
         -3    1    6    6    0  503  0.14368580911E+03  0.17617862227E+03  0.32176216640E+03  0.39397387022E+03  0.00000000000E+00 0.  1.
<mgrwt>
<rscale>  0 0.18827244E+04</rscale>
<asrwt>0</asrwt>
<pdfrwt beam="1">  1        2 0.42874162E+00 0.18827244E+04</pdfrwt>
<pdfrwt beam="2">  1       -1 0.48920530E-01 0.18827244E+04</pdfrwt>
<totfact> 0.10542906E+01</totfact>
</mgrwt>
</event>
<event>
12    7  0.1661464E-007  0.1250890E+04  0.7818608E-02  0.9069443E-01
          2   -1    0    0  501    0  0.00000000000E+00  0.00000000000E+00  0.22502518455E+04  0.22502518455E+04  0.00000000000E+00 0. -1.
         -1   -1    0    0    0  501 -0.00000000000E+00 -0.00000000000E+00 -0.17383892790E+03  0.17383892790E+03  0.00000000000E+00 0.  1.
         24    2    1    2    0    0 -0.29047449651E+03  0.76515343226E+02  0.48949285418E+03  0.57946786617E+03  0.77134446017E+02 0.  0.
        254    2    1    2    0    0  0.29047449651E+03 -0.76515343226E+02  0.15869200634E+04  0.18446229072E+04  0.89111635117E+03 0.  0.
         23    2    4    4    0    0 -0.15034329693E+03  0.20786164413E+03  0.15320604084E+03  0.31517116874E+03  0.10025569623E+03 0.  0.
         23    2    4    4    0    0  0.44081779344E+03 -0.28437698736E+03  0.14337140226E+04  0.15294517385E+04  0.92174420841E+02 0.  0.
          2    1    3    3  502    0 -0.24618346775E+03  0.60683506143E+02  0.34950903507E+03  0.43179318348E+03  0.00000000000E+00 0. -1.
         -3    1    3    3    0  502 -0.44291028769E+02  0.15831837082E+02  0.13998381911E+03  0.14767468269E+03  0.00000000000E+00 0.  1.
         13    1    5    5    0    0 -0.47872837154E+02  0.93651574374E+02  0.10628780382E+02  0.10571374978E+03  0.00000000000E+00 0. -1.
        -13    1    5    5    0    0 -0.10247045977E+03  0.11421006976E+03  0.14257726046E+03  0.20945741896E+03  0.00000000000E+00 0.  1.
          3    1    6    6  503    0  0.24821987337E+03 -0.20797135462E+03  0.93103754557E+03  0.98574646899E+03  0.00000000000E+00 0. -1.
         -3    1    6    6    0  503  0.19259792007E+03 -0.76405632736E+02  0.50267647703E+03  0.54370526951E+03  0.00000000000E+00 0.  1.
<mgrwt>
<rscale>  0 0.12508899E+04</rscale>
<asrwt>0</asrwt>
<pdfrwt beam="1">  1        2 0.34619257E+00 0.12508899E+04</pdfrwt>
<pdfrwt beam="2">  1       -1 0.26744452E-01 0.12508899E+04</pdfrwt>
<totfact> 0.67763996E+01</totfact>
</mgrwt>
</event>
<event>
12    7  0.1661464E-007  0.2156840E+04  0.7818608E-02  0.8536610E-01
          2   -1    0    0  501    0  0.00000000000E+00  0.00000000000E+00  0.27495115962E+04  0.27495115962E+04  0.00000000000E+00 0. -1.
         -1   -1    0    0    0  501 -0.00000000000E+00 -0.00000000000E+00 -0.42298061854E+03  0.42298061854E+03  0.00000000000E+00 0.  1.
         24    2    1    2    0    0  0.82727361283E+02 -0.79100198005E+03  0.37778342609E+03  0.88380624352E+03  0.76584661086E+02 0.  0.
        254    2    1    2    0    0 -0.82727361283E+02  0.79100198005E+03  0.19487475516E+04  0.22886859712E+04  0.89885399614E+03 0.  0.
         23    2    4    4    0    0  0.23040437086E+03 -0.45381604260E+02  0.19526027395E+03  0.31877851219E+03  0.91364660207E+02 0.  0.
         23    2    4    4    0    0 -0.31313173214E+03  0.83638358431E+03  0.17534872776E+04  0.19699074590E+04  0.90712637539E+02 0.  0.
          4    1    3    3  502    0  0.11817258326E+02 -0.12724099535E+02  0.10583738276E+02  0.20336317740E+02  0.00000000000E+00 0. -1.
         -3    1    3    3    0  502  0.70910102957E+02 -0.77827788051E+03  0.36719968781E+03  0.86346992578E+03  0.00000000000E+00 0.  1.
         13    1    5    5    0    0  0.23245787797E+03 -0.55984742472E+02  0.17672366972E+03  0.29732509456E+03  0.00000000000E+00 0. -1.
        -13    1    5    5    0    0 -0.20535071063E+01  0.10603138212E+02  0.18536604238E+02  0.21453417631E+02  0.00000000000E+00 0.  1.
          4    1    6    6  503    0 -0.28241504233E+03  0.79789310820E+03  0.16839891021E+04  0.18847310058E+04  0.00000000000E+00 0. -1.
         -4    1    6    6    0  503 -0.30716689813E+02  0.38490476109E+02  0.69498175504E+02  0.85176453216E+02  0.00000000000E+00 0.  1.
<mgrwt>
<rscale>  0 0.21568404E+04</rscale>
<asrwt>0</asrwt>
<pdfrwt beam="1">  1        2 0.42300177E+00 0.21568404E+04</pdfrwt>
<pdfrwt beam="2">  1       -1 0.65073943E-01 0.21568404E+04</pdfrwt>
<totfact> 0.62031640E+00</totfact>
</mgrwt>
</event>
<event>
12    7  0.1661464E-007  0.2470916E+04  0.7818608E-02  0.8413421E-01
         -1   -1    0    0    0  501 -0.00000000000E+00  0.00000000000E+00  0.61083921127E+03  0.61083921127E+03  0.00000000000E+00 0.  1.
          2   -1    0    0  501    0  0.00000000000E+00 -0.00000000000E+00 -0.24987851821E+04  0.24987851821E+04  0.00000000000E+00 0. -1.
         24    2    1    2    0    0 -0.25385164819E+03  0.31983925014E+03 -0.20705562375E+04  0.21132823760E+04  0.10964243228E+03 0.  0.
        254    2    1    2    0    0  0.25385164819E+03 -0.31983925014E+03  0.18261026673E+03  0.99634201729E+03  0.89028821214E+03 0.  0.
         23    2    4    4    0    0  0.20119670918E+03 -0.62083193663E+03  0.14285694828E+03  0.67523379602E+03  0.98082426032E+02 0.  0.
         23    2    4    4    0    0  0.52654939006E+02  0.30099268648E+03  0.39753318448E+02  0.32110822126E+03  0.90338383407E+02 0.  0.
          2    1    3    3  502    0 -0.12157422397E+03  0.14088223984E+03 -0.67870982731E+03  0.70375786115E+03  0.00000000000E+00 0. -1.
         -1    1    3    3    0  502 -0.13227742422E+03  0.17895701030E+03 -0.13918464102E+04  0.14095245149E+04  0.00000000000E+00 0.  1.
         13    1    5    5    0    0  0.23598219829E+02 -0.13834169543E+03  0.67058544784E+02  0.15553825607E+03  0.00000000000E+00 0. -1.
        -13    1    5    5    0    0  0.17759848936E+03 -0.48249024119E+03  0.75798403499E+02  0.51969553995E+03  0.00000000000E+00 0.  1.
          2    1    6    6  503    0  0.19105709802E+02  0.46311113428E+02 -0.25291220132E+02  0.56119454645E+02  0.00000000000E+00 0. -1.
         -2    1    6    6    0  503  0.33549229205E+02  0.25468157306E+03  0.65044538580E+02  0.26498876662E+03  0.00000000000E+00 0.  1.
<mgrwt>
<rscale>  0 0.24709156E+04</rscale>
<asrwt>0</asrwt>
<pdfrwt beam="1">  1        2 0.38442849E+00 0.24709156E+04</pdfrwt>
<pdfrwt beam="2">  1       -1 0.93975264E-01 0.24709156E+04</pdfrwt>
<totfact> 0.38894700E+00</totfact>
</mgrwt>
</event>
<event>
12    7  0.1661464E-007  0.1414557E+04  0.7818608E-02  0.8943348E-01
         -1   -1    0    0    0  501 -0.00000000000E+00  0.00000000000E+00  0.11266202549E+04  0.11266202549E+04  0.00000000000E+00 0.  1.
          2   -1    0    0  501    0  0.00000000000E+00 -0.00000000000E+00 -0.44402093656E+03  0.44402093656E+03  0.00000000000E+00 0. -1.
         24    2    1    2    0    0 -0.13190801634E+03 -0.29971334523E+03  0.49796014996E+03  0.60068386082E+03  0.75026499452E+02 0.  0.
        254    2    1    2    0    0  0.13190801634E+03  0.29971334523E+03  0.18463916841E+03  0.96995733066E+03  0.89414640116E+03 0.  0.
         23    2    4    4    0    0 -0.11914196790E+03  0.53926693111E+03  0.24088239457E+03  0.60822192832E+03  0.83102073231E+02 0.  0.
         23    2    4    4    0    0  0.25104998424E+03 -0.23955358588E+03 -0.56243226165E+02  0.36173540234E+03  0.85306422531E+02 0.  0.
          2    1    3    3  502    0 -0.13421781242E+02 -0.11509593318E+03  0.19083561292E+03  0.22326094420E+03  0.00000000000E+00 0. -1.
         -1    1    3    3    0  502 -0.11848623510E+03 -0.18461741205E+03  0.30712453704E+03  0.37742291662E+03  0.00000000000E+00 0.  1.
         13    1    5    5    0    0 -0.78109495404E+02  0.33535532166E+03  0.19319124136E+03  0.39482545609E+03  0.00000000000E+00 0. -1.
        -13    1    5    5    0    0 -0.41032472497E+02  0.20391160944E+03  0.47691153211E+02  0.21339647223E+03  0.00000000000E+00 0.  1.
          1    1    6    6  503    0  0.16872032092E+03 -0.14709492164E+03 -0.75956433597E+02  0.23637436931E+03  0.00000000000E+00 0. -1.
         -1    1    6    6    0  503  0.82329663327E+02 -0.92458664237E+02  0.19713207432E+02  0.12536103303E+03  0.00000000000E+00 0.  1.
<mgrwt>
<rscale>  0 0.14145571E+04</rscale>
<asrwt>0</asrwt>
<pdfrwt beam="1">  1        2 0.68310913E-01 0.14145571E+04</pdfrwt>
<pdfrwt beam="2">  1       -1 0.17332619E+00 0.14145571E+04</pdfrwt>
<totfact> 0.18269586E+01</totfact>
</mgrwt>
</event>
<event>
12    7  0.1661464E-007  0.2466851E+04  0.7818608E-02  0.8414891E-01
          2   -1    0    0  501    0  0.00000000000E+00  0.00000000000E+00  0.21303220544E+04  0.21303220544E+04  0.00000000000E+00 0. -1.
         -1   -1    0    0    0  501 -0.00000000000E+00 -0.00000000000E+00 -0.71413554428E+03  0.71413554428E+03  0.00000000000E+00 0.  1.
         24    2    1    2    0    0  0.28613511921E+03 -0.52099114773E+03  0.16372001501E+04  0.17436285504E+04  0.80691434761E+02 0.  0.
        254    2    1    2    0    0 -0.28613511921E+03  0.52099114773E+03 -0.22101363999E+03  0.11008290483E+04  0.89981802721E+03 0.  0.
         23    2    4    4    0    0 -0.16831769502E+03 -0.23739761744E+03 -0.71636234614E+02  0.31349647724E+03  0.91977257557E+02 0.  0.
         23    2    4    4    0    0 -0.11781742419E+03  0.75838876518E+03 -0.14937740538E+03  0.78733257108E+03  0.92436484451E+02 0.  0.
          4    1    3    3  502    0  0.24652688871E+03 -0.42269951199E+03  0.14201375447E+04  0.15020789028E+04  0.00000000000E+00 0. -1.
         -3    1    3    3    0  502  0.39608230497E+02 -0.98291635738E+02  0.21706260539E+03  0.24154964756E+03  0.00000000000E+00 0.  1.
         13    1    5    5    0    0 -0.17622922888E+03 -0.22371803665E+03 -0.79729476757E+02  0.29574193227E+03  0.00000000000E+00 0. -1.
        -13    1    5    5    0    0  0.79115338682E+01 -0.13679580789E+02  0.80932421430E+01  0.17754544970E+02  0.00000000000E+00 0.  1.
          4    1    6    6  503    0 -0.36875027730E+02  0.49461595962E+03 -0.75513782914E+02  0.50170414249E+03  0.00000000000E+00 0. -1.
         -4    1    6    6    0  503 -0.80942396461E+02  0.26377280555E+03 -0.73863622461E+02  0.28562842859E+03  0.00000000000E+00 0.  1.
<mgrwt>
<rscale>  0 0.24668512E+04</rscale>
<asrwt>0</asrwt>
<pdfrwt beam="1">  1        2 0.32774185E+00 0.24668512E+04</pdfrwt>
<pdfrwt beam="2">  1       -1 0.10986701E+00 0.24668512E+04</pdfrwt>
<totfact> 0.43999818E+00</totfact>
</mgrwt>
</event>
<event>
12    7  0.1661464E-007  0.1346574E+04  0.7818608E-02  0.8993425E-01
         -1   -1    0    0    0  501 -0.00000000000E+00  0.00000000000E+00  0.62317769089E+03  0.62317769089E+03  0.00000000000E+00 0.  1.
          2   -1    0    0  501    0  0.00000000000E+00 -0.00000000000E+00 -0.72742592768E+03  0.72742592768E+03  0.00000000000E+00 0. -1.
         24    2    1    2    0    0  0.50826953289E+02 -0.34586475551E+03 -0.46458584546E+02  0.36149653278E+03  0.79470339419E+02 0.  0.
        254    2    1    2    0    0 -0.50826953289E+02  0.34586475551E+03 -0.57789652240E+02  0.98910708579E+03  0.92346487479E+03 0.  0.
         23    2    4    4    0    0  0.12539451274E+03  0.34482005087E+03  0.36244067062E+03  0.52391930454E+03  0.92214676911E+02 0.  0.
         23    2    4    4    0    0 -0.17622146603E+03  0.10447046436E+01 -0.42023032286E+03  0.46518778125E+03  0.93547052741E+02 0.  0.
          2    1    3    3  502    0  0.54735811584E+02 -0.31600887007E+03 -0.19873908693E+02  0.32132940618E+03  0.00000000000E+00 0. -1.
         -1    1    3    3    0  502 -0.39088582955E+01 -0.29855885445E+02 -0.26584675852E+02  0.40167126597E+02  0.00000000000E+00 0.  1.
         13    1    5    5    0    0 -0.66038210345E+01  0.30066729978E+01 -0.15739183015E+01  0.74248066366E+01  0.00000000000E+00 0.  1.
        -13    1    5    5    0    0  0.13199833378E+03  0.34181337787E+03  0.36401458893E+03  0.51649449790E+03  0.00000000000E+00 0. -1.
          1    1    6    6  503    0 -0.15581442464E+03  0.86935818182E+01 -0.41412838487E+03  0.44255624778E+03  0.00000000000E+00 0. -1.
         -1    1    6    6    0  503 -0.20407041387E+02 -0.76488771746E+01 -0.61019379925E+01  0.22631533476E+02  0.00000000000E+00 0.  1.
<mgrwt>
<rscale>  0 0.13465743E+04</rscale>
<asrwt>0</asrwt>
<pdfrwt beam="1">  1        2 0.11191168E+00 0.13465743E+04</pdfrwt>
<pdfrwt beam="2">  1       -1 0.95873491E-01 0.13465743E+04</pdfrwt>
<totfact> 0.45679569E+01</totfact>
</mgrwt>
</event>
<event>
12    7  0.1661464E-007  0.1641746E+04  0.7818608E-02  0.8795304E-01
         -1   -1    0    0    0  501 -0.00000000000E+00  0.00000000000E+00  0.18267206230E+04  0.18267206230E+04  0.00000000000E+00 0.  1.
          2   -1    0    0  501    0  0.00000000000E+00 -0.00000000000E+00 -0.36887569473E+03  0.36887569473E+03  0.00000000000E+00 0. -1.
         24    2    1    2    0    0 -0.42281782696E+03  0.29207505840E+03  0.43017817432E+03  0.67450357131E+03  0.76282707833E+02 0.  0.
        254    2    1    2    0    0  0.42281782696E+03 -0.29207505840E+03  0.10276667540E+04  0.15210927464E+04  0.99676548472E+03 0.  0.
         23    2    4    4    0    0 -0.10069621456E+03 -0.41933357980E+03  0.11013804027E+03  0.45304844694E+03  0.84511115124E+02 0.  0.
         23    2    4    4    0    0  0.52351404152E+03  0.12725852140E+03  0.91752871368E+03  0.10680442995E+04  0.92725413560E+02 0.  0.
          4    1    3    3  502    0 -0.22824135171E+03  0.15671964131E+03  0.18204172323E+03  0.33135230435E+03  0.00000000000E+00 0. -1.
         -3    1    3    3    0  502 -0.19457647525E+03  0.13535541710E+03  0.24813645109E+03  0.34315126696E+03  0.00000000000E+00 0.  1.
         13    1    5    5    0    0 -0.93111747434E+02 -0.38407579576E+03  0.74145392353E+02  0.40209644814E+03  0.00000000000E+00 0. -1.
        -13    1    5    5    0    0 -0.75844671253E+01 -0.35257784046E+02  0.35992647921E+02  0.50951998801E+02  0.00000000000E+00 0.  1.
          2    1    6    6  503    0  0.48687426030E+03  0.10449684119E+03  0.87878826031E+03  0.10100668006E+04  0.00000000000E+00 0. -1.
         -2    1    6    6    0  503  0.36639781221E+02  0.22761680212E+02  0.38740453368E+02  0.57977498921E+02  0.00000000000E+00 0.  1.
<mgrwt>
<rscale>  0 0.16417464E+04</rscale>
<asrwt>0</asrwt>
<pdfrwt beam="1">  1        2 0.56750108E-01 0.16417464E+04</pdfrwt>
<pdfrwt beam="2">  1       -1 0.28103394E+00 0.16417464E+04</pdfrwt>
<totfact> 0.41798234E+00</totfact>
</mgrwt>
</event>
<event>
12    7  0.1661464E-007  0.3672345E+04  0.7818608E-02  0.8074118E-01
         -1   -1    0    0    0  501 -0.00000000000E+00  0.00000000000E+00  0.13370666494E+04  0.13370666494E+04  0.00000000000E+00 0.  1.
          2   -1    0    0  501    0  0.00000000000E+00 -0.00000000000E+00 -0.25215872745E+04  0.25215872745E+04  0.00000000000E+00 0. -1.
         24    2    1    2    0    0 -0.15554548797E+04  0.55005385834E+03 -0.33238054142E+02  0.16521000522E+04  0.79565599125E+02 0.  0.
        254    2    1    2    0    0  0.15554548797E+04 -0.55005385834E+03 -0.11512825710E+04  0.22065538717E+04  0.90632736951E+03 0.  0.
         23    2    4    4    0    0  0.27824114622E+03 -0.11656892981E+03 -0.72270648493E+03  0.78840324431E+03  0.90931630474E+02 0.  0.
         23    2    4    4    0    0  0.12772137334E+04 -0.43348492853E+03 -0.42857608603E+03  0.14181506274E+04  0.91047439719E+02 0.  0.
          2    1    3    3  502    0 -0.13463757393E+04  0.45401479391E+03 -0.10567960585E+02  0.14209042003E+04  0.00000000000E+00 0. -1.
         -1    1    3    3    0  502 -0.20907914034E+03  0.96039064433E+02 -0.22670093557E+02  0.23119585196E+03  0.00000000000E+00 0.  1.
         13    1    5    5    0    0  0.93540665952E+02 -0.61616461163E+02 -0.17491531409E+03  0.20770607015E+03  0.00000000000E+00 0.  1.
        -13    1    5    5    0    0  0.18470048027E+03 -0.54952468650E+02 -0.54779117085E+03  0.58069717416E+03  0.00000000000E+00 0. -1.
          4    1    6    6  503    0  0.11523180960E+04 -0.38578362865E+03 -0.41350400575E+03  0.12836088054E+04  0.00000000000E+00 0. -1.
         -4    1    6    6    0  503  0.12489563740E+03 -0.47701299883E+02 -0.15072080285E+02  0.13454182196E+03  0.00000000000E+00 0.  1.
<mgrwt>
<rscale>  0 0.36723454E+04</rscale>
<asrwt>0</asrwt>
<pdfrwt beam="1">  1        2 0.38793650E+00 0.36723454E+04</pdfrwt>
<pdfrwt beam="2">  1       -1 0.20570257E+00 0.36723454E+04</pdfrwt>
<totfact> 0.42820803E-01</totfact>
</mgrwt>
</event>
<event>
12    7  0.1661464E-007  0.1608796E+04  0.7818608E-02  0.8815163E-01
         -1   -1    0    0    0  501 -0.00000000000E+00  0.00000000000E+00  0.26220203281E+03  0.26220203281E+03  0.00000000000E+00 0.  1.
          2   -1    0    0  501    0  0.00000000000E+00 -0.00000000000E+00 -0.24677765897E+04  0.24677765897E+04  0.00000000000E+00 0. -1.
         24    2    1    2    0    0  0.10669172406E+02  0.26819972586E+03  0.53571509946E+02  0.28520566618E+03  0.80171323778E+02 0.  0.
        254    2    1    2    0    0 -0.10669172406E+02 -0.26819972586E+03 -0.22591460669E+04  0.24447729564E+04  0.89505806095E+03 0.  0.
         23    2    4    4    0    0  0.23771166245E+03 -0.12460674862E+02 -0.19380795122E+04  0.19547619996E+04  0.90995473960E+02 0.  0.
         23    2    4    4    0    0 -0.24838083485E+03 -0.25573905100E+03 -0.32106655464E+03  0.49001095680E+03  0.99656931267E+02 0.  0.
          2    1    3    3  502    0  0.52786590190E+01 -0.21850739622E+01 -0.59987973781E+01  0.82839820885E+01  0.00000000000E+00 0. -1.
         -1    1    3    3    0  502  0.53905133865E+01  0.27038479982E+03  0.59570307324E+02  0.27692168410E+03  0.00000000000E+00 0.  1.
         13    1    5    5    0    0  0.19625525633E+03 -0.45915877950E+02 -0.15402639918E+04  0.15533954930E+04  0.00000000000E+00 0. -1.
        -13    1    5    5    0    0  0.41456406118E+02  0.33455203088E+02 -0.39781552048E+03  0.40136650652E+03  0.00000000000E+00 0.  1.
          4    1    6    6  503    0 -0.30900517373E+02  0.25456647805E+01 -0.15690729036E+02  0.34749408064E+02  0.00000000000E+00 0. -1.
         -4    1    6    6    0  503 -0.21748031748E+03 -0.25828471578E+03 -0.30537582560E+03  0.45526154874E+03  0.00000000000E+00 0.  1.
<mgrwt>
<rscale>  0 0.16087959E+04</rscale>
<asrwt>0</asrwt>
<pdfrwt beam="1">  1        2 0.37965796E+00 0.16087959E+04</pdfrwt>
<pdfrwt beam="2">  1       -1 0.40338772E-01 0.16087959E+04</pdfrwt>
<totfact> 0.23829660E+01</totfact>
</mgrwt>
</event>
<event>
12    7  0.1661464E-007  0.1336536E+04  0.7818608E-02  0.9001083E-01
         -1   -1    0    0    0  501 -0.00000000000E+00  0.00000000000E+00  0.29702673046E+03  0.29702673046E+03  0.00000000000E+00 0.  1.
          2   -1    0    0  501    0  0.00000000000E+00 -0.00000000000E+00 -0.15035081169E+04  0.15035081169E+04  0.00000000000E+00 0. -1.
         24    2    1    2    0    0 -0.86989132313E+02 -0.32118953554E+03 -0.15425664796E+03  0.37528727904E+03  0.79470758669E+02 0.  0.
        254    2    1    2    0    0  0.86989132313E+02  0.32118953554E+03 -0.10522247385E+04  0.14252475683E+04  0.90190016293E+03 0.  0.
         23    2    4    4    0    0 -0.97052117711E+01 -0.29617677261E+03 -0.48615447162E+03  0.57660586166E+03  0.91177177315E+02 0.  0.
         23    2    4    4    0    0  0.96694344084E+02  0.61736630815E+03 -0.56607026688E+03  0.84864170668E+03  0.96261335211E+02 0.  0.
          2    1    3    3  502    0 -0.88089825055E+02 -0.30212256250E+03 -0.12144688555E+03  0.33732359250E+03  0.00000000000E+00 0. -1.
         -3    1    3    3    0  502  0.11006927425E+01 -0.19066973041E+02 -0.32809762413E+02  0.37963686531E+02  0.00000000000E+00 0.  1.
         13    1    5    5    0    0 -0.31041954245E+02 -0.17047886330E+03 -0.20870589575E+03  0.27126517778E+03  0.00000000000E+00 0. -1.
        -13    1    5    5    0    0  0.21336742474E+02 -0.12569790931E+03 -0.27744857587E+03  0.30534068388E+03  0.00000000000E+00 0.  1.
          2    1    6    6  503    0  0.11176210354E+03  0.45068436683E+03 -0.43171490369E+03  0.63402281060E+03  0.00000000000E+00 0. -1.
         -2    1    6    6    0  503 -0.15067759458E+02  0.16668194132E+03 -0.13435536319E+03  0.21461889608E+03  0.00000000000E+00 0.  1.
<mgrwt>
<rscale>  0 0.13365360E+04</rscale>
<asrwt>0</asrwt>
<pdfrwt beam="1">  1        2 0.23130895E+00 0.13365360E+04</pdfrwt>
<pdfrwt beam="2">  1       -1 0.45696419E-01 0.13365360E+04</pdfrwt>
<totfact> 0.66972878E+01</totfact>
</mgrwt>
</event>
<event>
12    7  0.1661464E-007  0.1631872E+04  0.7818608E-02  0.8801204E-01
         -1   -1    0    0    0  501 -0.00000000000E+00  0.00000000000E+00  0.96783680930E+03  0.96783680930E+03  0.00000000000E+00 0.  1.
          2   -1    0    0  501    0  0.00000000000E+00 -0.00000000000E+00 -0.68787556039E+03  0.68787556039E+03  0.00000000000E+00 0. -1.
         24    2    1    2    0    0  0.51100443550E+03  0.20091508845E+03  0.17282693450E+02  0.55560795252E+03  0.83120993404E+02 0.  0.
        254    2    1    2    0    0 -0.51100443550E+03 -0.20091508845E+03  0.26267855545E+03  0.11001044172E+04  0.91637181281E+03 0.  0.
         23    2    4    4    0    0 -0.28837025040E+03 -0.39951455160E+02 -0.32473459233E+03  0.44511506575E+03  0.89001944992E+02 0.  0.
         23    2    4    4    0    0 -0.22263418510E+03 -0.16096363329E+03  0.58741314778E+03  0.65498935142E+03  0.92095454132E+02 0.  0.
          4    1    3    3  502    0  0.17909653920E+03  0.49474693471E+02 -0.28297489894E+02  0.18794697013E+03  0.00000000000E+00 0. -1.
         -3    1    3    3    0  502  0.33190789630E+03  0.15144039498E+03  0.45580183344E+02  0.36766098239E+03  0.00000000000E+00 0.  1.
         13    1    5    5    0    0 -0.21108035972E+03 -0.58540062647E+02 -0.19665977869E+03  0.29437548428E+03  0.00000000000E+00 0. -1.
        -13    1    5    5    0    0 -0.77289890687E+02  0.18588607487E+02 -0.12807481365E+03  0.15073958147E+03  0.00000000000E+00 0.  1.
          1    1    6    6  503    0  0.59208600494E+01 -0.90170840631E+01  0.54474503602E+02  0.55532296292E+02  0.00000000000E+00 0. -1.
         -1    1    6    6    0  503 -0.22855504514E+03 -0.15194654923E+03  0.53293864418E+03  0.59945705513E+03  0.00000000000E+00 0.  1.
<mgrwt>
<rscale>  0 0.16318717E+04</rscale>
<asrwt>0</asrwt>
<pdfrwt beam="1">  1        2 0.10582701E+00 0.16318717E+04</pdfrwt>
<pdfrwt beam="2">  1       -1 0.14889797E+00 0.16318717E+04</pdfrwt>
<totfact> 0.16289103E+01</totfact>
</mgrwt>
</event>
<event>
12    7  0.1661464E-007  0.2023164E+04  0.7818608E-02  0.8595866E-01
          2   -1    0    0  501    0  0.00000000000E+00  0.00000000000E+00  0.64286651703E+03  0.64286651703E+03  0.00000000000E+00 0. -1.
         -1   -1    0    0    0  501 -0.00000000000E+00 -0.00000000000E+00 -0.15917746399E+04  0.15917746399E+04  0.00000000000E+00 0.  1.
         24    2    1    2    0    0  0.67090624417E+03  0.45041374059E+03 -0.39412635646E+03  0.90260875981E+03  0.79870283891E+02 0.  0.
        254    2    1    2    0    0 -0.67090624417E+03 -0.45041374059E+03 -0.55478176641E+03  0.13320323971E+04  0.90196439644E+03 0.  0.
         23    2    4    4    0    0 -0.49257040566E+03 -0.68878749256E+03 -0.23036059112E+03  0.88193425628E+03  0.87682472694E+02 0.  0.
         23    2    4    4    0    0 -0.17833583851E+03  0.23837375197E+03 -0.32442117529E+03  0.45009814083E+03  0.93346239789E+02 0.  0.
          2    1    3    3  502    0  0.48626531026E+03  0.34076142870E+03 -0.25168838283E+03  0.64491809193E+03  0.00000000000E+00 0. -1.
         -1    1    3    3    0  502  0.18464093391E+03  0.10965231190E+03 -0.14243797364E+03  0.25769066788E+03  0.00000000000E+00 0.  1.
         13    1    5    5    0    0 -0.12793381314E+01  0.12185103224E+01  0.28715602445E+01  0.33715473745E+01  0.00000000000E+00 0. -1.
        -13    1    5    5    0    0 -0.49129106753E+03 -0.69000600288E+03 -0.23323215137E+03  0.87856270891E+03  0.00000000000E+00 0.  1.
          2    1    6    6  503    0 -0.12288751886E+03  0.16031445970E+03 -0.15171170904E+03  0.25262325891E+03  0.00000000000E+00 0. -1.
         -2    1    6    6    0  503 -0.55448319646E+02  0.78059292271E+02 -0.17270946624E+03  0.19747488193E+03  0.00000000000E+00 0.  1.
<mgrwt>
<rscale>  0 0.20231645E+04</rscale>
<asrwt>0</asrwt>
<pdfrwt beam="1">  1        2 0.98902542E-01 0.20231645E+04</pdfrwt>
<pdfrwt beam="2">  1       -1 0.24488840E+00 0.20231645E+04</pdfrwt>
<totfact> 0.36338293E+00</totfact>
</mgrwt>
</event>
<event>
12    7  0.1661464E-007  0.1497491E+04  0.7818608E-02  0.8886123E-01
         -1   -1    0    0    0  501 -0.00000000000E+00  0.00000000000E+00  0.92046395535E+03  0.92046395535E+03  0.00000000000E+00 0.  1.
          2   -1    0    0  501    0  0.00000000000E+00 -0.00000000000E+00 -0.60906252941E+03  0.60906252941E+03  0.00000000000E+00 0. -1.
         24    2    1    2    0    0  0.29007528956E+03  0.72419516279E+02  0.48773724987E+03  0.57760041057E+03  0.79663978290E+02 0.  0.
        254    2    1    2    0    0 -0.29007528956E+03 -0.72419516279E+02 -0.17633582392E+03  0.95192607419E+03  0.88638629726E+03 0.  0.
         23    2    4    4    0    0 -0.39655216100E+03  0.31864764883E+03 -0.13865332524E+03  0.53487237880E+03  0.89854195832E+02 0.  0.
         23    2    4    4    0    0  0.10647687145E+03 -0.39106716511E+03 -0.37682498679E+02  0.41705369538E+03  0.90790761355E+02 0.  0.
          4    1    3    3  502    0  0.23663070524E+02 -0.81690410763E+01  0.80739433670E+02  0.84531238534E+02  0.00000000000E+00 0. -1.
         -3    1    3    3    0  502  0.26641221903E+03  0.80588557355E+02  0.40699781620E+03  0.49306917204E+03  0.00000000000E+00 0.  1.
         13    1    5    5    0    0 -0.27569392445E+03  0.18097618579E+03 -0.58610013330E+02  0.33495470360E+03  0.00000000000E+00 0. -1.
        -13    1    5    5    0    0 -0.12085823655E+03  0.13767146303E+03 -0.80043311914E+02  0.19991767520E+03  0.00000000000E+00 0.  1.
          3    1    6    6  503    0  0.12047939664E+03 -0.36894665882E+03 -0.27955625142E+02  0.38912522284E+03  0.00000000000E+00 0. -1.
         -3    1    6    6    0  503 -0.14002525189E+02 -0.22120506281E+02 -0.97268735370E+01  0.27928472543E+02  0.00000000000E+00 0.  1.
<mgrwt>
<rscale>  0 0.14974914E+04</rscale>
<asrwt>0</asrwt>
<pdfrwt beam="1">  1        2 0.93701927E-01 0.14974914E+04</pdfrwt>
<pdfrwt beam="2">  1       -1 0.14160984E+00 0.14974914E+04</pdfrwt>
<totfact> 0.21877430E+01</totfact>
</mgrwt>
</event>
<event>
12    7  0.1661464E-007  0.1717393E+04  0.7818608E-02  0.8751506E-01
         -1   -1    0    0    0  501 -0.00000000000E+00  0.00000000000E+00  0.88424332998E+03  0.88424332998E+03  0.00000000000E+00 0.  1.
          2   -1    0    0  501    0  0.00000000000E+00 -0.00000000000E+00 -0.83388808098E+03  0.83388808098E+03  0.00000000000E+00 0. -1.
         24    2    1    2    0    0  0.10613881852E+03 -0.46633546990E+03 -0.37664876566E+03  0.61438377404E+03  0.82878886639E+02 0.  0.
        254    2    1    2    0    0 -0.10613881852E+03  0.46633546990E+03  0.42700401466E+03  0.11037476369E+04  0.89843875594E+03 0.  0.
         23    2    4    4    0    0 -0.22934161295E+03 -0.20418191479E+03  0.66890255146E+02  0.32741792277E+03  0.91871432777E+02 0.  0.
         23    2    4    4    0    0  0.12320279443E+03  0.67051738468E+03  0.36011375952E+03  0.77632971414E+03  0.90738159296E+02 0.  0.
          2    1    3    3  502    0  0.55286397873E+02 -0.26940565034E+03 -0.16437557284E+03  0.32039868784E+03  0.00000000000E+00 0. -1.
         -1    1    3    3    0  502  0.50852420651E+02 -0.19692981956E+03 -0.21227319282E+03  0.29398508620E+03  0.00000000000E+00 0.  1.
         13    1    5    5    0    0 -0.42951425950E+02 -0.53825846651E+02  0.54152504825E+02  0.87604455011E+02  0.00000000000E+00 0. -1.
        -13    1    5    5    0    0 -0.18639018700E+03 -0.15035606813E+03  0.12737750321E+02  0.23981346776E+03  0.00000000000E+00 0.  1.
          3    1    6    6  503    0  0.25085960991E+02  0.34668184742E+03  0.15445627632E+03  0.38036081563E+03  0.00000000000E+00 0. -1.
         -3    1    6    6    0  503  0.98116833440E+02  0.32383553726E+03  0.20565748320E+03  0.39596889852E+03  0.00000000000E+00 0.  1.
<mgrwt>
<rscale>  0 0.17173933E+04</rscale>
<asrwt>0</asrwt>
<pdfrwt beam="1">  1        2 0.12829047E+00 0.17173933E+04</pdfrwt>
<pdfrwt beam="2">  1       -1 0.13603744E+00 0.17173933E+04</pdfrwt>
<totfact> 0.15961880E+01</totfact>
</mgrwt>
</event>
<event>
12    7  0.1661464E-007  0.1713810E+04  0.7818608E-02  0.8753527E-01
         -1   -1    0    0    0  501 -0.00000000000E+00  0.00000000000E+00  0.70446773883E+03  0.70446773883E+03  0.00000000000E+00 0.  1.
          2   -1    0    0  501    0  0.00000000000E+00 -0.00000000000E+00 -0.10423274732E+04  0.10423274732E+04  0.00000000000E+00 0. -1.
         24    2    1    2    0    0 -0.11393746715E+03 -0.46452543080E+03 -0.52635209006E+03  0.71558343296E+03  0.79041157288E+02 0.  0.
        254    2    1    2    0    0  0.11393746715E+03  0.46452543080E+03  0.18849235564E+03  0.10312117791E+04  0.89392546835E+03 0.  0.
         23    2    4    4    0    0  0.17416528264E+02 -0.15239508057E+03  0.33889515607E+03  0.38283098623E+03  0.90454635979E+02 0.  0.
         23    2    4    4    0    0  0.96520938882E+02  0.61692051137E+03 -0.15040280043E+03  0.64838079288E+03  0.88709870962E+02 0.  0.
          4    1    3    3  502    0 -0.81866996660E+02 -0.28210818321E+03 -0.26751771001E+03  0.39730713226E+03  0.00000000000E+00 0. -1.
         -3    1    3    3    0  502 -0.32070470486E+02 -0.18241724759E+03 -0.25883438004E+03  0.31827630070E+03  0.00000000000E+00 0.  1.
         13    1    5    5    0    0 -0.21200967318E+02 -0.13230025622E+01  0.29357572369E+02  0.36236699717E+02  0.00000000000E+00 0. -1.
        -13    1    5    5    0    0  0.38617495582E+02 -0.15107207801E+03  0.30953758370E+03  0.34659428652E+03  0.00000000000E+00 0.  1.
          2    1    6    6  503    0  0.57091392667E+02  0.22072350534E+03 -0.92502595545E+02  0.24603866181E+03  0.00000000000E+00 0. -1.
         -2    1    6    6    0  503  0.39429546216E+02  0.39619700604E+03 -0.57900204886E+02  0.40234213107E+03  0.00000000000E+00 0.  1.
<mgrwt>
<rscale>  0 0.17138099E+04</rscale>
<asrwt>0</asrwt>
<pdfrwt beam="1">  1        2 0.16035807E+00 0.17138099E+04</pdfrwt>
<pdfrwt beam="2">  1       -1 0.10837965E+00 0.17138099E+04</pdfrwt>
<totfact> 0.20290688E+01</totfact>
</mgrwt>
</event>
<event>
12    7  0.1661464E-007  0.1428171E+04  0.7818608E-02  0.8933676E-01
         -1   -1    0    0    0  501 -0.00000000000E+00  0.00000000000E+00  0.77628482836E+03  0.77628482836E+03  0.00000000000E+00 0.  1.
          2   -1    0    0  501    0  0.00000000000E+00 -0.00000000000E+00 -0.65686991136E+03  0.65686991136E+03  0.00000000000E+00 0. -1.
         24    2    1    2    0    0 -0.16421576478E+02 -0.23496917134E+03  0.39099111377E+03  0.46254189659E+03  0.74771487930E+02 0.  0.
        254    2    1    2    0    0  0.16421576478E+02  0.23496917134E+03 -0.27157619677E+03  0.97061284312E+03  0.90158498264E+03 0.  0.
         23    2    4    4    0    0 -0.15299898581E+03  0.38824835153E+02 -0.55041142372E+03  0.57974373268E+03  0.90741405833E+02 0.  0.
         23    2    4    4    0    0  0.16942056228E+03  0.19614433618E+03  0.27883522695E+03  0.39086911044E+03  0.88620822424E+02 0.  0.
          4    1    3    3  502    0 -0.11233203500E+01 -0.99547672988E+02  0.99434738082E+02  0.14070631892E+03  0.00000000000E+00 0. -1.
         -3    1    3    3    0  502 -0.15298256128E+02 -0.13542149835E+03  0.29155637569E+03  0.32183557768E+03  0.00000000000E+00 0.  1.
         13    1    5    5    0    0 -0.20724945113E+02  0.44654231091E+02 -0.16770410074E+03  0.17478040253E+03  0.00000000000E+00 0.  1.
        -13    1    5    5    0    0 -0.13227404069E+03 -0.58293959380E+01 -0.38270732299E+03  0.40496333015E+03  0.00000000000E+00 0. -1.
          1    1    6    6  503    0  0.12912139970E+03  0.18278903181E+03  0.19472321355E+03  0.29665012372E+03  0.00000000000E+00 0. -1.
         -1    1    6    6    0  503  0.40299162585E+02  0.13355304378E+02  0.84112013404E+02  0.94218986723E+02  0.00000000000E+00 0.  1.
<mgrwt>
<rscale>  0 0.14281711E+04</rscale>
<asrwt>0</asrwt>
<pdfrwt beam="1">  1        2 0.10105691E+00 0.14281711E+04</pdfrwt>
<pdfrwt beam="2">  1       -1 0.11942844E+00 0.14281711E+04</pdfrwt>
<totfact> 0.30857273E+01</totfact>
</mgrwt>
</event>
<event>
12    7  0.1661464E-007  0.4138894E+04  0.7818608E-02  0.7977099E-01
          2   -1    0    0  501    0  0.00000000000E+00  0.00000000000E+00  0.20017723774E+04  0.20017723774E+04  0.00000000000E+00 0. -1.
         -1   -1    0    0    0  501 -0.00000000000E+00 -0.00000000000E+00 -0.21394091473E+04  0.21394091473E+04  0.00000000000E+00 0.  1.
         24    2    1    2    0    0  0.41914603902E+03 -0.16152763400E+04 -0.11145839881E+04  0.20086575488E+04  0.87215969130E+02 0.  0.
        254    2    1    2    0    0 -0.41914603902E+03  0.16152763400E+04  0.97694721822E+03  0.21325239759E+04  0.89912823559E+03 0.  0.
         23    2    4    4    0    0  0.16298846626E+03  0.10795885008E+04  0.49981335195E+03  0.12042244850E+04  0.90921131973E+02 0.  0.
         23    2    4    4    0    0 -0.58213450528E+03  0.53568783917E+03  0.47713386627E+03  0.92829949090E+03  0.90780918701E+02 0.  0.
          4    1    3    3  502    0  0.10760009968E+02 -0.97887866412E+02 -0.84318799766E+02  0.12964363540E+03  0.00000000000E+00 0. -1.
         -3    1    3    3    0  502  0.40838602905E+03 -0.15173884736E+04 -0.10302651883E+04  0.18790139134E+04  0.00000000000E+00 0.  1.
         13    1    5    5    0    0  0.59999260066E+02  0.66184318861E+03  0.28096334246E+03  0.72151002579E+03  0.00000000000E+00 0. -1.
        -13    1    5    5    0    0  0.10298920620E+03  0.41774531220E+03  0.21885000949E+03  0.48271445919E+03  0.00000000000E+00 0.  1.
          1    1    6    6  503    0 -0.23405873568E+03  0.22582851592E+03  0.24796342144E+03  0.40898394678E+03  0.00000000000E+00 0. -1.
         -1    1    6    6    0  503 -0.34807576960E+03  0.30985932324E+03  0.22917044483E+03  0.51931554412E+03  0.00000000000E+00 0.  1.
<mgrwt>
<rscale>  0 0.41388936E+04</rscale>
<asrwt>0</asrwt>
<pdfrwt beam="1">  1        2 0.30796498E+00 0.41388936E+04</pdfrwt>
<pdfrwt beam="2">  1       -1 0.32913987E+00 0.41388936E+04</pdfrwt>
<totfact> 0.12617593E-01</totfact>
</mgrwt>
</event>
<event>
12    7  0.1661464E-007  0.2575047E+04  0.7818608E-02  0.8376727E-01
          2   -1    0    0  501    0  0.00000000000E+00  0.00000000000E+00  0.28649803268E+04  0.28649803268E+04  0.00000000000E+00 0. -1.
         -1   -1    0    0    0  501 -0.00000000000E+00 -0.00000000000E+00 -0.57861382818E+03  0.57861382818E+03  0.00000000000E+00 0.  1.
         24    2    1    2    0    0 -0.10121947279E+04 -0.14623718479E+03  0.15404791637E+04  0.18507616023E+04  0.79491969113E+02 0.  0.
        254    2    1    2    0    0  0.10121947279E+04  0.14623718479E+03  0.74588733487E+03  0.15928325527E+04  0.96687338525E+03 0.  0.
         23    2    4    4    0    0 -0.11132122609E+03  0.52157671975E+01 -0.10166960753E+03  0.17577930429E+03  0.90233226228E+02 0.  0.
         23    2    4    4    0    0  0.11235159540E+04  0.14102141759E+03  0.84755694240E+03  0.14170532484E+04  0.86671789151E+02 0.  0.
          4    1    3    3  502    0 -0.87455085824E+03 -0.99507213020E+02  0.13080604542E+04  0.15766302804E+04  0.00000000000E+00 0. -1.
         -3    1    3    3    0  502 -0.13764386968E+03 -0.46729971771E+02  0.23241870954E+03  0.27413132193E+03  0.00000000000E+00 0.  1.
         13    1    5    5    0    0 -0.11283713949E+03  0.30938699151E+02 -0.76719068711E+02  0.13991153869E+03  0.00000000000E+00 0.  1.
        -13    1    5    5    0    0  0.15159134070E+01 -0.25722931953E+02 -0.24950538817E+02  0.35867765598E+02  0.00000000000E+00 0. -1.
          1    1    6    6  503    0  0.34694158484E+03  0.84081094593E+02  0.26674514311E+03  0.44563557435E+03  0.00000000000E+00 0. -1.
         -1    1    6    6    0  503  0.77657436918E+03  0.56940323001E+02  0.58081179929E+03  0.97141767404E+03  0.00000000000E+00 0.  1.
<mgrwt>
<rscale>  0 0.25750474E+04</rscale>
<asrwt>0</asrwt>
<pdfrwt beam="1">  1        2 0.44076619E+00 0.25750474E+04</pdfrwt>
<pdfrwt beam="2">  1       -1 0.89017514E-01 0.25750474E+04</pdfrwt>
<totfact> 0.26328212E+00</totfact>
</mgrwt>
</event>
<event>
12    7  0.1661464E-007  0.1961411E+04  0.7818608E-02  0.8624878E-01
          2   -1    0    0  501    0  0.00000000000E+00  0.00000000000E+00  0.19743809040E+04  0.19743809040E+04  0.00000000000E+00 0. -1.
         -1   -1    0    0    0  501 -0.00000000000E+00 -0.00000000000E+00 -0.48713141936E+03  0.48713141936E+03  0.00000000000E+00 0.  1.
         24    2    1    2    0    0  0.67498439125E+02 -0.79020764934E+01  0.15419034962E+04  0.15454533959E+04  0.79632437231E+02 0.  0.
        254    2    1    2    0    0 -0.67498439125E+02  0.79020764934E+01 -0.54654011637E+02  0.91605892743E+03  0.91189824840E+03 0.  0.
         23    2    4    4    0    0  0.34510260359E+03 -0.13760528721E+03  0.16678173783E+03  0.41725117479E+03  0.90837066880E+02 0.  0.
         23    2    4    4    0    0 -0.41260104272E+03  0.14550736370E+03 -0.22143574947E+03  0.49880775264E+03  0.91451460406E+02 0.  0.
          2    1    3    3  502    0  0.83985751098E+02  0.13175221662E+01  0.11303269942E+04  0.11334436272E+04  0.00000000000E+00 0. -1.
         -1    1    3    3    0  502 -0.16487311973E+02 -0.92195986596E+01  0.41157650201E+03  0.41200976865E+03  0.00000000000E+00 0.  1.
         13    1    5    5    0    0  0.29068213180E+03 -0.10066391192E+03  0.99869601269E+02  0.32342427578E+03  0.00000000000E+00 0. -1.
        -13    1    5    5    0    0  0.54420471795E+02 -0.36941375283E+02  0.66912136561E+02  0.93826899007E+02  0.00000000000E+00 0.  1.
          3    1    6    6  503    0 -0.27711721982E+03  0.13820167593E+03 -0.17317076474E+03  0.35479821097E+03  0.00000000000E+00 0. -1.
         -3    1    6    6    0  503 -0.13548382289E+03  0.73056877736E+01 -0.48264984728E+02  0.14400954167E+03  0.00000000000E+00 0.  1.
<mgrwt>
<rscale>  0 0.19614107E+04</rscale>
<asrwt>0</asrwt>
<pdfrwt beam="1">  1        2 0.30375090E+00 0.19614107E+04</pdfrwt>
<pdfrwt beam="2">  1       -1 0.74943297E-01 0.19614107E+04</pdfrwt>
<totfact> 0.13119051E+01</totfact>
</mgrwt>
</event>
<event>
12    7  0.1661464E-007  0.1674443E+04  0.7818608E-02  0.8776076E-01
         -1   -1    0    0    0  501 -0.00000000000E+00  0.00000000000E+00  0.32447766433E+03  0.32447766433E+03  0.00000000000E+00 0.  1.
          2   -1    0    0  501    0  0.00000000000E+00 -0.00000000000E+00 -0.21602088135E+04  0.21602088135E+04  0.00000000000E+00 0. -1.
         24    2    1    2    0    0 -0.13181738893E+03 -0.24876077475E+03 -0.14269821693E+04  0.14569672894E+04  0.84957776601E+02 0.  0.
        254    2    1    2    0    0  0.13181738893E+03  0.24876077475E+03 -0.40874897992E+03  0.10277191885E+04  0.89992958318E+03 0.  0.
         23    2    4    4    0    0 -0.68800359298E+02  0.25210785094E+02 -0.63203400797E+03  0.64269994266E+03  0.90703671024E+02 0.  0.
         23    2    4    4    0    0  0.20061774823E+03  0.22354998966E+03  0.22328502805E+03  0.38501924581E+03  0.90341225988E+02 0.  0.
          2    1    3    3  502    0 -0.10993917727E+03 -0.18828321489E+03 -0.12451905026E+04  0.12641347157E+04  0.00000000000E+00 0. -1.
         -1    1    3    3    0  502 -0.21878211666E+02 -0.60477559867E+02 -0.18179166666E+03  0.19283257365E+03  0.00000000000E+00 0.  1.
         13    1    5    5    0    0 -0.79425208580E+02  0.44529914116E+02 -0.43445832002E+03  0.44389785857E+03  0.00000000000E+00 0.  1.
        -13    1    5    5    0    0  0.10624849282E+02 -0.19319129022E+02 -0.19757568795E+03  0.19880208409E+03  0.00000000000E+00 0. -1.
          1    1    6    6  503    0  0.10405933805E+03  0.17390415938E+03  0.12206505561E+03  0.23658165670E+03  0.00000000000E+00 0. -1.
         -1    1    6    6    0  503  0.96558410183E+02  0.49645830277E+02  0.10121997244E+03  0.14843758911E+03  0.00000000000E+00 0.  1.
<mgrwt>
<rscale>  0 0.16744426E+04</rscale>
<asrwt>0</asrwt>
<pdfrwt beam="1">  1        2 0.33233981E+00 0.16744426E+04</pdfrwt>
<pdfrwt beam="2">  1       -1 0.49919641E-01 0.16744426E+04</pdfrwt>
<totfact> 0.23780133E+01</totfact>
</mgrwt>
</event>
<event>
12    7  0.1661464E-007  0.1161254E+04  0.7818608E-02  0.9147463E-01
          2   -1    0    0  501    0  0.00000000000E+00  0.00000000000E+00  0.71802817242E+03  0.71802817242E+03  0.00000000000E+00 0. -1.
         -1   -1    0    0    0  501 -0.00000000000E+00 -0.00000000000E+00 -0.46951886754E+03  0.46951886754E+03  0.00000000000E+00 0.  1.
         24    2    1    2    0    0  0.13482557371E+03 -0.34590842347E+02 -0.12822120454E+03  0.20639418445E+03  0.82361522447E+02 0.  0.
        254    2    1    2    0    0 -0.13482557371E+03  0.34590842347E+02  0.37673050943E+03  0.98115285551E+03  0.89518745939E+03 0.  0.
         23    2    4    4    0    0 -0.29522136334E+03 -0.27173475928E+03 -0.58439389432E+02  0.41769332314E+03  0.10028517931E+03 0.  0.
         23    2    4    4    0    0  0.16039578963E+03  0.30632560163E+03  0.43516989886E+03  0.56345953237E+03  0.92474970657E+02 0.  0.
          4    1    3    3  502    0  0.20584926025E+02 -0.38948914070E+00  0.10787699229E+02  0.23243608496E+02  0.00000000000E+00 0. -1.
         -3    1    3    3    0  502  0.11424064768E+03 -0.34201353206E+02 -0.13900890377E+03  0.18315057595E+03  0.00000000000E+00 0.  1.
         13    1    5    5    0    0 -0.10033314904E+03 -0.14762936414E+03 -0.54423999342E+02  0.18660959691E+03  0.00000000000E+00 0.  1.
        -13    1    5    5    0    0 -0.19488821430E+03 -0.12410539514E+03 -0.40153900904E+01  0.23108372624E+03  0.00000000000E+00 0. -1.
          3    1    6    6  503    0 -0.49732249098E+01  0.55158788341E+02  0.89917764933E+02  0.10560506308E+03  0.00000000000E+00 0. -1.
         -3    1    6    6    0  503  0.16536901454E+03  0.25116681329E+03  0.34525213393E+03  0.45785446929E+03  0.00000000000E+00 0.  1.
<mgrwt>
<rscale>  0 0.11612541E+04</rscale>
<asrwt>0</asrwt>
<pdfrwt beam="1">  1        2 0.11046587E+00 0.11612541E+04</pdfrwt>
<pdfrwt beam="2">  1       -1 0.72233672E-01 0.11612541E+04</pdfrwt>
<totfact> 0.86681580E+01</totfact>
</mgrwt>
</event>
<event>
12    7  0.1661464E-007  0.1482696E+04  0.7818608E-02  0.8896042E-01
         -3   -1    0    0    0  501 -0.00000000000E+00  0.00000000000E+00  0.16363198623E+04  0.16363198623E+04  0.00000000000E+00 0.  1.
          4   -1    0    0  501    0  0.00000000000E+00 -0.00000000000E+00 -0.33587359746E+03  0.33587359746E+03  0.00000000000E+00 0. -1.
         24    2    1    2    0    0  0.28187344184E+03 -0.20346142828E+03  0.80806051526E+03  0.88300032438E+03  0.76671940914E+02 0.  0.
        254    2    1    2    0    0 -0.28187344184E+03  0.20346142828E+03  0.49238574955E+03  0.10891931353E+04  0.90722035344E+03 0.  0.
         23    2    4    4    0    0 -0.33910866028E+03 -0.27501073541E+03  0.95166661373E+02  0.45819135177E+03  0.10127701287E+03 0.  0.
         23    2    4    4    0    0  0.57235218440E+02  0.47847216369E+03  0.39721908817E+03  0.63100178357E+03  0.90381221479E+02 0.  0.
          2    1    3    3  502    0  0.20986999037E+01  0.33055067896E+01  0.83829985608E+00  0.40042056728E+01  0.00000000000E+00 0. -1.
         -1    1    3    3    0  502  0.27977474194E+03 -0.20676693507E+03  0.80722221540E+03  0.87899611871E+03  0.00000000000E+00 0.  1.
         13    1    5    5    0    0 -0.13628743294E+03 -0.13559530662E+03 -0.53875665478E+01  0.19232622658E+03  0.00000000000E+00 0.  1.
        -13    1    5    5    0    0 -0.20282122734E+03 -0.13941542879E+03  0.10055422792E+03  0.26586512520E+03  0.00000000000E+00 0. -1.
          2    1    6    6  503    0  0.52365302767E+02  0.15357562396E+03  0.99738003423E+02  0.19046066926E+03  0.00000000000E+00 0. -1.
         -2    1    6    6    0  503  0.48699156729E+01  0.32489653973E+03  0.29748108475E+03  0.44054111431E+03  0.00000000000E+00 0.  1.
<mgrwt>
<rscale>  0 0.14826957E+04</rscale>
<asrwt>0</asrwt>
<pdfrwt beam="1">  1        4 0.51672862E-01 0.14826957E+04</pdfrwt>
<pdfrwt beam="2">  1       -3 0.25174151E+00 0.14826957E+04</pdfrwt>
<totfact> 0.57162613E-01</totfact>
</mgrwt>
</event>
<event>
12    7  0.1661464E-007  0.1694007E+04  0.7818608E-02  0.8764790E-01
         -1   -1    0    0    0  501 -0.00000000000E+00  0.00000000000E+00  0.41896211288E+03  0.41896211288E+03  0.00000000000E+00 0.  1.
          2   -1    0    0  501    0  0.00000000000E+00 -0.00000000000E+00 -0.17123628180E+04  0.17123628180E+04  0.00000000000E+00 0. -1.
         24    2    1    2    0    0 -0.49111685634E+03  0.72201414502E+02 -0.33205523267E+02  0.50330108272E+03  0.76161422354E+02 0.  0.
        254    2    1    2    0    0  0.49111685634E+03 -0.72201414502E+02 -0.12601951818E+04  0.16280238481E+04  0.90330556456E+03 0.  0.
         23    2    4    4    0    0  0.23027592233E+03  0.22989571501E+03 -0.11566981557E+04  0.12050876840E+04  0.91687852958E+02 0.  0.
         23    2    4    4    0    0  0.26084093401E+03 -0.30209712951E+03 -0.10349702611E+03  0.42293616419E+03  0.94141893180E+02 0.  0.
          2    1    3    3  502    0 -0.15053956672E+03  0.53908290858E+02 -0.27081408328E+02  0.16217788890E+03  0.00000000000E+00 0. -1.
         -1    1    3    3    0  502 -0.34057728962E+03  0.18293123644E+02 -0.61241149394E+01  0.34112319382E+03  0.00000000000E+00 0.  1.
         13    1    5    5    0    0  0.52009878809E+02  0.54772595913E+02 -0.43102011390E+03  0.43758816636E+03  0.00000000000E+00 0. -1.
        -13    1    5    5    0    0  0.17826604352E+03  0.17512311910E+03 -0.72567804182E+03  0.76749951759E+03  0.00000000000E+00 0.  1.
          2    1    6    6  503    0  0.24290587576E+03 -0.22679521961E+03 -0.77098221001E+02  0.34115021882E+03  0.00000000000E+00 0. -1.
         -2    1    6    6    0  503  0.17935058246E+02 -0.75301909899E+02 -0.26398805111E+02  0.81785945369E+02  0.00000000000E+00 0.  1.
<mgrwt>
<rscale>  0 0.16940073E+04</rscale>
<asrwt>0</asrwt>
<pdfrwt beam="1">  1        2 0.26344043E+00 0.16940073E+04</pdfrwt>
<pdfrwt beam="2">  1       -1 0.64455711E-01 0.16940073E+04</pdfrwt>
<totfact> 0.25549137E+01</totfact>
</mgrwt>
</event>
<event>
12    7  0.1661464E-007  0.1854757E+04  0.7818608E-02  0.8677710E-01
         -1   -1    0    0    0  501 -0.00000000000E+00  0.00000000000E+00  0.96515265480E+03  0.96515265480E+03  0.00000000000E+00 0.  1.
          2   -1    0    0  501    0  0.00000000000E+00 -0.00000000000E+00 -0.89108292091E+03  0.89108292091E+03  0.00000000000E+00 0. -1.
         24    2    1    2    0    0  0.31248240335E+03 -0.83317781729E+02 -0.59474552638E+03  0.68166349823E+03  0.79723136626E+02 0.  0.
        254    2    1    2    0    0 -0.31248240335E+03  0.83317781729E+02  0.66881526027E+03  0.11745720775E+04  0.90979041964E+03 0.  0.
         23    2    4    4    0    0 -0.90387573252E+02 -0.38317360984E+03  0.13682276274E+03  0.42719208011E+03  0.93705262538E+02 0.  0.
         23    2    4    4    0    0 -0.22209483009E+03  0.46649139157E+03  0.53199249754E+03  0.74737999737E+03  0.92846707374E+02 0.  0.
          4    1    3    3  502    0  0.27161832437E+03 -0.76469165331E+02 -0.45043099742E+03  0.53151870222E+03  0.00000000000E+00 0. -1.
         -3    1    3    3    0  502  0.40864078977E+02 -0.68486163986E+01 -0.14431452896E+03  0.15014479600E+03  0.00000000000E+00 0.  1.
         13    1    5    5    0    0 -0.42186781999E+02 -0.16978848504E+03  0.12087892107E+02  0.17536810247E+03  0.00000000000E+00 0.  1.
        -13    1    5    5    0    0 -0.48200791253E+02 -0.21338512480E+03  0.12473487063E+03  0.25182397764E+03  0.00000000000E+00 0. -1.
          1    1    6    6  503    0 -0.60179351339E+02  0.22414369033E+03  0.20891884098E+03  0.31226435973E+03  0.00000000000E+00 0. -1.
         -1    1    6    6    0  503 -0.16191547876E+03  0.24234770124E+03  0.32307365655E+03  0.43511563764E+03  0.00000000000E+00 0.  1.
<mgrwt>
<rscale>  0 0.18547572E+04</rscale>
<asrwt>0</asrwt>
<pdfrwt beam="1">  1        2 0.13708968E+00 0.18547572E+04</pdfrwt>
<pdfrwt beam="2">  1       -1 0.14848502E+00 0.18547572E+04</pdfrwt>
<totfact> 0.11436673E+01</totfact>
</mgrwt>
</event>
<event>
12    7  0.1661464E-007  0.1691230E+04  0.7818608E-02  0.8766382E-01
         -1   -1    0    0    0  501 -0.00000000000E+00  0.00000000000E+00  0.67888384376E+03  0.67888384376E+03  0.00000000000E+00 0.  1.
          2   -1    0    0  501    0  0.00000000000E+00 -0.00000000000E+00 -0.10532946607E+04  0.10532946607E+04  0.00000000000E+00 0. -1.
         24    2    1    2    0    0 -0.80867824225E+02 -0.61657139749E+02  0.46977376875E+03  0.48740638397E+03  0.80847890799E+02 0.  0.
        254    2    1    2    0    0  0.80867824225E+02  0.61657139749E+02 -0.84418458573E+03  0.12447721205E+04  0.90910329963E+03 0.  0.
         23    2    4    4    0    0  0.39676320812E+03  0.63908774916E+02 -0.89754060832E+02  0.42180425021E+03  0.91420234245E+02 0.  0.
         23    2    4    4    0    0 -0.31589538390E+03 -0.22516351666E+01 -0.75443052490E+03  0.82296787033E+03  0.91190653365E+02 0.  0.
          2    1    3    3  502    0 -0.84385688066E+01 -0.24866403670E+02  0.28645459402E+02  0.38860131489E+02  0.00000000000E+00 0. -1.
         -1    1    3    3    0  502 -0.72429255418E+02 -0.36790736080E+02  0.44112830935E+03  0.44854625248E+03  0.00000000000E+00 0.  1.
         13    1    5    5    0    0  0.21301962022E+03  0.23267458135E+01 -0.80696294087E+02  0.22780400396E+03  0.00000000000E+00 0.  1.
        -13    1    5    5    0    0  0.18374358791E+03  0.61582029103E+02 -0.90577667448E+01  0.19400024625E+03  0.00000000000E+00 0. -1.
          2    1    6    6  503    0 -0.28137409111E+03 -0.23746563042E+02 -0.70164618270E+03  0.75633500785E+03  0.00000000000E+00 0.  1.
         -2    1    6    6    0  503 -0.34521292792E+02  0.21494927875E+02 -0.52784342197E+02  0.66632862474E+02  0.00000000000E+00 0. -1.
<mgrwt>
<rscale>  0 0.16912300E+04</rscale>
<asrwt>0</asrwt>
<pdfrwt beam="1">  1        2 0.16204533E+00 0.16912300E+04</pdfrwt>
<pdfrwt beam="2">  1       -1 0.10444367E+00 0.16912300E+04</pdfrwt>
<totfact> 0.21816179E+01</totfact>
</mgrwt>
</event>
<event>
12    7  0.1661464E-007  0.2116664E+04  0.7818608E-02  0.8553938E-01
         -1   -1    0    0    0  501 -0.00000000000E+00  0.00000000000E+00  0.95847682306E+03  0.95847682306E+03  0.00000000000E+00 0.  1.
          2   -1    0    0  501    0  0.00000000000E+00 -0.00000000000E+00 -0.11685903242E+04  0.11685903242E+04  0.00000000000E+00 0. -1.
         24    2    1    2    0    0  0.24678194683E+03 -0.43448791202E+03  0.63952531599E+03  0.81539445508E+03  0.78704590810E+02 0.  0.
        254    2    1    2    0    0 -0.24678194683E+03  0.43448791202E+03 -0.84963881717E+03  0.13116726922E+04  0.86540051819E+03 0.  0.
         23    2    4    4    0    0 -0.70029973602E+02  0.58497071169E+02  0.16393457360E+03  0.21241270972E+03  0.99591717969E+02 0.  0.
         23    2    4    4    0    0 -0.17675197323E+03  0.37599084085E+03 -0.10135733908E+04  0.10992599825E+04  0.91821120619E+02 0.  0.
          4    1    3    3  502    0  0.55667836186E+02 -0.53301962796E+02  0.71524091306E+02  0.10514610245E+03  0.00000000000E+00 0. -1.
         -3    1    3    3    0  502  0.19111411064E+03 -0.38118594922E+03  0.56800122468E+03  0.71024835263E+03  0.00000000000E+00 0.  1.
         13    1    5    5    0    0  0.12972337702E+02 -0.31439690318E+01 -0.50818635814E+01  0.14282556640E+02  0.00000000000E+00 0.  1.
        -13    1    5    5    0    0 -0.83002311304E+02  0.61641040201E+02  0.16901643718E+03  0.19813015307E+03  0.00000000000E+00 0. -1.
          3    1    6    6  503    0 -0.18449783131E+03  0.37216571289E+03 -0.10029535657E+04  0.10855701832E+04  0.00000000000E+00 0. -1.
         -3    1    6    6    0  503  0.77458580795E+01  0.38251279596E+01 -0.10619825052E+02  0.13689799320E+02  0.00000000000E+00 0.  1.
<mgrwt>
<rscale>  0 0.21166641E+04</rscale>
<asrwt>0</asrwt>
<pdfrwt beam="1">  1        2 0.17978313E+00 0.21166641E+04</pdfrwt>
<pdfrwt beam="2">  1       -1 0.14745797E+00 0.21166641E+04</pdfrwt>
<totfact> 0.75834962E+00</totfact>
</mgrwt>
</event>
<event>
12    7  0.1661464E-007  0.1176587E+04  0.7818608E-02  0.9133600E-01
          2   -1    0    0  501    0  0.00000000000E+00  0.00000000000E+00  0.23434406047E+04  0.23434406047E+04  0.00000000000E+00 0. -1.
         -1   -1    0    0    0  501 -0.00000000000E+00 -0.00000000000E+00 -0.14768419747E+03  0.14768419747E+03  0.00000000000E+00 0.  1.
         24    2    1    2    0    0 -0.61816479506E+02  0.10780657536E+03  0.87578733084E+03  0.88826846564E+03  0.81079487930E+02 0.  0.
        254    2    1    2    0    0  0.61816479506E+02 -0.10780657536E+03  0.13199690764E+04  0.16028563365E+04  0.90076996957E+03 0.  0.
         23    2    4    4    0    0  0.26267774385E+03 -0.35315044398E+03  0.32502589689E+03  0.55470058195E+03  0.91302074249E+02 0.  0.
         23    2    4    4    0    0 -0.20086126435E+03  0.24534386862E+03  0.99494317947E+03  0.10481557546E+04  0.90441661034E+02 0.  0.
          4    1    3    3  502    0 -0.85543445872E+00  0.30545801604E+02  0.45914094737E+03  0.46015669865E+03  0.00000000000E+00 0. -1.
         -3    1    3    3    0  502 -0.60961045047E+02  0.77260773758E+02  0.41664638348E+03  0.42811176699E+03  0.00000000000E+00 0.  1.
         13    1    5    5    0    0  0.94328865168E+02 -0.19434275023E+03  0.18336010142E+03  0.28335131227E+03  0.00000000000E+00 0. -1.
        -13    1    5    5    0    0  0.16834887869E+03 -0.15880769375E+03  0.14166579548E+03  0.27134926968E+03  0.00000000000E+00 0.  1.
          4    1    6    6  503    0 -0.17715218049E+03  0.22313140376E+03  0.95541395513E+03  0.99698863787E+03  0.00000000000E+00 0. -1.
         -4    1    6    6    0  503 -0.23709083862E+02  0.22212464856E+02  0.39529224346E+02  0.51167116686E+02  0.00000000000E+00 0.  1.
<mgrwt>
<rscale>  0 0.11765868E+04</rscale>
<asrwt>0</asrwt>
<pdfrwt beam="1">  1        2 0.36052930E+00 0.11765868E+04</pdfrwt>
<pdfrwt beam="2">  1       -1 0.22720647E-01 0.11765868E+04</pdfrwt>
<totfact> 0.79897812E+01</totfact>
</mgrwt>
</event>
<event>
12    7  0.1661464E-007  0.2532512E+04  0.7818608E-02  0.8391494E-01
         -1   -1    0    0    0  501 -0.00000000000E+00  0.00000000000E+00  0.17358637501E+04  0.17358637501E+04  0.00000000000E+00 0.  1.
          2   -1    0    0  501    0  0.00000000000E+00 -0.00000000000E+00 -0.92369235156E+03  0.92369235156E+03  0.00000000000E+00 0. -1.
         24    2    1    2    0    0 -0.13343831711E+03  0.73855602115E+03 -0.47570841187E+03  0.89235827212E+03  0.82061025157E+02 0.  0.
        254    2    1    2    0    0  0.13343831711E+03 -0.73855602115E+03  0.12878798104E+04  0.17671978295E+04  0.94925390796E+03 0.  0.
         23    2    4    4    0    0  0.31345453953E+03  0.10496742667E+03  0.33303913137E+03  0.47729260700E+03  0.87299831942E+02 0.  0.
         23    2    4    4    0    0 -0.18001622242E+03 -0.84352344783E+03  0.95484067903E+03  0.12899052225E+04  0.90537911376E+02 0.  0.
          2    1    3    3  502    0 -0.11574020804E+03  0.69944753784E+03 -0.46584640911E+03  0.84831334472E+03  0.00000000000E+00 0. -1.
         -1    1    3    3    0  502 -0.17698109075E+02  0.39108483310E+02 -0.98620027644E+01  0.44044927405E+02  0.00000000000E+00 0.  1.
         13    1    5    5    0    0  0.47758119224E+02  0.13023307655E+01  0.92859266814E+02  0.10442881523E+03  0.00000000000E+00 0. -1.
        -13    1    5    5    0    0  0.26569642031E+03  0.10366509591E+03  0.24017986456E+03  0.37286379177E+03  0.00000000000E+00 0.  1.
          3    1    6    6  503    0 -0.40056958049E+02 -0.13496425815E+03  0.20605599857E+03  0.24955757935E+03  0.00000000000E+00 0. -1.
         -3    1    6    6    0  503 -0.13995926437E+03 -0.70855918968E+03  0.74878468046E+03  0.10403476432E+04  0.00000000000E+00 0.  1.
<mgrwt>
<rscale>  0 0.25325119E+04</rscale>
<asrwt>0</asrwt>
<pdfrwt beam="1">  1        2 0.14210652E+00 0.25325119E+04</pdfrwt>
<pdfrwt beam="2">  1       -1 0.26705596E+00 0.25325119E+04</pdfrwt>
<totfact> 0.15477497E+00</totfact>
</mgrwt>
</event>
<event>
12    7  0.1661464E-007  0.1324974E+04  0.7818608E-02  0.9009992E-01
         -1   -1    0    0    0  501 -0.00000000000E+00  0.00000000000E+00  0.32366982846E+03  0.32366982846E+03  0.00000000000E+00 0.  1.
          2   -1    0    0  501    0  0.00000000000E+00 -0.00000000000E+00 -0.13559778223E+04  0.13559778223E+04  0.00000000000E+00 0. -1.
         24    2    1    2    0    0  0.80756494027E+02  0.40672020068E+02  0.15361382632E+03  0.19532204751E+03  0.79860315951E+02 0.  0.
        254    2    1    2    0    0 -0.80756494027E+02 -0.40672020068E+02 -0.11859218202E+04  0.14843256033E+04  0.88805186133E+03 0.  0.
         23    2    4    4    0    0 -0.14577994397E+03 -0.44075935781E+03 -0.70283512923E+03  0.84703251582E+03  0.89253909748E+02 0.  0.
         23    2    4    4    0    0  0.65023449945E+02  0.40008733774E+03 -0.48308669096E+03  0.63729308747E+03  0.92042389610E+02 0.  0.
          2    1    3    3  502    0 -0.92796742761E+01  0.82478718479E+01 -0.20617109096E+01  0.12585324651E+02  0.00000000000E+00 0. -1.
         -1    1    3    3    0  502  0.90036168303E+02  0.32424148220E+02  0.15567553723E+03  0.18273672286E+03  0.00000000000E+00 0.  1.
         13    1    5    5    0    0 -0.69098905797E+00 -0.90639001743E+02 -0.17691421591E+03  0.19878265994E+03  0.00000000000E+00 0. -1.
        -13    1    5    5    0    0 -0.14508895491E+03 -0.35012035607E+03 -0.52592091333E+03  0.64824985588E+03  0.00000000000E+00 0.  1.
          1    1    6    6  503    0 -0.16607663940E+02  0.51025237217E+02 -0.37789930486E+02  0.65631304884E+02  0.00000000000E+00 0. -1.
         -1    1    6    6    0  503  0.81631113884E+02  0.34906210053E+03 -0.44529676048E+03  0.57166178258E+03  0.00000000000E+00 0.  1.
<mgrwt>
<rscale>  0 0.13249741E+04</rscale>
<asrwt>0</asrwt>
<pdfrwt beam="1">  1        2 0.20861197E+00 0.13249741E+04</pdfrwt>
<pdfrwt beam="2">  1       -1 0.49795359E-01 0.13249741E+04</pdfrwt>
<totfact> 0.69188496E+01</totfact>
</mgrwt>
</event>
<event>
12    7  0.1661464E-007  0.1045789E+04  0.7818608E-02  0.9259702E-01
          2   -1    0    0  501    0  0.00000000000E+00  0.00000000000E+00  0.12621917938E+04  0.12621917938E+04  0.00000000000E+00 0. -1.
         -1   -1    0    0    0  501 -0.00000000000E+00 -0.00000000000E+00 -0.21662222679E+03  0.21662222679E+03  0.00000000000E+00 0.  1.
         24    2    1    2    0    0 -0.96651955688E+02  0.80310223357E+01  0.52886397431E+02  0.13658877860E+03  0.80333215716E+02 0.  0.
        254    2    1    2    0    0  0.96651955688E+02 -0.80310223357E+01  0.99268316955E+03  0.13422252420E+04  0.89818852542E+03 0.  0.
         23    2    4    4    0    0  0.24887734280E+03 -0.39007924210E+03  0.42691645471E+03  0.63684622931E+03  0.95988090968E+02 0.  0.
         23    2    4    4    0    0 -0.15222538711E+03  0.38204821976E+03  0.56576671485E+03  0.70537901266E+03  0.91291648966E+02 0.  0.
          4    1    3    3  502    0  0.10082468784E+02 -0.13634548785E+02  0.56352005038E+01  0.17869319575E+02  0.00000000000E+00 0. -1.
         -3    1    3    3    0  502 -0.10673442447E+03  0.21665571120E+02  0.47251196927E+02  0.11871945902E+03  0.00000000000E+00 0.  1.
         13    1    5    5    0    0  0.17740085704E+03 -0.21991673059E+03  0.30437203376E+03  0.41530322345E+03  0.00000000000E+00 0. -1.
        -13    1    5    5    0    0  0.71476485758E+02 -0.17016251151E+03  0.12254442095E+03  0.22154300586E+03  0.00000000000E+00 0.  1.
          2    1    6    6  503    0 -0.13380516501E+03  0.32724952552E+03  0.42264165384E+03  0.55101909377E+03  0.00000000000E+00 0. -1.
         -2    1    6    6    0  503 -0.18420222100E+02  0.54798694245E+02  0.14312506101E+03  0.15435991890E+03  0.00000000000E+00 0.  1.
<mgrwt>
<rscale>  0 0.10457893E+04</rscale>
<asrwt>0</asrwt>
<pdfrwt beam="1">  1        2 0.19418335E+00 0.10457893E+04</pdfrwt>
<pdfrwt beam="2">  1       -1 0.33326497E-01 0.10457893E+04</pdfrwt>
<totfact> 0.16707046E+02</totfact>
</mgrwt>
</event>
<event>
12    7  0.1661464E-007  0.1839588E+04  0.7818608E-02  0.8685526E-01
          2   -1    0    0  501    0  0.00000000000E+00  0.00000000000E+00  0.32830673704E+04  0.32830673704E+04  0.00000000000E+00 0. -1.
         -3   -1    0    0    0  501 -0.00000000000E+00 -0.00000000000E+00 -0.25769211652E+03  0.25769211652E+03  0.00000000000E+00 0.  1.
         24    2    1    2    0    0  0.67022374082E+03 -0.14922049739E+03  0.92863716172E+03  0.11575864386E+04  0.78566947138E+02 0.  0.
        254    2    1    2    0    0 -0.67022374082E+03  0.14922049739E+03  0.20967380922E+04  0.23831730483E+04  0.90096422314E+03 0.  0.
         23    2    4    4    0    0 -0.82842205254E+03  0.46498082801E+02  0.11995923753E+04  0.14614004321E+04  0.90687303370E+02 0.  0.
         23    2    4    4    0    0  0.15819831172E+03  0.10272241459E+03  0.89714571685E+03  0.92177261626E+03  0.95998534070E+02 0.  0.
          2    1    3    3  502    0  0.19533957608E+03 -0.25217649884E+02  0.31935043387E+03  0.37520418369E+03  0.00000000000E+00 0. -1.
         -1    1    3    3    0  502  0.47488416474E+03 -0.12400284751E+03  0.60928672785E+03  0.78238225495E+03  0.00000000000E+00 0.  1.
         13    1    5    5    0    0 -0.40261333582E+03  0.67865733440E+02  0.58067210994E+03  0.70984741686E+03  0.00000000000E+00 0.  1.
        -13    1    5    5    0    0 -0.42580871672E+03 -0.21367650640E+02  0.61892026540E+03  0.75155301519E+03  0.00000000000E+00 0. -1.
          3    1    6    6  503    0 -0.67228301296E+01  0.11444777121E+02  0.16481782529E+02  0.21161959352E+02  0.00000000000E+00 0. -1.
         -3    1    6    6    0  503  0.16492114185E+03  0.91277637471E+02  0.88066393432E+03  0.90061065691E+03  0.00000000000E+00 0.  1.
<mgrwt>
<rscale>  0 0.18395875E+04</rscale>
<asrwt>0</asrwt>
<pdfrwt beam="1">  1        2 0.50508726E+00 0.18395875E+04</pdfrwt>
<pdfrwt beam="2">  1       -3 0.39644943E-01 0.18395875E+04</pdfrwt>
<totfact> 0.44343439E+00</totfact>
</mgrwt>
</event>
<event>
12    7  0.1661464E-007  0.1489219E+04  0.7818608E-02  0.8891654E-01
         -1   -1    0    0    0  501 -0.00000000000E+00  0.00000000000E+00  0.38339959298E+03  0.38339959298E+03  0.00000000000E+00 0.  1.
          2   -1    0    0  501    0  0.00000000000E+00 -0.00000000000E+00 -0.14461239975E+04  0.14461239975E+04  0.00000000000E+00 0. -1.
         24    2    1    2    0    0 -0.10787928508E+03  0.94198008156E+02  0.20730328907E+03  0.26384681052E+03  0.78289723908E+02 0.  0.
        254    2    1    2    0    0  0.10787928508E+03 -0.94198008156E+02 -0.12700276936E+04  0.15656767799E+04  0.90435735852E+03 0.  0.
         23    2    4    4    0    0 -0.10726737509E+03  0.47198426070E+02  0.91783667942E+02  0.17677246384E+03  0.95342965587E+02 0.  0.
         23    2    4    4    0    0  0.21514666017E+03 -0.14139643423E+03 -0.13618113615E+04  0.13889043161E+04  0.90796354249E+02 0.  0.
          4    1    3    3  502    0 -0.29552617946E+02  0.38040271906E+02  0.18004388526E+02  0.51425455957E+02  0.00000000000E+00 0. -1.
         -3    1    3    3    0  502 -0.78326667134E+02  0.56157736249E+02  0.18929890055E+03  0.21242135456E+03  0.00000000000E+00 0.  1.
         13    1    5    5    0    0 -0.42144631078E+02 -0.28016321285E+02  0.21629009547E+02  0.55035427145E+02  0.00000000000E+00 0.  1.
        -13    1    5    5    0    0 -0.65122744013E+02  0.75214747355E+02  0.70154658395E+02  0.12173703669E+03  0.00000000000E+00 0. -1.
          4    1    6    6  503    0  0.10060242145E+03 -0.19533705180E+02 -0.41725516147E+03  0.42965600497E+03  0.00000000000E+00 0. -1.
         -4    1    6    6    0  503  0.11454423872E+03 -0.12186272905E+03 -0.94455620005E+03  0.95924831113E+03  0.00000000000E+00 0.  1.
<mgrwt>
<rscale>  0 0.14892191E+04</rscale>
<asrwt>0</asrwt>
<pdfrwt beam="1">  1        2 0.22248061E+00 0.14892191E+04</pdfrwt>
<pdfrwt beam="2">  1       -1 0.58984553E-01 0.14892191E+04</pdfrwt>
<totfact> 0.43719465E+01</totfact>
</mgrwt>
</event>
<event>
12    7  0.1661464E-007  0.1441245E+04  0.7818608E-02  0.8924493E-01
          2   -1    0    0  501    0  0.00000000000E+00  0.00000000000E+00  0.23014059309E+04  0.23014059309E+04  0.00000000000E+00 0. -1.
         -1   -1    0    0    0  501 -0.00000000000E+00 -0.00000000000E+00 -0.22564328779E+03  0.22564328779E+03  0.00000000000E+00 0.  1.
         24    2    1    2    0    0  0.43298794130E+03  0.77792162798E+01  0.56886425497E+03  0.72018499646E+03  0.86722632682E+02 0.  0.
        254    2    1    2    0    0 -0.43298794130E+03 -0.77792162798E+01  0.15068983882E+04  0.18068642223E+04  0.89804036207E+03 0.  0.
         23    2    4    4    0    0  0.21565363507E+03 -0.32439677481E+02  0.83820827497E+03  0.87083333581E+03  0.90547023896E+02 0.  0.
         23    2    4    4    0    0 -0.64864157637E+03  0.24660461201E+02  0.66869011319E+03  0.93603088644E+03  0.87540390443E+02 0.  0.
          4    1    3    3  502    0  0.12104011689E+03 -0.16679888768E+02  0.21922975193E+03  0.25097930735E+03  0.00000000000E+00 0. -1.
         -3    1    3    3    0  502  0.31194782441E+03  0.24459105048E+02  0.34963450304E+03  0.46920568910E+03  0.00000000000E+00 0.  1.
         13    1    5    5    0    0  0.95071133778E+02  0.17306853615E+02  0.24320391033E+03  0.26169866194E+03  0.00000000000E+00 0. -1.
        -13    1    5    5    0    0  0.12058250129E+03 -0.49746531096E+02  0.59500436464E+03  0.60913467388E+03  0.00000000000E+00 0.  1.
          1    1    6    6  503    0 -0.14613580364E+03  0.17175086812E+02  0.10454949517E+03  0.18050278018E+03  0.00000000000E+00 0. -1.
         -1    1    6    6    0  503 -0.50250577273E+03  0.74853743894E+01  0.56414061802E+03  0.75552810626E+03  0.00000000000E+00 0.  1.
<mgrwt>
<rscale>  0 0.14412450E+04</rscale>
<asrwt>0</asrwt>
<pdfrwt beam="1">  1        2 0.35406243E+00 0.14412450E+04</pdfrwt>
<pdfrwt beam="2">  1       -1 0.34714354E-01 0.14412450E+04</pdfrwt>
<totfact> 0.39461082E+01</totfact>
</mgrwt>
</event>
<event>
12    7  0.1661464E-007  0.1158028E+04  0.7818608E-02  0.9150409E-01
          2   -1    0    0  501    0  0.00000000000E+00  0.00000000000E+00  0.79734122244E+03  0.79734122244E+03  0.00000000000E+00 0. -1.
         -1   -1    0    0    0  501 -0.00000000000E+00 -0.00000000000E+00 -0.42046909782E+03  0.42046909782E+03  0.00000000000E+00 0.  1.
         24    2    1    2    0    0 -0.63420147855E+02 -0.19044285545E+03  0.10341587861E+03  0.23636224249E+03  0.69868944329E+02 0.  0.
        254    2    1    2    0    0  0.63420147855E+02  0.19044285545E+03  0.27345624601E+03  0.98144807777E+03  0.92096222210E+03 0.  0.
         23    2    4    4    0    0 -0.25937586972E+03  0.75641883371E+02  0.48971175177E+03  0.56651697817E+03  0.90146272357E+02 0.  0.
         23    2    4    4    0    0  0.32279601757E+03  0.11480097208E+03 -0.21625550576E+03  0.41493109961E+03  0.89581479671E+02 0.  0.
          4    1    3    3  502    0 -0.19778325431E+02 -0.15151141349E+03  0.86022420732E+02  0.17534750481E+03  0.00000000000E+00 0. -1.
         -3    1    3    3    0  502 -0.43641822424E+02 -0.38931441960E+02  0.17393457883E+02  0.61014737685E+02  0.00000000000E+00 0.  1.
         13    1    5    5    0    0 -0.26148587386E+03  0.79455732452E+02  0.44942517860E+03  0.52599531063E+03  0.00000000000E+00 0.  1.
        -13    1    5    5    0    0  0.21100041399E+01 -0.38138490808E+01  0.40286573164E+02  0.40521667532E+02  0.00000000000E+00 0. -1.
          1    1    6    6  503    0  0.45338555674E+02 -0.11512127689E+02 -0.13073514273E+02  0.48569851657E+02  0.00000000000E+00 0. -1.
         -1    1    6    6    0  503  0.27745746190E+03  0.12631309976E+03 -0.20318199149E+03  0.36636124795E+03  0.00000000000E+00 0.  1.
<mgrwt>
<rscale>  0 0.11580282E+04</rscale>
<asrwt>0</asrwt>
<pdfrwt beam="1">  1        2 0.12266788E+00 0.11580282E+04</pdfrwt>
<pdfrwt beam="2">  1       -1 0.64687554E-01 0.11580282E+04</pdfrwt>
<totfact> 0.94712870E+01</totfact>
</mgrwt>
</event>
<event>
12    7  0.1661464E-007  0.1293556E+04  0.7818608E-02  0.9034691E-01
          2   -1    0    0  501    0  0.00000000000E+00  0.00000000000E+00  0.98586895461E+03  0.98586895461E+03  0.00000000000E+00 0. -1.
         -1   -1    0    0    0  501 -0.00000000000E+00 -0.00000000000E+00 -0.42431807668E+03  0.42431807668E+03  0.00000000000E+00 0.  1.
         24    2    1    2    0    0  0.26168958133E+03  0.17730382840E+03  0.20577931228E+03  0.38546888784E+03  0.79517630676E+02 0.  0.
        254    2    1    2    0    0 -0.26168958133E+03 -0.17730382840E+03  0.35577156565E+03  0.10247181434E+04  0.90749974217E+03 0.  0.
         23    2    4    4    0    0  0.57504221399E+02  0.31367735116E+03 -0.26852578960E+01  0.33189412611E+03  0.91903668198E+02 0.  0.
         23    2    4    4    0    0 -0.31919380273E+03 -0.49098117956E+03  0.35845682355E+03  0.69282401733E+03  0.92556049234E+02 0.  0.
          4    1    3    3  502    0  0.23933917454E+03  0.12906982138E+03  0.18214991413E+03  0.32729321789E+03  0.00000000000E+00 0. -1.
         -3    1    3    3    0  502  0.22350406798E+02  0.48234007027E+02  0.23629398146E+02  0.58175669955E+02  0.00000000000E+00 0.  1.
         13    1    5    5    0    0 -0.23564630957E+01  0.19238995436E+03  0.24426014145E+02  0.19394864688E+03  0.00000000000E+00 0. -1.
        -13    1    5    5    0    0  0.59860684494E+02  0.12128739680E+03 -0.27111272041E+02  0.13794547924E+03  0.00000000000E+00 0.  1.
          2    1    6    6  503    0 -0.20780464474E+03 -0.32852102456E+03  0.18563342215E+03  0.43077674191E+03  0.00000000000E+00 0. -1.
         -2    1    6    6    0  503 -0.11138915799E+03 -0.16246015501E+03  0.17282340140E+03  0.26204727542E+03  0.00000000000E+00 0.  1.
<mgrwt>
<rscale>  0 0.12935564E+04</rscale>
<asrwt>0</asrwt>
<pdfrwt beam="1">  1        2 0.15167215E+00 0.12935564E+04</pdfrwt>
<pdfrwt beam="2">  1       -1 0.65279704E-01 0.12935564E+04</pdfrwt>
<totfact> 0.68468924E+01</totfact>
</mgrwt>
</event>
<event>
12    7  0.1661464E-007  0.1501166E+04  0.7818608E-02  0.8883678E-01
         -1   -1    0    0    0  501 -0.00000000000E+00  0.00000000000E+00  0.72491913315E+03  0.72491913315E+03  0.00000000000E+00 0.  1.
          2   -1    0    0  501    0  0.00000000000E+00 -0.00000000000E+00 -0.77715556978E+03  0.77715556978E+03  0.00000000000E+00 0. -1.
         24    2    1    2    0    0 -0.27034345490E+02  0.27692380497E+03  0.36314207730E+03  0.46443624005E+03  0.80069989192E+02 0.  0.
        254    2    1    2    0    0  0.27034345490E+02 -0.27692380497E+03 -0.41537851393E+03  0.10376384629E+04  0.90925058165E+03 0.  0.
         23    2    4    4    0    0  0.25588492969E+03 -0.12151286234E+03  0.19901526188E+03  0.35789267402E+03  0.90761328195E+02 0.  0.
         23    2    4    4    0    0 -0.22885058420E+03 -0.15541094263E+03 -0.61439377581E+03  0.67974578887E+03  0.89718865081E+02 0.  0.
          2    1    3    3  502    0 -0.27590602439E+02  0.25178526498E+02  0.55863034882E+02  0.67200284269E+02  0.00000000000E+00 0. -1.
         -1    1    3    3    0  502  0.55625694956E+00  0.25174527847E+03  0.30727904242E+03  0.39723595578E+03  0.00000000000E+00 0.  1.
         13    1    5    5    0    0  0.12213612516E+02 -0.37837401367E+02  0.24222961059E+02  0.46557417404E+02  0.00000000000E+00 0.  1.
        -13    1    5    5    0    0  0.24367131717E+03 -0.83675460973E+02  0.17479230082E+03  0.31133525661E+03  0.00000000000E+00 0. -1.
          1    1    6    6  503    0 -0.81279079847E+02 -0.10819686564E+03 -0.26563635771E+03  0.29811998440E+03  0.00000000000E+00 0. -1.
         -1    1    6    6    0  503 -0.14757150435E+03 -0.47214076985E+02 -0.34875741810E+03  0.38162580447E+03  0.00000000000E+00 0.  1.
<mgrwt>
<rscale>  0 0.15011661E+04</rscale>
<asrwt>0</asrwt>
<pdfrwt beam="1">  1        2 0.11956240E+00 0.15011661E+04</pdfrwt>
<pdfrwt beam="2">  1       -1 0.11152602E+00 0.15011661E+04</pdfrwt>
<totfact> 0.29174961E+01</totfact>
</mgrwt>
</event>
<event>
12    7  0.1661464E-007  0.3536366E+04  0.7818608E-02  0.8105225E-01
          2   -1    0    0  501    0  0.00000000000E+00  0.00000000000E+00  0.21943820119E+04  0.21943820119E+04  0.00000000000E+00 0. -1.
         -1   -1    0    0    0  501 -0.00000000000E+00 -0.00000000000E+00 -0.14247611843E+04  0.14247611843E+04  0.00000000000E+00 0.  1.
         24    2    1    2    0    0 -0.15173704350E+04  0.47926488035E+03 -0.17595962430E+03  0.16029638359E+04  0.80146163471E+02 0.  0.
        254    2    1    2    0    0  0.15173704350E+04 -0.47926488035E+03  0.94558045188E+03  0.20161793602E+04  0.79921771700E+03 0.  0.
         23    2    4    4    0    0  0.14865460811E+04 -0.50546291261E+03  0.64662547981E+03  0.17005565721E+04  0.91957254759E+02 0.  0.
         23    2    4    4    0    0  0.30824353872E+02  0.26198032266E+02  0.29895497207E+03  0.31562278807E+03  0.92774949957E+02 0.  0.
          2    1    3    3  502    0 -0.15731319069E+03  0.47916552717E+02 -0.42899105036E+02  0.16995225565E+03  0.00000000000E+00 0. -1.
         -1    1    3    3    0  502 -0.13600572443E+04  0.43134832763E+03 -0.13306051926E+03  0.14330115803E+04  0.00000000000E+00 0.  1.
         13    1    5    5    0    0  0.80083424865E+03 -0.29563142706E+03  0.39473509950E+03  0.94050477577E+03  0.00000000000E+00 0.  1.
        -13    1    5    5    0    0  0.68571183244E+03 -0.20983148556E+03  0.25189038031E+03  0.76005179637E+03  0.00000000000E+00 0. -1.
          2    1    6    6  503    0  0.32922994004E+02 -0.27698452877E+02  0.17901894570E+03  0.18411656836E+03  0.00000000000E+00 0. -1.
         -2    1    6    6    0  503 -0.20986401323E+01  0.53896485143E+02  0.11993602637E+03  0.13150621971E+03  0.00000000000E+00 0.  1.
<mgrwt>
<rscale>  0 0.35363655E+04</rscale>
<asrwt>0</asrwt>
<pdfrwt beam="1">  1        2 0.33759723E+00 0.35363655E+04</pdfrwt>
<pdfrwt beam="2">  1       -1 0.21919403E+00 0.35363655E+04</pdfrwt>
<totfact> 0.53994197E-01</totfact>
</mgrwt>
</event>
<event>
12    7  0.1661464E-007  0.1835603E+04  0.7818608E-02  0.8687592E-01
          2   -1    0    0  501    0  0.00000000000E+00  0.00000000000E+00  0.20990979571E+04  0.20990979571E+04  0.00000000000E+00 0. -1.
         -1   -1    0    0    0  501 -0.00000000000E+00 -0.00000000000E+00 -0.40129592892E+03  0.40129592892E+03  0.00000000000E+00 0.  1.
         24    2    1    2    0    0  0.68346906965E+03 -0.12183086678E+03  0.60654969072E+03  0.92545829290E+03  0.81226814080E+02 0.  0.
        254    2    1    2    0    0 -0.68346906965E+03  0.12183086678E+03  0.10912523375E+04  0.15749355931E+04  0.89867554167E+03 0.  0.
         23    2    4    4    0    0 -0.70223726863E+02  0.41556422238E+03  0.29371026231E+03  0.52302163266E+03  0.98289955301E+02 0.  0.
         23    2    4    4    0    0 -0.61324534279E+03 -0.29373335560E+03  0.79754207516E+03  0.10519139605E+04  0.90002688446E+02 0.  0.
          4    1    3    3  502    0  0.91701036187E+02 -0.38760377171E+02  0.64148648197E+02  0.11843350853E+03  0.00000000000E+00 0. -1.
         -3    1    3    3    0  502  0.59176803346E+03 -0.83070489606E+02  0.54240104252E+03  0.80702478438E+03  0.00000000000E+00 0.  1.
         13    1    5    5    0    0 -0.94513885704E+02  0.35814310513E+03  0.25285065795E+03  0.44847833122E+03  0.00000000000E+00 0.  1.
        -13    1    5    5    0    0  0.24290158841E+02  0.57421117241E+02  0.40859604352E+02  0.74543301439E+02  0.00000000000E+00 0. -1.
          4    1    6    6  503    0 -0.64946332026E+02 -0.56326301338E+02  0.13193026503E+03  0.15746832411E+03  0.00000000000E+00 0. -1.
         -4    1    6    6    0  503 -0.54829901076E+03 -0.23740705426E+03  0.66561181013E+03  0.89444563635E+03  0.00000000000E+00 0.  1.
<mgrwt>
<rscale>  0 0.18356029E+04</rscale>
<asrwt>0</asrwt>
<pdfrwt beam="1">  1        2 0.32293814E+00 0.18356029E+04</pdfrwt>
<pdfrwt beam="2">  1       -1 0.61737836E-01 0.18356029E+04</pdfrwt>
<totfact> 0.16782218E+01</totfact>
</mgrwt>
</event>
<event>
12    7  0.1661464E-007  0.3114424E+04  0.7818608E-02  0.8211790E-01
          2   -1    0    0  501    0  0.00000000000E+00  0.00000000000E+00  0.13509557135E+04  0.13509557135E+04  0.00000000000E+00 0. -1.
         -1   -1    0    0    0  501 -0.00000000000E+00 -0.00000000000E+00 -0.17949587296E+04  0.17949587296E+04  0.00000000000E+00 0.  1.
         24    2    1    2    0    0  0.55635397421E+03 -0.81535874858E+03  0.83745316314E+03  0.12970634409E+04  0.81890998612E+02 0.  0.
        254    2    1    2    0    0 -0.55635397421E+03  0.81535874858E+03 -0.12814561793E+04  0.18488510023E+04  0.89542194281E+03 0.  0.
         23    2    4    4    0    0 -0.74658884483E+03  0.60225054681E+03 -0.11959574222E+04  0.15358026227E+04  0.90966564187E+02 0.  0.
         23    2    4    4    0    0  0.19023487063E+03  0.21310820178E+03 -0.85498757120E+02  0.31304837961E+03  0.95314420937E+02 0.  0.
          2    1    3    3  502    0  0.25434507473E+03 -0.33844686819E+03  0.31257971235E+03  0.52625447856E+03  0.00000000000E+00 0. -1.
         -1    1    3    3    0  502  0.30200889948E+03 -0.47691188039E+03  0.52487345079E+03  0.77080896230E+03  0.00000000000E+00 0.  1.
         13    1    5    5    0    0 -0.61536403546E+03  0.53812544007E+03 -0.10138744828E+04  0.13023798802E+04  0.00000000000E+00 0. -1.
        -13    1    5    5    0    0 -0.13122480937E+03  0.64125106738E+02 -0.18208293933E+03  0.23342274248E+03  0.00000000000E+00 0.  1.
          4    1    6    6  503    0  0.15552332287E+03  0.10778019898E+03 -0.41360384425E+02  0.19368726506E+03  0.00000000000E+00 0. -1.
         -4    1    6    6    0  503  0.34711547760E+02  0.10532800280E+03 -0.44138372695E+02  0.11936111455E+03  0.00000000000E+00 0.  1.
<mgrwt>
<rscale>  0 0.31144243E+04</rscale>
<asrwt>0</asrwt>
<pdfrwt beam="1">  1        2 0.20783934E+00 0.31144243E+04</pdfrwt>
<pdfrwt beam="2">  1       -1 0.27614750E+00 0.31144243E+04</pdfrwt>
<totfact> 0.70298079E-01</totfact>
</mgrwt>
</event>
<event>
12    7  0.1661464E-007  0.2275068E+04  0.7818608E-02  0.8487817E-01
          2   -1    0    0  501    0  0.00000000000E+00  0.00000000000E+00  0.20743453212E+04  0.20743453212E+04  0.00000000000E+00 0. -1.
         -1   -1    0    0    0  501 -0.00000000000E+00 -0.00000000000E+00 -0.62380323743E+03  0.62380323743E+03  0.00000000000E+00 0.  1.
         24    2    1    2    0    0  0.46585371886E+03 -0.58665056272E+03  0.13358832616E+04  0.15337159908E+04  0.80759405943E+02 0.  0.
        254    2    1    2    0    0 -0.46585371886E+03  0.58665056272E+03  0.11465882220E+03  0.11644325679E+04  0.88406899590E+03 0.  0.
         23    2    4    4    0    0  0.13109497907E+03  0.36340384002E+03 -0.20391844005E+03  0.44617771755E+03  0.90794168124E+02 0.  0.
         23    2    4    4    0    0 -0.59694869794E+03  0.22324672269E+03  0.31857726225E+03  0.71825485033E+03  0.90618490563E+02 0.  0.
          4    1    3    3  502    0  0.36183155451E+03 -0.41486714879E+03  0.10282864972E+04  0.11663661283E+04  0.00000000000E+00 0. -1.
         -3    1    3    3    0  502  0.10402216435E+03 -0.17178341393E+03  0.30759676437E+03  0.36734986243E+03  0.00000000000E+00 0.  1.
         13    1    5    5    0    0  0.27621656004E+02  0.17260687917E+02 -0.27984833046E+01  0.32691263918E+02  0.00000000000E+00 0.  1.
        -13    1    5    5    0    0  0.10347332307E+03  0.34614315211E+03 -0.20111995674E+03  0.41348645363E+03  0.00000000000E+00 0. -1.
          3    1    6    6  503    0 -0.20192145909E+03  0.46506104258E+02  0.67467161099E+02  0.21791491735E+03  0.00000000000E+00 0. -1.
         -3    1    6    6    0  503 -0.39502723885E+03  0.17674061844E+03  0.25111010115E+03  0.50033993298E+03  0.00000000000E+00 0.  1.
<mgrwt>
<rscale>  0 0.22750678E+04</rscale>
<asrwt>0</asrwt>
<pdfrwt beam="1">  1        2 0.31913005E+00 0.22750678E+04</pdfrwt>
<pdfrwt beam="2">  1       -1 0.95969730E-01 0.22750678E+04</pdfrwt>
<totfact> 0.65704203E+00</totfact>
</mgrwt>
</event>
<event>
12    7  0.1661464E-007  0.1739217E+04  0.7818608E-02  0.8739308E-01
          2   -1    0    0  501    0  0.00000000000E+00  0.00000000000E+00  0.10989300274E+04  0.10989300274E+04  0.00000000000E+00 0. -1.
         -1   -1    0    0    0  501 -0.00000000000E+00 -0.00000000000E+00 -0.68814151710E+03  0.68814151710E+03  0.00000000000E+00 0.  1.
         24    2    1    2    0    0  0.53963209707E+03 -0.22326671085E+03  0.36572419513E+03  0.69369409988E+03  0.80040570601E+02 0.  0.
        254    2    1    2    0    0 -0.53963209707E+03  0.22326671085E+03  0.45064315166E+02  0.10933774446E+04  0.92325111403E+03 0.  0.
         23    2    4    4    0    0 -0.62515066707E+03  0.14244409274E+03  0.36269183939E+03  0.74235308775E+03  0.91864358912E+02 0.  0.
         23    2    4    4    0    0  0.85518570001E+02  0.80822618112E+02 -0.31762752423E+03  0.35102435687E+03  0.92114784690E+02 0.  0.
          2    1    3    3  502    0  0.57376440792E+02 -0.49565751304E+02  0.61505962748E+02  0.97630953666E+02  0.00000000000E+00 0. -1.
         -1    1    3    3    0  502  0.48225565628E+03 -0.17370095955E+03  0.30421823238E+03  0.59606314621E+03  0.00000000000E+00 0.  1.
         13    1    5    5    0    0 -0.63856502467E+01  0.47850809190E+01 -0.51173209070E+01  0.94794779255E+01  0.00000000000E+00 0. -1.
        -13    1    5    5    0    0 -0.61876501682E+03  0.13765901182E+03  0.36780916030E+03  0.73287360982E+03  0.00000000000E+00 0.  1.
          2    1    6    6  503    0  0.12635249456E+01 -0.11203870304E+02 -0.17659644201E+01  0.11412354508E+02  0.00000000000E+00 0. -1.
         -2    1    6    6    0  503  0.84255045055E+02  0.92026488416E+02 -0.31586155981E+03  0.33961200237E+03  0.00000000000E+00 0.  1.
<mgrwt>
<rscale>  0 0.17392175E+04</rscale>
<asrwt>0</asrwt>
<pdfrwt beam="1">  1        2 0.16906616E+00 0.17392175E+04</pdfrwt>
<pdfrwt beam="2">  1       -1 0.10586793E+00 0.17392175E+04</pdfrwt>
<totfact> 0.19719200E+01</totfact>
</mgrwt>
</event>
<event>
12    7  0.1661464E-007  0.1495295E+04  0.7818608E-02  0.8887588E-01
          2   -1    0    0  501    0  0.00000000000E+00  0.00000000000E+00  0.57189321328E+03  0.57189321328E+03  0.00000000000E+00 0. -1.
         -1   -1    0    0    0  501 -0.00000000000E+00 -0.00000000000E+00 -0.97741446792E+03  0.97741446792E+03  0.00000000000E+00 0.  1.
         24    2    1    2    0    0 -0.39588704864E+03 -0.92957764643E+02  0.10212431887E+03  0.42621887711E+03  0.76586248244E+02 0.  0.
        254    2    1    2    0    0  0.39588704864E+03  0.92957764643E+02 -0.50764557351E+03  0.11230888041E+04  0.91556361453E+03 0.  0.
         23    2    4    4    0    0  0.18969223979E+03  0.20614919247E+03 -0.72900119105E+03  0.78619199278E+03  0.90412817494E+02 0.  0.
         23    2    4    4    0    0  0.20619480885E+03 -0.11319142783E+03  0.22135561754E+03  0.33689681130E+03  0.95773448927E+02 0.  0.
          2    1    3    3  502    0 -0.32975617354E+03 -0.68525276359E+02  0.54603443565E+02  0.34119845184E+03  0.00000000000E+00 0. -1.
         -1    1    3    3    0  502 -0.66130875096E+02 -0.24432488284E+02  0.47520875303E+02  0.85020425276E+02  0.00000000000E+00 0.  1.
         13    1    5    5    0    0  0.17630608081E+03  0.20074239048E+03 -0.60517583126E+03  0.66152787410E+03  0.00000000000E+00 0.  1.
        -13    1    5    5    0    0  0.13386158978E+02  0.54068019908E+01 -0.12382535979E+03  0.12466411868E+03  0.00000000000E+00 0. -1.
          2    1    6    6  503    0  0.18498394139E+03 -0.11630613521E+03  0.22663627578E+03  0.31481768877E+03  0.00000000000E+00 0.  1.
         -2    1    6    6    0  503  0.21210867457E+02  0.31147073826E+01 -0.52806582444E+01  0.22079122534E+02  0.00000000000E+00 0. -1.
<mgrwt>
<rscale>  0 0.14952949E+04</rscale>
<asrwt>0</asrwt>
<pdfrwt beam="1">  1        2 0.87983572E-01 0.14952949E+04</pdfrwt>
<pdfrwt beam="2">  1       -1 0.15037146E+00 0.14952949E+04</pdfrwt>
<totfact> 0.20118095E+01</totfact>
</mgrwt>
</event>
<event>
12    7  0.1661464E-007  0.1417919E+04  0.7818608E-02  0.8940949E-01
         -1   -1    0    0    0  501 -0.00000000000E+00  0.00000000000E+00  0.90669786558E+03  0.90669786558E+03  0.00000000000E+00 0.  1.
          2   -1    0    0  501    0  0.00000000000E+00 -0.00000000000E+00 -0.55434527321E+03  0.55434527321E+03  0.00000000000E+00 0. -1.
         24    2    1    2    0    0  0.21626573311E+03  0.34795851269E+03  0.20511158170E+03  0.46525919100E+03  0.80928116204E+02 0.  0.
        254    2    1    2    0    0 -0.21626573311E+03 -0.34795851269E+03  0.14724101067E+03  0.99578394779E+03  0.89557789252E+03 0.  0.
         23    2    4    4    0    0 -0.48946925543E+03 -0.21122676239E+03 -0.14840014846E+03  0.56091849653E+03  0.91706371250E+02 0.  0.
         23    2    4    4    0    0  0.27320352231E+03 -0.13673175030E+03  0.29564115913E+03  0.43486545126E+03  0.91479667575E+02 0.  0.
          4    1    3    3  502    0  0.52257627109E+02  0.10630191885E+03  0.21802424241E+02  0.12044211574E+03  0.00000000000E+00 0. -1.
         -3    1    3    3    0  502  0.16400810600E+03  0.24165659384E+03  0.18330915746E+03  0.34481707526E+03  0.00000000000E+00 0.  1.
         13    1    5    5    0    0 -0.27922443166E+03 -0.11664776767E+03 -0.13092465984E+03  0.32971844276E+03  0.00000000000E+00 0. -1.
        -13    1    5    5    0    0 -0.21024482377E+03 -0.94578994720E+02 -0.17475488622E+02  0.23120005378E+03  0.00000000000E+00 0.  1.
          3    1    6    6  503    0  0.25920074249E+03 -0.14741021324E+03  0.29101343495E+03  0.41665767147E+03  0.00000000000E+00 0. -1.
         -3    1    6    6    0  503  0.14002779828E+02  0.10678462942E+02  0.46277241839E+01  0.18207779789E+02  0.00000000000E+00 0.  1.
<mgrwt>
<rscale>  0 0.14179191E+04</rscale>
<asrwt>0</asrwt>
<pdfrwt beam="1">  1        2 0.85283888E-01 0.14179191E+04</pdfrwt>
<pdfrwt beam="2">  1       -1 0.13949198E+00 0.14179191E+04</pdfrwt>
<totfact> 0.25647552E+01</totfact>
</mgrwt>
</event>
<event>
12    7  0.1661464E-007  0.1768487E+04  0.7818608E-02  0.8723240E-01
          2   -1    0    0  501    0  0.00000000000E+00  0.00000000000E+00  0.41319092849E+03  0.41319092849E+03  0.00000000000E+00 0. -1.
         -1   -1    0    0    0  501 -0.00000000000E+00 -0.00000000000E+00 -0.18923129929E+04  0.18923129929E+04  0.00000000000E+00 0.  1.
         24    2    1    2    0    0  0.33936087473E+03  0.52633099118E+03 -0.76112553261E+03  0.98899333133E+03  0.81274949778E+02 0.  0.
        254    2    1    2    0    0 -0.33936087473E+03 -0.52633099118E+03 -0.71799653183E+03  0.13165105901E+04  0.90856535182E+03 0.  0.
         23    2    4    4    0    0 -0.16958418232E+03 -0.13456133003E+03 -0.83300814165E+03  0.86553797294E+03  0.91585327027E+02 0.  0.
         23    2    4    4    0    0 -0.16977669241E+03 -0.39176966115E+03  0.11501160982E+03  0.45097261714E+03  0.88549637699E+02 0.  0.
          4    1    3    3  502    0  0.14545006802E+03  0.16199252774E+03 -0.23591926522E+03  0.32102211923E+03  0.00000000000E+00 0. -1.
         -3    1    3    3    0  502  0.19391080671E+03  0.36433846344E+03 -0.52520626739E+03  0.66797121211E+03  0.00000000000E+00 0.  1.
         13    1    5    5    0    0  0.27475190493E+01 -0.22369460224E+02 -0.16680709508E+03  0.16832275123E+03  0.00000000000E+00 0. -1.
        -13    1    5    5    0    0 -0.17233170137E+03 -0.11219186981E+03 -0.66620104656E+03  0.69721522172E+03  0.00000000000E+00 0.  1.
          1    1    6    6  503    0 -0.17876123977E+03 -0.34636287778E+03  0.10260561910E+03  0.40305177957E+03  0.00000000000E+00 0. -1.
         -1    1    6    6    0  503  0.89845473634E+01 -0.45406783372E+02  0.12405990724E+02  0.47920837570E+02  0.00000000000E+00 0.  1.
<mgrwt>
<rscale>  0 0.17684870E+04</rscale>
<asrwt>0</asrwt>
<pdfrwt beam="1">  1        2 0.63567834E-01 0.17684870E+04</pdfrwt>
<pdfrwt beam="2">  1       -1 0.29112508E+00 0.17684870E+04</pdfrwt>
<totfact> 0.31304558E+00</totfact>
</mgrwt>
</event>
<event>
12    7  0.1661464E-007  0.1954971E+04  0.7818608E-02  0.8627968E-01
          2   -1    0    0  501    0  0.00000000000E+00  0.00000000000E+00  0.32673669370E+04  0.32673669370E+04  0.00000000000E+00 0. -1.
         -1   -1    0    0    0  501 -0.00000000000E+00 -0.00000000000E+00 -0.29243047950E+03  0.29243047950E+03  0.00000000000E+00 0.  1.
         24    2    1    2    0    0  0.40888087127E+03  0.13346930859E+03  0.23224421994E+04  0.23633965656E+04  0.83113979570E+02 0.  0.
        254    2    1    2    0    0 -0.40888087127E+03 -0.13346930859E+03  0.65249425810E+03  0.11964008509E+04  0.90588554239E+03 0.  0.
         23    2    4    4    0    0 -0.49301442476E+03  0.13576856093E+03  0.72118748849E+03  0.88903935026E+03  0.93718982070E+02 0.  0.
         23    2    4    4    0    0  0.84133553487E+02 -0.26923786952E+03 -0.68693230388E+02  0.30736150062E+03  0.10092000276E+03 0.  0.
          4    1    3    3  502    0  0.61091114464E+02  0.23783601289E+02  0.54508266388E+03  0.54901083270E+03  0.00000000000E+00 0. -1.
         -3    1    3    3    0  502  0.34778975681E+03  0.10968570730E+03  0.17773595355E+04  0.18143857329E+04  0.00000000000E+00 0.  1.
         13    1    5    5    0    0 -0.26094916150E+03  0.10771394715E+03  0.44759639829E+03  0.52918739125E+03  0.00000000000E+00 0. -1.
        -13    1    5    5    0    0 -0.23206526326E+03  0.28054613780E+02  0.27359109020E+03  0.35985195901E+03  0.00000000000E+00 0.  1.
          1    1    6    6  503    0 -0.17434950535E+02 -0.61088279633E+02  0.64845173951E+01  0.63857688453E+02  0.00000000000E+00 0. -1.
         -1    1    6    6    0  503  0.10156850402E+03 -0.20814958989E+03 -0.75177747783E+02  0.24350381217E+03  0.00000000000E+00 0.  1.
<mgrwt>
<rscale>  0 0.19549708E+04</rscale>
<asrwt>0</asrwt>
<pdfrwt beam="1">  1        2 0.50267181E+00 0.19549708E+04</pdfrwt>
<pdfrwt beam="2">  1       -1 0.44989307E-01 0.19549708E+04</pdfrwt>
<totfact> 0.61157908E+00</totfact>
</mgrwt>
</event>
<event>
12    7  0.1661464E-007  0.1904957E+04  0.7818608E-02  0.8652393E-01
          2   -1    0    0  501    0  0.00000000000E+00  0.00000000000E+00  0.59163087921E+03  0.59163087921E+03  0.00000000000E+00 0. -1.
         -1   -1    0    0    0  501 -0.00000000000E+00 -0.00000000000E+00 -0.15334142694E+04  0.15334142694E+04  0.00000000000E+00 0.  1.
         24    2    1    2    0    0 -0.68414498858E+03 -0.26058583432E+03 -0.34975842765E+03  0.81531866570E+03  0.80338200648E+02 0.  0.
        254    2    1    2    0    0  0.68414498858E+03  0.26058583432E+03 -0.59202496254E+03  0.13097264829E+04  0.91045623801E+03 0.  0.
         23    2    4    4    0    0  0.35140819974E+03  0.33143190791E+03 -0.76917967691E+03  0.91284581207E+03  0.91188095822E+02 0.  0.
         23    2    4    4    0    0  0.33273678884E+03 -0.70846073592E+02  0.17715471436E+03  0.39688067085E+03  0.10196831508E+03 0.  0.
          4    1    3    3  502    0 -0.13726503748E+03 -0.71314645532E+02 -0.10514739408E+03  0.18703861544E+03  0.00000000000E+00 0. -1.
         -3    1    3    3    0  502 -0.54687995109E+03 -0.18927118879E+03 -0.24461103357E+03  0.62828005026E+03  0.00000000000E+00 0.  1.
         13    1    5    5    0    0  0.94432312258E+02  0.11017416194E+03 -0.16274760088E+03  0.21804263150E+03  0.00000000000E+00 0.  1.
        -13    1    5    5    0    0  0.25697588748E+03  0.22125774597E+03 -0.60643207602E+03  0.69480318057E+03  0.00000000000E+00 0. -1.
          3    1    6    6  503    0  0.16384525755E+03 -0.22156629987E+02  0.14130286239E+03  0.21749180121E+03  0.00000000000E+00 0. -1.
         -3    1    6    6    0  503  0.16889153129E+03 -0.48689443605E+02  0.35851851975E+02  0.17938886964E+03  0.00000000000E+00 0.  1.
<mgrwt>
<rscale>  0 0.19049569E+04</rscale>
<asrwt>0</asrwt>
<pdfrwt beam="1">  1        2 0.91020137E-01 0.19049569E+04</pdfrwt>
<pdfrwt beam="2">  1       -1 0.23590988E+00 0.19049569E+04</pdfrwt>
<totfact> 0.46526944E+00</totfact>
</mgrwt>
</event>
<event>
12    7  0.1661464E-007  0.1234616E+04  0.7818608E-02  0.9083086E-01
         -1   -1    0    0    0  501 -0.00000000000E+00  0.00000000000E+00  0.68477443482E+03  0.68477443482E+03  0.00000000000E+00 0.  1.
          2   -1    0    0  501    0  0.00000000000E+00 -0.00000000000E+00 -0.55648822460E+03  0.55648822460E+03  0.00000000000E+00 0. -1.
         24    2    1    2    0    0  0.10307512930E+03  0.65074134118E+01  0.28101845152E+03  0.30974161740E+03  0.79383063361E+02 0.  0.
        254    2    1    2    0    0 -0.10307512930E+03 -0.65074134118E+01 -0.15273224130E+03  0.93152104203E+03  0.91309226560E+03 0.  0.
         23    2    4    4    0    0  0.27757964320E+03  0.14619309588E+03  0.19947314974E+03  0.38297815259E+03  0.91977433631E+02 0.  0.
         23    2    4    4    0    0 -0.38065477249E+03 -0.15270050929E+03 -0.35220539104E+03  0.54854288943E+03  0.92925576217E+02 0.  0.
          4    1    3    3  502    0  0.24671603504E+02 -0.66247565668E+01  0.17694944316E+03  0.17878389428E+03  0.00000000000E+00 0. -1.
         -3    1    3    3    0  502  0.78403525791E+02  0.13132169979E+02  0.10406900836E+03  0.13095772312E+03  0.00000000000E+00 0.  1.
         13    1    5    5    0    0  0.10567010346E+02  0.32520759635E+02  0.37037185790E+02  0.50408477920E+02  0.00000000000E+00 0. -1.
        -13    1    5    5    0    0  0.26701263285E+03  0.11367233624E+03  0.16243596395E+03  0.33256967467E+03  0.00000000000E+00 0.  1.
          2    1    6    6  503    0 -0.14761113425E+03 -0.10884491349E+03 -0.15363105690E+03  0.23924624092E+03  0.00000000000E+00 0. -1.
         -2    1    6    6    0  503 -0.23304363824E+03 -0.43855595796E+02 -0.19857433414E+03  0.30929664852E+03  0.00000000000E+00 0.  1.
<mgrwt>
<rscale>  0 0.12346156E+04</rscale>
<asrwt>0</asrwt>
<pdfrwt beam="1">  1        2 0.85613573E-01 0.12346156E+04</pdfrwt>
<pdfrwt beam="2">  1       -1 0.10534991E+00 0.12346156E+04</pdfrwt>
<totfact> 0.51642285E+01</totfact>
</mgrwt>
</event>
<event>
12    7  0.1661464E-007  0.1973186E+04  0.7818608E-02  0.8619261E-01
          2   -1    0    0  501    0  0.00000000000E+00  0.00000000000E+00  0.22577736621E+04  0.22577736621E+04  0.00000000000E+00 0. -1.
         -1   -1    0    0    0  501 -0.00000000000E+00 -0.00000000000E+00 -0.43111731981E+03  0.43111731981E+03  0.00000000000E+00 0.  1.
         24    2    1    2    0    0 -0.14971477383E+03  0.66293981632E+03  0.13179124179E+04  0.14849752913E+04  0.79716753612E+02 0.  0.
        254    2    1    2    0    0  0.14971477383E+03 -0.66293981632E+03  0.50874392436E+03  0.12039156906E+04  0.85363276412E+03 0.  0.
         23    2    4    4    0    0  0.17184967151E+03  0.15428209687E+03  0.24620162828E+02  0.24961953432E+03  0.91479421093E+02 0.  0.
         23    2    4    4    0    0 -0.22134897682E+02 -0.81722191319E+03  0.48412376153E+03  0.95429615630E+03  0.89239724097E+02 0.  0.
          2    1    3    3  502    0 -0.10222449002E+03  0.29483314703E+03  0.64376328735E+03  0.71540729735E+03  0.00000000000E+00 0. -1.
         -1    1    3    3    0  502 -0.47490283812E+02  0.36810666929E+03  0.67414913057E+03  0.76956799393E+03  0.00000000000E+00 0.  1.
         13    1    5    5    0    0  0.80190784130E+02  0.12697867588E+03 -0.25291069546E+01  0.15020167232E+03  0.00000000000E+00 0. -1.
        -13    1    5    5    0    0  0.91658887385E+02  0.27303420990E+02  0.27149269782E+02  0.99417861997E+02  0.00000000000E+00 0.  1.
          1    1    6    6  503    0  0.22492363082E+02 -0.58257226820E+03  0.32795021205E+03  0.66891531277E+03  0.00000000000E+00 0. -1.
         -1    1    6    6    0  503 -0.44627260764E+02 -0.23464964499E+03  0.15617354948E+03  0.28538084353E+03  0.00000000000E+00 0.  1.
<mgrwt>
<rscale>  0 0.19731856E+04</rscale>
<asrwt>0</asrwt>
<pdfrwt beam="1">  1        2 0.34734979E+00 0.19731856E+04</pdfrwt>
<pdfrwt beam="2">  1       -1 0.66325743E-01 0.19731856E+04</pdfrwt>
<totfact> 0.11698563E+01</totfact>
</mgrwt>
</event>
<event>
12    7  0.1661464E-007  0.1960991E+04  0.7818608E-02  0.8625079E-01
         -1   -1    0    0    0  501 -0.00000000000E+00  0.00000000000E+00  0.11993122571E+04  0.11993122571E+04  0.00000000000E+00 0.  1.
          2   -1    0    0  501    0  0.00000000000E+00 -0.00000000000E+00 -0.80160218592E+03  0.80160218592E+03  0.00000000000E+00 0. -1.
         24    2    1    2    0    0  0.40851555534E+03 -0.19172699916E+03 -0.45506843390E+03  0.64597229647E+03  0.80924205967E+02 0.  0.
        254    2    1    2    0    0 -0.40851555534E+03  0.19172699916E+03  0.85277850510E+03  0.13549421466E+04  0.95131111665E+03 0.  0.
         23    2    4    4    0    0  0.16067586597E+03 -0.22253159256E+03  0.68265052345E+02  0.29690217885E+03  0.90298077757E+02 0.  0.
         23    2    4    4    0    0 -0.56919142130E+03  0.41425859172E+03  0.78451345275E+03  0.10580399677E+04  0.91641479991E+02 0.  0.
          4    1    3    3  502    0  0.39869380125E+03 -0.19955792510E+03 -0.44423584205E+03  0.62938509355E+03  0.00000000000E+00 0. -1.
         -3    1    3    3    0  502  0.98217540911E+01  0.78309259355E+01 -0.10832591845E+02  0.16587202914E+02  0.00000000000E+00 0.  1.
         13    1    5    5    0    0  0.71909251160E+02 -0.33595968009E+02  0.28937449698E+02  0.84480799380E+02  0.00000000000E+00 0. -1.
        -13    1    5    5    0    0  0.88766614806E+02 -0.18893562455E+03  0.39327602647E+02  0.21242137947E+03  0.00000000000E+00 0.  1.
          4    1    6    6  503    0 -0.53103993505E+03  0.37816820055E+03  0.68577623570E+03  0.94620486469E+03  0.00000000000E+00 0. -1.
         -4    1    6    6    0  503 -0.38151486257E+02  0.36090391171E+02  0.98737217056E+02  0.11183510303E+03  0.00000000000E+00 0.  1.
<mgrwt>
<rscale>  0 0.19609909E+04</rscale>
<asrwt>0</asrwt>
<pdfrwt beam="1">  1        2 0.12332341E+00 0.19609909E+04</pdfrwt>
<pdfrwt beam="2">  1       -1 0.18450958E+00 0.19609909E+04</pdfrwt>
<totfact> 0.70600549E+00</totfact>
</mgrwt>
</event>
<event>
12    7  0.1661464E-007  0.3674664E+04  0.7818608E-02  0.8073600E-01
          2   -1    0    0  501    0  0.00000000000E+00  0.00000000000E+00  0.50198737014E+04  0.50198737014E+04  0.00000000000E+00 0. -1.
         -1   -1    0    0    0  501 -0.00000000000E+00 -0.00000000000E+00 -0.67248496748E+03  0.67248496748E+03  0.00000000000E+00 0.  1.
         24    2    1    2    0    0 -0.11319446612E+03  0.37956726718E+03 -0.55848144608E+03  0.68934325439E+03  0.80051853711E+02 0.  0.
        254    2    1    2    0    0  0.11319446612E+03 -0.37956726718E+03  0.49058701800E+04  0.50030154145E+04  0.89761724417E+03 0.  0.
         23    2    4    4    0    0 -0.12485552841E+03  0.15685478118E+03  0.29669045721E+04  0.29751074963E+04  0.92463773034E+02 0.  0.
         23    2    4    4    0    0  0.23804999453E+03 -0.53642204836E+03  0.19389656079E+04  0.20279079182E+04  0.91686869697E+02 0.  0.
          2    1    3    3  502    0 -0.60152827634E+02  0.81430317177E+02 -0.14403362078E+03  0.17605380752E+03  0.00000000000E+00 0. -1.
         -1    1    3    3    0  502 -0.53041638488E+02  0.29813695001E+03 -0.41444782530E+03  0.51328944687E+03  0.00000000000E+00 0.  1.
         13    1    5    5    0    0 -0.11679159558E+03  0.16522327192E+03  0.29101467963E+04  0.29171721551E+04  0.00000000000E+00 0. -1.
        -13    1    5    5    0    0 -0.80639328226E+01 -0.83684907367E+01  0.56757775841E+02  0.57935341271E+02  0.00000000000E+00 0.  1.
          1    1    6    6  503    0  0.21782701034E+03 -0.52577050721E+03  0.18908675394E+04  0.19746552317E+04  0.00000000000E+00 0. -1.
         -1    1    6    6    0  503  0.20222984184E+02 -0.10651541156E+02  0.48098068548E+02  0.53252686471E+02  0.00000000000E+00 0.  1.
<mgrwt>
<rscale>  0 0.36746644E+04</rscale>
<asrwt>0</asrwt>
<pdfrwt beam="1">  1        2 0.77228824E+00 0.36746644E+04</pdfrwt>
<pdfrwt beam="2">  1       -1 0.10345923E+00 0.36746644E+04</pdfrwt>
<totfact> 0.25986661E-02</totfact>
</mgrwt>
</event>
<event>
12    7  0.1661464E-007  0.2159618E+04  0.7818608E-02  0.8535427E-01
          2   -1    0    0  501    0  0.00000000000E+00  0.00000000000E+00  0.70498656081E+03  0.70498656081E+03  0.00000000000E+00 0. -1.
         -1   -1    0    0    0  501 -0.00000000000E+00 -0.00000000000E+00 -0.16539139454E+04  0.16539139454E+04  0.00000000000E+00 0.  1.
         24    2    1    2    0    0  0.76189873896E+03 -0.23338118146E+02  0.10737243230E+03  0.77398301976E+03  0.80538931414E+02 0.  0.
        254    2    1    2    0    0 -0.76189873896E+03  0.23338118146E+02 -0.10562998169E+04  0.15849174865E+04  0.90286199364E+03 0.  0.
         23    2    4    4    0    0 -0.53751947780E+03 -0.26505202512E+03 -0.10455179023E+04  0.12085615813E+04  0.91288809378E+02 0.  0.
         23    2    4    4    0    0 -0.22437926116E+03  0.28839014327E+03 -0.10781914662E+02  0.37635590523E+03  0.89513072478E+02 0.  0.
          2    1    3    3  502    0  0.50997629692E+03 -0.10520393925E+02  0.10959203274E+03  0.52172494261E+03  0.00000000000E+00 0. -1.
         -1    1    3    3    0  502  0.25192244205E+03 -0.12817724221E+02 -0.22196004482E+01  0.25225807715E+03  0.00000000000E+00 0.  1.
         13    1    5    5    0    0 -0.51713921630E+02  0.12407755833E+01 -0.10370174179E+03  0.11588753369E+03  0.00000000000E+00 0. -1.
        -13    1    5    5    0    0 -0.48580555617E+03 -0.26629280070E+03 -0.94181616048E+03  0.10926740476E+04  0.00000000000E+00 0.  1.
          3    1    6    6  503    0 -0.13842322445E+03  0.16941225923E+03  0.37241913926E+02  0.22191994682E+03  0.00000000000E+00 0. -1.
         -3    1    6    6    0  503 -0.85956036713E+02  0.11897788404E+03 -0.48023828588E+02  0.15443595841E+03  0.00000000000E+00 0.  1.
<mgrwt>
<rscale>  0 0.21596177E+04</rscale>
<asrwt>0</asrwt>
<pdfrwt beam="1">  1        2 0.10845947E+00 0.21596177E+04</pdfrwt>
<pdfrwt beam="2">  1       -1 0.25444830E+00 0.21596177E+04</pdfrwt>
<totfact> 0.27713557E+00</totfact>
</mgrwt>
</event>
<event>
12    7  0.1661464E-007  0.1878275E+04  0.7818608E-02  0.8665747E-01
         -1   -1    0    0    0  501 -0.00000000000E+00  0.00000000000E+00  0.39174181970E+03  0.39174181970E+03  0.00000000000E+00 0.  1.
          2   -1    0    0  501    0  0.00000000000E+00 -0.00000000000E+00 -0.22514293815E+04  0.22514293815E+04  0.00000000000E+00 0. -1.
         24    2    1    2    0    0 -0.18571569377E+03 -0.68737050720E+03 -0.55418925088E+03  0.90579702901E+03  0.79837327650E+02 0.  0.
        254    2    1    2    0    0  0.18571569377E+03  0.68737050720E+03 -0.13054983109E+04  0.17373741722E+04  0.89842898511E+03 0.  0.
         23    2    4    4    0    0  0.33058430924E+03 -0.35773829636E+02 -0.17855004674E+03  0.38745007091E+03  0.87588160470E+02 0.  0.
         23    2    4    4    0    0 -0.14486861547E+03  0.72314433684E+03 -0.11269482642E+04  0.13499241013E+04  0.91422324463E+02 0.  0.
          2    1    3    3  502    0 -0.86773128586E+02 -0.29167186802E+03 -0.28625737126E+03  0.41778623366E+03  0.00000000000E+00 0. -1.
         -1    1    3    3    0  502 -0.98942565188E+02 -0.39569863918E+03 -0.26793187962E+03  0.48801079535E+03  0.00000000000E+00 0.  1.
         13    1    5    5    0    0  0.27929377241E+03 -0.53510202284E+02 -0.12314014035E+03  0.30989005667E+03  0.00000000000E+00 0. -1.
        -13    1    5    5    0    0  0.51290536834E+02  0.17736372648E+02 -0.55409906397E+02  0.77560014249E+02  0.00000000000E+00 0.  1.
          4    1    6    6  503    0 -0.95356752956E+01  0.11014054735E+02 -0.47412923764E+02  0.49600643594E+02  0.00000000000E+00 0.  1.
         -4    1    6    6    0  503 -0.13533294017E+03  0.71213028211E+03 -0.10795353404E+04  0.13003234577E+04  0.00000000000E+00 0. -1.
<mgrwt>
<rscale>  0 0.18782748E+04</rscale>
<asrwt>0</asrwt>
<pdfrwt beam="1">  1        2 0.34637375E+00 0.18782748E+04</pdfrwt>
<pdfrwt beam="2">  1       -1 0.60267972E-01 0.18782748E+04</pdfrwt>
<totfact> 0.14408155E+01</totfact>
</mgrwt>
</event>
<event>
12    7  0.1661464E-007  0.1460408E+04  0.7818608E-02  0.8911217E-01
          2   -1    0    0  501    0  0.00000000000E+00  0.00000000000E+00  0.17364885634E+04  0.17364885634E+04  0.00000000000E+00 0. -1.
         -1   -1    0    0    0  501 -0.00000000000E+00 -0.00000000000E+00 -0.30705509900E+03  0.30705509900E+03  0.00000000000E+00 0.  1.
         24    2    1    2    0    0  0.45252957451E+03 -0.12325705235E+03  0.36863661630E+03  0.60203058449E+03  0.81071283652E+02 0.  0.
        254    2    1    2    0    0 -0.45252957451E+03  0.12325705235E+03  0.10607968481E+04  0.14415130779E+04  0.85597586654E+03 0.  0.
         23    2    4    4    0    0 -0.29733720493E+03  0.12879187948E+03  0.11792261250E+04  0.12262366367E+04  0.89918149580E+02 0.  0.
         23    2    4    4    0    0 -0.15519236958E+03 -0.55348271312E+01 -0.11842927692E+03  0.21527644120E+03  0.90571224012E+02 0.  0.
          2    1    3    3  502    0  0.10374895037E+03 -0.57135078328E+02  0.12013300027E+03  0.16870151046E+03  0.00000000000E+00 0. -1.
         -1    1    3    3    0  502  0.34878062414E+03 -0.66121974026E+02  0.24850361603E+03  0.43332907403E+03  0.00000000000E+00 0.  1.
         13    1    5    5    0    0 -0.26327169715E+03  0.13542490030E+03  0.11099119569E+04  0.11487194793E+04  0.00000000000E+00 0. -1.
        -13    1    5    5    0    0 -0.34065507780E+02 -0.66330208199E+01  0.69314168187E+02  0.77517157436E+02  0.00000000000E+00 0.  1.
          3    1    6    6  503    0 -0.43856604443E+02 -0.70921815335E+01 -0.89984503781E+02  0.10035393222E+03  0.00000000000E+00 0. -1.
         -3    1    6    6    0  503 -0.11133576513E+03  0.15573544023E+01 -0.28444773134E+02  0.11492250898E+03  0.00000000000E+00 0.  1.
<mgrwt>
<rscale>  0 0.14604077E+04</rscale>
<asrwt>0</asrwt>
<pdfrwt beam="1">  1        2 0.26715208E+00 0.14604077E+04</pdfrwt>
<pdfrwt beam="2">  1       -1 0.47239247E-01 0.14604077E+04</pdfrwt>
<totfact> 0.46187950E+01</totfact>
</mgrwt>
</event>
<event>
12    7  0.1661464E-007  0.1395165E+04  0.7818608E-02  0.8957326E-01
         -1   -1    0    0    0  501 -0.00000000000E+00  0.00000000000E+00  0.49883633930E+03  0.49883633930E+03  0.00000000000E+00 0.  1.
          2   -1    0    0  501    0  0.00000000000E+00 -0.00000000000E+00 -0.97551293120E+03  0.97551293120E+03  0.00000000000E+00 0. -1.
         24    2    1    2    0    0 -0.32285349116E+02 -0.12087460168E+03  0.26135538343E+03  0.30043696774E+03  0.79389684724E+02 0.  0.
        254    2    1    2    0    0  0.32285349116E+02  0.12087460168E+03 -0.73803197533E+03  0.11739123028E+04  0.90428197199E+03 0.  0.
         23    2    4    4    0    0 -0.47696901592E+01  0.46301199471E+03 -0.65641780273E+03  0.80851530904E+03  0.91705049087E+02 0.  0.
         23    2    4    4    0    0  0.37055039275E+02 -0.34213739303E+03 -0.81614172600E+02  0.36539699372E+03  0.91777002594E+02 0.  0.
          2    1    3    3  502    0 -0.20765965400E+02 -0.21011338272E+01  0.84842372922E+02  0.87372011110E+02  0.00000000000E+00 0. -1.
         -1    1    3    3    0  502 -0.11519383716E+02 -0.11877346785E+03  0.17651301050E+03  0.21306495663E+03  0.00000000000E+00 0.  1.
         13    1    5    5    0    0 -0.10928824138E+02  0.41439971557E+02 -0.26073108138E+02  0.50164902149E+02  0.00000000000E+00 0. -1.
        -13    1    5    5    0    0  0.61591339791E+01  0.42157202315E+03 -0.63034469459E+03  0.75835040689E+03  0.00000000000E+00 0.  1.
          4    1    6    6  503    0 -0.56987885572E+01  0.42270220841E+01 -0.27101315361E+01  0.75953090564E+01  0.00000000000E+00 0. -1.
         -4    1    6    6    0  503  0.42753827832E+02 -0.34636441511E+03 -0.78904041064E+02  0.35780168466E+03  0.00000000000E+00 0.  1.
<mgrwt>
<rscale>  0 0.13951649E+04</rscale>
<asrwt>0</asrwt>
<pdfrwt beam="1">  1        2 0.15007891E+00 0.13951649E+04</pdfrwt>
<pdfrwt beam="2">  1       -1 0.76744053E-01 0.13951649E+04</pdfrwt>
<totfact> 0.49453842E+01</totfact>
</mgrwt>
</event>
<event>
12    7  0.1661464E-007  0.1490996E+04  0.7818608E-02  0.8890463E-01
         -1   -1    0    0    0  501 -0.00000000000E+00  0.00000000000E+00  0.28704213540E+03  0.28704213540E+03  0.00000000000E+00 0.  1.
          2   -1    0    0  501    0  0.00000000000E+00 -0.00000000000E+00 -0.19361872853E+04  0.19361872853E+04  0.00000000000E+00 0. -1.
         24    2    1    2    0    0  0.40827648086E+03 -0.20391707969E+03 -0.40632914869E+03  0.61853045730E+03  0.95941072158E+02 0.  0.
        254    2    1    2    0    0 -0.40827648086E+03  0.20391707969E+03 -0.12428160012E+04  0.16046989634E+04  0.90674984974E+03 0.  0.
         23    2    4    4    0    0  0.28155714507E+03  0.42181437724E+02 -0.40855073229E+03  0.50639928623E+03  0.92048012550E+02 0.  0.
         23    2    4    4    0    0 -0.68983362592E+03  0.16173564197E+03 -0.83426526890E+03  0.10982996771E+04  0.90745757839E+02 0.  0.
          2    1    3    3  502    0  0.26948644250E+03 -0.14007556681E+03 -0.20768946413E+03  0.36793888163E+03  0.00000000000E+00 0. -1.
         -1    1    3    3    0  502  0.13879003836E+03 -0.63841512877E+02 -0.19863968456E+03  0.25059157567E+03  0.00000000000E+00 0.  1.
         13    1    5    5    0    0  0.19042457564E+03  0.45938427638E+02 -0.33965353720E+03  0.39209231499E+03  0.00000000000E+00 0.  1.
        -13    1    5    5    0    0  0.91132569424E+02 -0.37569899135E+01 -0.68897195093E+02  0.11430697124E+03  0.00000000000E+00 0. -1.
          2    1    6    6  503    0 -0.54224126137E+02  0.25242818350E+02 -0.40230794153E+02  0.72083094632E+02  0.00000000000E+00 0. -1.
         -2    1    6    6    0  503 -0.63560949979E+03  0.13649282362E+03 -0.79403447475E+03  0.10262165825E+04  0.00000000000E+00 0.  1.
<mgrwt>
<rscale>  0 0.14909961E+04</rscale>
<asrwt>0</asrwt>
<pdfrwt beam="1">  1        2 0.29787497E+00 0.14909961E+04</pdfrwt>
<pdfrwt beam="2">  1       -1 0.44160328E-01 0.14909961E+04</pdfrwt>
<totfact> 0.40514874E+01</totfact>
</mgrwt>
</event>
<event>
12    7  0.1661464E-007  0.1364594E+04  0.7818608E-02  0.8979854E-01
         -1   -1    0    0    0  501 -0.00000000000E+00  0.00000000000E+00  0.16099582422E+03  0.16099582422E+03  0.00000000000E+00 0.  1.
          2   -1    0    0  501    0  0.00000000000E+00 -0.00000000000E+00 -0.28915607718E+04  0.28915607718E+04  0.00000000000E+00 0. -1.
         24    2    1    2    0    0  0.22582124206E+03  0.81678727228E+02 -0.96320196919E+03  0.99591339391E+03  0.80117456650E+02 0.  0.
        254    2    1    2    0    0 -0.22582124206E+03 -0.81678727228E+02 -0.17673629784E+04  0.20566432021E+04  0.10239837477E+04 0.  0.
         23    2    4    4    0    0 -0.34787710316E+03 -0.79708817255E+02 -0.18480815604E+04  0.18844189653E+04  0.90870283500E+02 0.  0.
         23    2    4    4    0    0  0.12205586110E+03 -0.19699099734E+01  0.80718582009E+02  0.17222423682E+03  0.90797491667E+02 0.  0.
          4    1    3    3  502    0  0.23093549264E+03  0.81539360393E+02 -0.90713990819E+03  0.93961837045E+03  0.00000000000E+00 0. -1.
         -3    1    3    3    0  502 -0.51142505852E+01  0.13936683534E+00 -0.56062061002E+02  0.56295023457E+02  0.00000000000E+00 0.  1.
         13    1    5    5    0    0 -0.32221784090E+03 -0.74518794836E+02 -0.17952295611E+04  0.18254387321E+04  0.00000000000E+00 0. -1.
        -13    1    5    5    0    0 -0.25659262258E+02 -0.51900224184E+01 -0.52851999323E+02  0.58980233170E+02  0.00000000000E+00 0.  1.
          2    1    6    6  503    0  0.79112140362E+01 -0.32018798718E+02  0.93083362143E+01  0.34270043798E+02  0.00000000000E+00 0. -1.
         -2    1    6    6    0  503  0.11414464707E+03  0.30048888744E+02  0.71410245794E+02  0.13795419303E+03  0.00000000000E+00 0.  1.
<mgrwt>
<rscale>  0 0.13645940E+04</rscale>
<asrwt>0</asrwt>
<pdfrwt beam="1">  1        2 0.44485548E+00 0.13645940E+04</pdfrwt>
<pdfrwt beam="2">  1       -1 0.24768590E-01 0.13645940E+04</pdfrwt>
<totfact> 0.32429967E+01</totfact>
</mgrwt>
</event>
<event>
12    7  0.1661464E-007  0.3004362E+04  0.7818608E-02  0.8242486E-01
         -1   -1    0    0    0  501 -0.00000000000E+00  0.00000000000E+00  0.26594444858E+04  0.26594444858E+04  0.00000000000E+00 0.  1.
          2   -1    0    0  501    0  0.00000000000E+00 -0.00000000000E+00 -0.84850353673E+03  0.84850353673E+03  0.00000000000E+00 0. -1.
         24    2    1    2    0    0  0.13522043573E+04 -0.21693749714E+03  0.92711061278E+03  0.16556765873E+04  0.78818600029E+02 0.  0.
        254    2    1    2    0    0 -0.13522043573E+04  0.21693749714E+03  0.88383033630E+03  0.18522714353E+04  0.87990619102E+03 0.  0.
         23    2    4    4    0    0 -0.92738965449E+03  0.43131954009E+03  0.90342335370E+03  0.13676005112E+04  0.89829200908E+02 0.  0.
         23    2    4    4    0    0 -0.42481470281E+03 -0.21438204295E+03 -0.19593017402E+02  0.48467092406E+03  0.89971252263E+02 0.  0.
          4    1    3    3  502    0  0.21565014523E+03 -0.49205528832E+02  0.12006442636E+03  0.25167764240E+03  0.00000000000E+00 0. -1.
         -3    1    3    3    0  502  0.11365542121E+04 -0.16773196830E+03  0.80704618642E+03  0.14039989449E+04  0.00000000000E+00 0.  1.
         13    1    5    5    0    0 -0.70728715372E+03  0.36044696944E+03  0.66638798002E+03  0.10364603589E+04  0.00000000000E+00 0.  1.
        -13    1    5    5    0    0 -0.22010250077E+03  0.70872570646E+02  0.23703537368E+03  0.33114015234E+03  0.00000000000E+00 0. -1.
          3    1    6    6  503    0 -0.68171219733E+02 -0.85893351184E+01 -0.24313736824E+02  0.72885181457E+02  0.00000000000E+00 0. -1.
         -3    1    6    6    0  503 -0.35664348308E+03 -0.20579270784E+03  0.47207194215E+01  0.41178574261E+03  0.00000000000E+00 0.  1.
<mgrwt>
<rscale>  0 0.30043622E+04</rscale>
<asrwt>0</asrwt>
<pdfrwt beam="1">  1        2 0.13053901E+00 0.30043622E+04</pdfrwt>
<pdfrwt beam="2">  1       -1 0.40914530E+00 0.30043622E+04</pdfrwt>
<totfact> 0.19202605E-01</totfact>
</mgrwt>
</event>
<event>
12    7  0.1661464E-007  0.2474649E+04  0.7818608E-02  0.8412073E-01
         -1   -1    0    0    0  501 -0.00000000000E+00  0.00000000000E+00  0.78128596228E+03  0.78128596228E+03  0.00000000000E+00 0.  1.
          2   -1    0    0  501    0  0.00000000000E+00 -0.00000000000E+00 -0.19595542598E+04  0.19595542598E+04  0.00000000000E+00 0. -1.
         24    2    1    2    0    0 -0.94788908903E+03 -0.41868552022E+03 -0.75321379793E+03  0.12835981844E+04  0.80634879308E+02 0.  0.
        254    2    1    2    0    0  0.94788908903E+03  0.41868552022E+03 -0.42505449961E+03  0.14572420377E+04  0.93225089902E+03 0.  0.
         23    2    4    4    0    0  0.17714014329E+03  0.42272291348E+03  0.15079233078E+03  0.49093073319E+03  0.90561392545E+02 0.  0.
         23    2    4    4    0    0  0.77074894574E+03 -0.40373932558E+01 -0.57584683038E+03  0.96631130447E+03  0.89931791777E+02 0.  0.
          4    1    3    3  502    0 -0.77878409297E+03 -0.34769208666E+03 -0.58060601135E+03  0.10317450223E+04  0.00000000000E+00 0. -1.
         -3    1    3    3    0  502 -0.16910499607E+03 -0.70993433566E+02 -0.17260778658E+03  0.25185316216E+03  0.00000000000E+00 0.  1.
         13    1    5    5    0    0  0.15027723398E+03  0.28569756868E+03  0.13679113248E+03  0.35059686497E+03  0.00000000000E+00 0.  1.
        -13    1    5    5    0    0  0.26862909306E+02  0.13702534480E+03  0.14001198296E+02  0.14033386821E+03  0.00000000000E+00 0. -1.
          3    1    6    6  503    0  0.17235651213E+02  0.38539414409E+01 -0.33531875064E+02  0.37898643547E+02  0.00000000000E+00 0. -1.
         -3    1    6    6    0  503  0.75351329453E+03 -0.78913346967E+01 -0.54231495532E+03  0.92841266092E+03  0.00000000000E+00 0.  1.
<mgrwt>
<rscale>  0 0.24746493E+04</rscale>
<asrwt>0</asrwt>
<pdfrwt beam="1">  1        2 0.30146988E+00 0.24746493E+04</pdfrwt>
<pdfrwt beam="2">  1       -1 0.12019784E+00 0.24746493E+04</pdfrwt>
<totfact> 0.44123948E+00</totfact>
</mgrwt>
</event>
<event>
12    7  0.1661464E-007  0.1381316E+04  0.7818608E-02  0.8967455E-01
         -1   -1    0    0    0  501 -0.00000000000E+00  0.00000000000E+00  0.31902601341E+03  0.31902601341E+03  0.00000000000E+00 0.  1.
          2   -1    0    0  501    0  0.00000000000E+00 -0.00000000000E+00 -0.14952030352E+04  0.14952030352E+04  0.00000000000E+00 0. -1.
         24    2    1    2    0    0  0.32042157500E+03 -0.20099216012E+03 -0.18892302405E+03  0.43100014662E+03  0.83674268533E+02 0.  0.
        254    2    1    2    0    0 -0.32042157500E+03  0.20099216012E+03 -0.98725399773E+03  0.13832289020E+04  0.89195510261E+03 0.  0.
         23    2    4    4    0    0 -0.15249158849E+03  0.23993834146E+02  0.14094037510E+03  0.22568293905E+03  0.85083553089E+02 0.  0.
         23    2    4    4    0    0 -0.16792998651E+03  0.17699832597E+03 -0.11281943728E+04  0.11575459629E+04  0.86955308170E+02 0.  0.
          4    1    3    3  502    0  0.11840463347E+03 -0.33164347757E+02 -0.79869118233E+02  0.14662403363E+03  0.00000000000E+00 0. -1.
         -3    1    3    3    0  502  0.20201694153E+03 -0.16782781236E+03 -0.10905390582E+03  0.28437611299E+03  0.00000000000E+00 0.  1.
         13    1    5    5    0    0 -0.75443205596E+02  0.53070611986E+02  0.89861271593E+02  0.12877583337E+03  0.00000000000E+00 0.  1.
        -13    1    5    5    0    0 -0.77048382895E+02 -0.29076777840E+02  0.51079103511E+02  0.96907105683E+02  0.00000000000E+00 0. -1.
          1    1    6    6  503    0 -0.10871114906E+03  0.14362606840E+03 -0.64821831930E+03  0.67278046265E+03  0.00000000000E+00 0. -1.
         -1    1    6    6    0  503 -0.59218837454E+02  0.33372257573E+02 -0.47997605354E+03  0.48476550027E+03  0.00000000000E+00 0.  1.
<mgrwt>
<rscale>  0 0.13813163E+04</rscale>
<asrwt>0</asrwt>
<pdfrwt beam="1">  1        2 0.23003124E+00 0.13813163E+04</pdfrwt>
<pdfrwt beam="2">  1       -1 0.49080925E-01 0.13813163E+04</pdfrwt>
<totfact> 0.58976946E+01</totfact>
</mgrwt>
</event>
<event>
12    7  0.1661464E-007  0.2678205E+04  0.7818608E-02  0.8342112E-01
          2   -1    0    0  501    0  0.00000000000E+00  0.00000000000E+00  0.11981021722E+04  0.11981021722E+04  0.00000000000E+00 0. -1.
         -1   -1    0    0    0  501 -0.00000000000E+00 -0.00000000000E+00 -0.14966961492E+04  0.14966961492E+04  0.00000000000E+00 0.  1.
         24    2    1    2    0    0  0.79974678180E+03 -0.28842559323E+03 -0.10011328205E+04  0.13157277970E+04  0.78028672383E+02 0.  0.
        254    2    1    2    0    0 -0.79974678180E+03  0.28842559323E+03  0.70253884353E+03  0.13790705244E+04  0.82794350461E+03 0.  0.
         23    2    4    4    0    0 -0.59144623270E+03  0.44865248741E+03  0.15356196429E+03  0.76356790681E+03  0.91416469015E+02 0.  0.
         23    2    4    4    0    0 -0.20830054910E+03 -0.16022689418E+03  0.54897687923E+03  0.61550261760E+03  0.91684687760E+02 0.  0.
          2    1    3    3  502    0  0.47510579116E+02  0.14688321230E+01 -0.58872631596E+02  0.75666368664E+02  0.00000000000E+00 0. -1.
         -3    1    3    3    0  502  0.75223620268E+03 -0.28989442535E+03 -0.94226018887E+03  0.12400614283E+04  0.00000000000E+00 0.  1.
         13    1    5    5    0    0 -0.42160935628E+03  0.31343611939E+03  0.15038673038E+03  0.54645477298E+03  0.00000000000E+00 0.  1.
        -13    1    5    5    0    0 -0.16983687642E+03  0.13521636802E+03  0.31752339152E+01  0.21711313383E+03  0.00000000000E+00 0. -1.
          2    1    6    6  503    0 -0.15076365806E+02 -0.30068601648E+02  0.24510255203E+02  0.41619349119E+02  0.00000000000E+00 0.  1.
         -2    1    6    6    0  503 -0.19322418330E+03 -0.13015829253E+03  0.52446662403E+03  0.57388326848E+03  0.00000000000E+00 0. -1.
<mgrwt>
<rscale>  0 0.26782046E+04</rscale>
<asrwt>0</asrwt>
<pdfrwt beam="1">  1        2 0.18432341E+00 0.26782046E+04</pdfrwt>
<pdfrwt beam="2">  1       -1 0.23026094E+00 0.26782046E+04</pdfrwt>
<totfact> 0.17880289E+00</totfact>
</mgrwt>
</event>
<event>
12    7  0.1661464E-007  0.2014478E+04  0.7818608E-02  0.8599881E-01
          2   -1    0    0  501    0  0.00000000000E+00  0.00000000000E+00  0.26357720386E+04  0.26357720386E+04  0.00000000000E+00 0. -1.
         -1   -1    0    0    0  501 -0.00000000000E+00 -0.00000000000E+00 -0.38490825373E+03  0.38490825373E+03  0.00000000000E+00 0.  1.
         24    2    1    2    0    0  0.46733088292E+03 -0.47483326008E+03  0.15665313599E+04  0.17041592879E+04  0.79206047873E+02 0.  0.
        254    2    1    2    0    0 -0.46733088292E+03  0.47483326008E+03  0.68433242488E+03  0.13165210043E+04  0.90611914674E+03 0.  0.
         23    2    4    4    0    0 -0.59428285920E+03  0.63580837933E+03  0.42208306914E+03  0.97118776131E+03  0.87333490126E+02 0.  0.
         23    2    4    4    0    0  0.12695197628E+03 -0.16097511926E+03  0.26224935574E+03  0.34533324302E+03  0.91926768925E+02 0.  0.
          2    1    3    3  502    0  0.33775167098E+03 -0.36839414767E+03  0.12438917100E+04  0.13405435560E+04  0.00000000000E+00 0. -1.
         -1    1    3    3    0  502  0.12957921194E+03 -0.10643911241E+03  0.32263964992E+03  0.36361573194E+03  0.00000000000E+00 0.  1.
         13    1    5    5    0    0 -0.27529130058E+03  0.23698282610E+03  0.19498203538E+03  0.41226709080E+03  0.00000000000E+00 0. -1.
        -13    1    5    5    0    0 -0.31899155862E+03  0.39882555324E+03  0.22710103376E+03  0.55892067051E+03  0.00000000000E+00 0.  1.
          4    1    6    6  503    0  0.42901810967E+02 -0.17310901255E+02  0.17737730061E+02  0.49546541294E+02  0.00000000000E+00 0. -1.
         -4    1    6    6    0  503  0.84050165314E+02 -0.14366421800E+03  0.24451162568E+03  0.29578670172E+03  0.00000000000E+00 0.  1.
<mgrwt>
<rscale>  0 0.20144780E+04</rscale>
<asrwt>0</asrwt>
<pdfrwt beam="1">  1        2 0.40550338E+00 0.20144780E+04</pdfrwt>
<pdfrwt beam="2">  1       -1 0.59216656E-01 0.20144780E+04</pdfrwt>
<totfact> 0.88599602E+00</totfact>
</mgrwt>
</event>
<event>
12    7  0.1661464E-007  0.1540381E+04  0.7818608E-02  0.8858035E-01
          2   -1    0    0  501    0  0.00000000000E+00  0.00000000000E+00  0.12680145710E+04  0.12680145710E+04  0.00000000000E+00 0. -1.
         -1   -1    0    0    0  501 -0.00000000000E+00 -0.00000000000E+00 -0.46781288548E+03  0.46781288548E+03  0.00000000000E+00 0.  1.
         24    2    1    2    0    0 -0.24921223150E+03  0.39986779185E+03  0.41887808253E+03  0.63547453013E+03  0.79800019623E+02 0.  0.
        254    2    1    2    0    0  0.24921223150E+03 -0.39986779185E+03  0.38132360301E+03  0.11003529264E+04  0.91835063296E+03 0.  0.
         23    2    4    4    0    0 -0.31659026893E+03 -0.19301544012E+03  0.30166922358E+03  0.48624360842E+03  0.89130060937E+02 0.  0.
         23    2    4    4    0    0  0.56580250043E+03 -0.20685235173E+03  0.79654379432E+02  0.61410931795E+03  0.88685226063E+02 0.  0.
          4    1    3    3  502    0 -0.19120097680E+03  0.33561057018E+03  0.30348496949E+03  0.49121827638E+03  0.00000000000E+00 0. -1.
         -3    1    3    3    0  502 -0.58011254703E+02  0.64257221675E+02  0.11539311304E+03  0.14425625375E+03  0.00000000000E+00 0.  1.
         13    1    5    5    0    0 -0.58352978508E+02  0.51788081999E+00  0.53136326889E+02  0.78922794784E+02  0.00000000000E+00 0.  1.
        -13    1    5    5    0    0 -0.25823729042E+03 -0.19353332094E+03  0.24853289669E+03  0.40732081363E+03  0.00000000000E+00 0. -1.
          4    1    6    6  503    0  0.27929337998E+03 -0.74468406158E+02  0.74305586739E+02  0.29844874910E+03  0.00000000000E+00 0.  1.
         -4    1    6    6    0  503  0.28650912045E+03 -0.13238394557E+03  0.53487926928E+01  0.31566056885E+03  0.00000000000E+00 0. -1.
<mgrwt>
<rscale>  0 0.15403812E+04</rscale>
<asrwt>0</asrwt>
<pdfrwt beam="1">  1        2 0.19507916E+00 0.15403812E+04</pdfrwt>
<pdfrwt beam="2">  1       -1 0.71971214E-01 0.15403812E+04</pdfrwt>
<totfact> 0.36931706E+01</totfact>
</mgrwt>
</event>
<event>
12    7  0.1661464E-007  0.1332990E+04  0.7818608E-02  0.9003805E-01
         -1   -1    0    0    0  501 -0.00000000000E+00  0.00000000000E+00  0.18081619280E+03  0.18081619280E+03  0.00000000000E+00 0.  1.
          2   -1    0    0  501    0  0.00000000000E+00 -0.00000000000E+00 -0.24567244089E+04  0.24567244089E+04  0.00000000000E+00 0. -1.
         24    2    1    2    0    0  0.82766470493E+02 -0.33710404864E+03 -0.80437279798E+03  0.87965237954E+03  0.79267158763E+02 0.  0.
        254    2    1    2    0    0 -0.82766470493E+02  0.33710404864E+03 -0.14715354182E+04  0.17578882222E+04  0.89680827751E+03 0.  0.
         23    2    4    4    0    0 -0.37844025817E+03 -0.70379540615E+02 -0.36582490037E+03  0.53905487121E+03  0.92639018260E+02 0.  0.
         23    2    4    4    0    0  0.29567378767E+03  0.40748358925E+03 -0.11057105178E+04  0.12188333510E+04  0.97432664534E+02 0.  0.
          4    1    3    3  502    0  0.85873572925E+02 -0.33608734897E+03 -0.80478183321E+03  0.87635767568E+03  0.00000000000E+00 0. -1.
         -3    1    3    3    0  502 -0.31071024318E+01 -0.10166996668E+01  0.40903522429E+00  0.32947038636E+01  0.00000000000E+00 0.  1.
         13    1    5    5    0    0 -0.14757973920E+03 -0.46668569068E+01 -0.87944719195E+02  0.17185992148E+03  0.00000000000E+00 0.  1.
        -13    1    5    5    0    0 -0.23086051896E+03 -0.65712683708E+02 -0.27788018118E+03  0.36719494973E+03  0.00000000000E+00 0. -1.
          3    1    6    6  503    0  0.22967927202E+03  0.27296144555E+03 -0.68661557642E+03  0.77375801678E+03  0.00000000000E+00 0. -1.
         -3    1    6    6    0  503  0.65994515655E+02  0.13452214370E+03 -0.41909494137E+03  0.44507533421E+03  0.00000000000E+00 0.  1.
<mgrwt>
<rscale>  0 0.13329900E+04</rscale>
<asrwt>0</asrwt>
<pdfrwt beam="1">  1        2 0.37795757E+00 0.13329900E+04</pdfrwt>
<pdfrwt beam="2">  1       -1 0.27817878E-01 0.13329900E+04</pdfrwt>
<totfact> 0.48022524E+01</totfact>
</mgrwt>
</event>
<event>
12    7  0.1661464E-007  0.1962121E+04  0.7818608E-02  0.8624538E-01
          2   -1    0    0  501    0  0.00000000000E+00  0.00000000000E+00  0.10749264650E+04  0.10749264650E+04  0.00000000000E+00 0. -1.
         -1   -1    0    0    0  501 -0.00000000000E+00 -0.00000000000E+00 -0.89539163115E+03  0.89539163115E+03  0.00000000000E+00 0.  1.
         24    2    1    2    0    0 -0.19053285382E+03  0.58937044296E+03 -0.38058830004E+03  0.73134417039E+03  0.79728000171E+02 0.  0.
        254    2    1    2    0    0  0.19053285382E+03 -0.58937044296E+03  0.56012313388E+03  0.12389739257E+04  0.91523667766E+03 0.  0.
         23    2    4    4    0    0  0.39658496497E+02 -0.78556504878E+03  0.56782208070E+03  0.97407851145E+03  0.87873710204E+02 0.  0.
         23    2    4    4    0    0  0.15087435733E+03  0.19619460581E+03 -0.76989468121E+01  0.26489541429E+03  0.94100540287E+02 0.  0.
          4    1    3    3  502    0 -0.27891022102E+02  0.33201730372E+02 -0.41169398613E+02  0.59792837328E+02  0.00000000000E+00 0. -1.
         -3    1    3    3    0  502 -0.16264183172E+03  0.55616871259E+03 -0.33941890142E+03  0.67155133306E+03  0.00000000000E+00 0.  1.
         13    1    5    5    0    0  0.64888183721E+02 -0.59044125699E+03  0.44417888264E+03  0.74170495086E+03  0.00000000000E+00 0. -1.
        -13    1    5    5    0    0 -0.25229687224E+02 -0.19512379179E+03  0.12364319806E+03  0.23237356060E+03  0.00000000000E+00 0.  1.
          4    1    6    6  503    0  0.24824221107E+02  0.69586605148E+02 -0.38958986180E+02  0.83524488468E+02  0.00000000000E+00 0. -1.
         -4    1    6    6    0  503  0.12605013622E+03  0.12660800067E+03  0.31260039368E+02  0.18137092582E+03  0.00000000000E+00 0.  1.
<mgrwt>
<rscale>  0 0.19621215E+04</rscale>
<asrwt>0</asrwt>
<pdfrwt beam="1">  1        2 0.16537330E+00 0.19621215E+04</pdfrwt>
<pdfrwt beam="2">  1       -1 0.13775256E+00 0.19621215E+04</pdfrwt>
<totfact> 0.10495122E+01</totfact>
</mgrwt>
</event>
<event>
12    7  0.1661464E-007  0.2462930E+04  0.7818608E-02  0.8416312E-01
         -1   -1    0    0    0  501 -0.00000000000E+00  0.00000000000E+00  0.52450050236E+03  0.52450050236E+03  0.00000000000E+00 0.  1.
          2   -1    0    0  501    0  0.00000000000E+00 -0.00000000000E+00 -0.28913343956E+04  0.28913343956E+04  0.00000000000E+00 0. -1.
         24    2    1    2    0    0 -0.51526450221E+03 -0.43415875205E+03 -0.21549812379E+04  0.22592673098E+04  0.79707667215E+02 0.  0.
        254    2    1    2    0    0  0.51526450221E+03  0.43415875205E+03 -0.21185265531E+03  0.11565675881E+04  0.91584699002E+03 0.  0.
         23    2    4    4    0    0  0.50263729376E+03  0.95914337677E+02  0.24939615919E+03  0.57695447997E+03  0.93990523408E+02 0.  0.
         23    2    4    4    0    0  0.12627208444E+02  0.33824441437E+03 -0.46124881450E+03  0.57961310815E+03  0.92909396833E+02 0.  0.
          4    1    3    3  502    0 -0.28772350409E+03 -0.27060158527E+03 -0.13682163766E+04  0.14240878084E+04  0.00000000000E+00 0. -1.
         -3    1    3    3    0  502 -0.22754099812E+03 -0.16355716678E+03 -0.78676486132E+03  0.83517950145E+03  0.00000000000E+00 0.  1.
         13    1    5    5    0    0  0.35761770104E+03  0.91539038357E+02  0.21731657305E+03  0.42836469108E+03  0.00000000000E+00 0. -1.
        -13    1    5    5    0    0  0.14501959272E+03  0.43752993200E+01  0.32079586142E+02  0.14858978889E+03  0.00000000000E+00 0.  1.
          1    1    6    6  503    0  0.20095734715E+02  0.28672706042E+03 -0.43481650467E+03  0.52123088787E+03  0.00000000000E+00 0. -1.
         -1    1    6    6    0  503 -0.74685262708E+01  0.51517353953E+02 -0.26432309827E+02  0.58382220288E+02  0.00000000000E+00 0.  1.
<mgrwt>
<rscale>  0 0.24629302E+04</rscale>
<asrwt>0</asrwt>
<pdfrwt beam="1">  1        2 0.44482067E+00 0.24629302E+04</pdfrwt>
<pdfrwt beam="2">  1       -1 0.80692386E-01 0.24629302E+04</pdfrwt>
<totfact> 0.31695517E+00</totfact>
</mgrwt>
</event>
<event>
12    7  0.1661464E-007  0.4554183E+04  0.7818608E-02  0.7901219E-01
         -1   -1    0    0    0  501 -0.00000000000E+00  0.00000000000E+00  0.19985597619E+04  0.19985597619E+04  0.00000000000E+00 0.  1.
          2   -1    0    0  501    0  0.00000000000E+00 -0.00000000000E+00 -0.25944408613E+04  0.25944408613E+04  0.00000000000E+00 0. -1.
         24    2    1    2    0    0  0.38337964275E+03 -0.14162437932E+04  0.13513468646E+04  0.19961066787E+04  0.74679930998E+02 0.  0.
        254    2    1    2    0    0 -0.38337964275E+03  0.14162437932E+04 -0.19472279640E+04  0.25968939445E+04  0.89411128101E+03 0.  0.
         23    2    4    4    0    0 -0.21679132831E+03  0.62911441626E+03 -0.25048944088E+03  0.71687277821E+03  0.91532460761E+02 0.  0.
         23    2    4    4    0    0 -0.16658831443E+03  0.78712937690E+03 -0.16967385232E+04  0.18800211663E+04  0.90739446554E+02 0.  0.
          2    1    3    3  502    0  0.29953369265E+03 -0.98455996551E+03  0.92982459720E+03  0.13869580168E+04  0.00000000000E+00 0. -1.
         -1    1    3    3    0  502  0.83845950094E+02 -0.43168382765E+03  0.42152226743E+03  0.60914866194E+03  0.00000000000E+00 0.  1.
         13    1    5    5    0    0 -0.12365803511E+03  0.24399496692E+03 -0.75782843548E+02  0.28384483949E+03  0.00000000000E+00 0. -1.
        -13    1    5    5    0    0 -0.93133293203E+02  0.38511944934E+03 -0.17470659733E+03  0.43302793872E+03  0.00000000000E+00 0.  1.
          3    1    6    6  503    0 -0.15583919652E+03  0.54581072376E+03 -0.12195923721E+04  0.13452140185E+04  0.00000000000E+00 0. -1.
         -3    1    6    6    0  503 -0.10749117910E+02  0.24131865314E+03 -0.47714615104E+03  0.53480714781E+03  0.00000000000E+00 0.  1.
<mgrwt>
<rscale>  0 0.45541827E+04</rscale>
<asrwt>0</asrwt>
<pdfrwt beam="1">  1        2 0.39914475E+00 0.45541827E+04</pdfrwt>
<pdfrwt beam="2">  1       -1 0.30747073E+00 0.45541827E+04</pdfrwt>
<totfact> 0.77670982E-02</totfact>
</mgrwt>
</event>
<event>
12    7  0.1661464E-007  0.2093110E+04  0.7818608E-02  0.8564285E-01
         -1   -1    0    0    0  501 -0.00000000000E+00  0.00000000000E+00  0.60627947045E+03  0.60627947045E+03  0.00000000000E+00 0.  1.
          2   -1    0    0  501    0  0.00000000000E+00 -0.00000000000E+00 -0.18065548383E+04  0.18065548383E+04  0.00000000000E+00 0. -1.
         24    2    1    2    0    0 -0.19276355090E+02 -0.84842174236E+03 -0.51405035939E+03  0.99517466618E+03  0.77031249698E+02 0.  0.
        254    2    1    2    0    0  0.19276355090E+02  0.84842174236E+03 -0.68622500848E+03  0.14176596426E+04  0.90480001614E+03 0.  0.
         23    2    4    4    0    0 -0.15771609007E+03  0.21260740541E+03 -0.69574101721E+03  0.75036071306E+03  0.94389420838E+02 0.  0.
         23    2    4    4    0    0  0.17699244516E+03  0.63581433695E+03  0.95160087325E+01  0.66729892954E+03  0.98036269944E+02 0.  0.
          2    1    3    3  502    0 -0.46280735406E+00 -0.28663636623E+03 -0.21624410293E+03  0.35905728330E+03  0.00000000000E+00 0. -1.
         -1    1    3    3    0  502 -0.18813547736E+02 -0.56178537613E+03 -0.29780625646E+03  0.63611738288E+03  0.00000000000E+00 0.  1.
         13    1    5    5    0    0 -0.86538271616E+02  0.54177607964E+02 -0.19105099170E+03  0.21662079099E+03  0.00000000000E+00 0.  1.
        -13    1    5    5    0    0 -0.71177818456E+02  0.15842979745E+03 -0.50469002551E+03  0.53373992207E+03  0.00000000000E+00 0. -1.
          1    1    6    6  503    0  0.28295218826E+02  0.28172280337E+03  0.78452866290E+01  0.28324884090E+03  0.00000000000E+00 0. -1.
         -1    1    6    6    0  503  0.14869722633E+03  0.35409153358E+03  0.16707221035E+01  0.38405008864E+03  0.00000000000E+00 0.  1.
<mgrwt>
<rscale>  0 0.20931098E+04</rscale>
<asrwt>0</asrwt>
<pdfrwt beam="1">  1        2 0.27793151E+00 0.20931098E+04</pdfrwt>
<pdfrwt beam="2">  1       -1 0.93273765E-01 0.20931098E+04</pdfrwt>
<totfact> 0.10023149E+01</totfact>
</mgrwt>
</event>
<event>
12    7  0.1661464E-007  0.1310598E+04  0.7818608E-02  0.9021203E-01
         -1   -1    0    0    0  501 -0.00000000000E+00  0.00000000000E+00  0.38436527373E+03  0.38436527373E+03  0.00000000000E+00 0.  1.
          2   -1    0    0  501    0  0.00000000000E+00 -0.00000000000E+00 -0.11172103178E+04  0.11172103178E+04  0.00000000000E+00 0. -1.
         24    2    1    2    0    0 -0.57433717669E+02 -0.11469222706E+03 -0.36002769631E+03  0.39051358283E+03  0.80174667998E+02 0.  0.
        254    2    1    2    0    0  0.57433717669E+02  0.11469222706E+03 -0.37281734773E+03  0.11110620087E+04  0.10387555408E+04 0.  0.
         23    2    4    4    0    0 -0.19429001002E+03 -0.17691434069E+03 -0.59518988984E+03  0.65683185782E+03  0.90165362212E+02 0.  0.
         23    2    4    4    0    0  0.25172372769E+03  0.29160656774E+03  0.22237254211E+03  0.45423015086E+03  0.92066590226E+02 0.  0.
          2    1    3    3  502    0 -0.37634070246E+02 -0.90055853028E+02 -0.33845333821E+03  0.35224571261E+03  0.00000000000E+00 0. -1.
         -1    1    3    3    0  502 -0.19799647423E+02 -0.24636374029E+02 -0.21574358102E+02  0.38267870216E+02  0.00000000000E+00 0.  1.
         13    1    5    5    0    0 -0.17460317815E+03 -0.17148926726E+03 -0.58474726893E+03  0.63389605388E+03  0.00000000000E+00 0.  1.
        -13    1    5    5    0    0 -0.19686831874E+02 -0.54250734247E+01 -0.10442620915E+02  0.22935803942E+02  0.00000000000E+00 0. -1.
          3    1    6    6  503    0  0.12611152123E+03  0.93706903603E+02  0.56032001329E+02  0.16680732820E+03  0.00000000000E+00 0. -1.
         -3    1    6    6    0  503  0.12561220647E+03  0.19789966414E+03  0.16634054078E+03  0.28742282266E+03  0.00000000000E+00 0.  1.
<mgrwt>
<rscale>  0 0.13105981E+04</rscale>
<asrwt>0</asrwt>
<pdfrwt beam="1">  1        2 0.17187851E+00 0.13105981E+04</pdfrwt>
<pdfrwt beam="2">  1       -1 0.59133118E-01 0.13105981E+04</pdfrwt>
<totfact> 0.68838185E+01</totfact>
</mgrwt>
</event>
<event>
12    7  0.1661464E-007  0.1573053E+04  0.7818608E-02  0.8837276E-01
         -1   -1    0    0    0  501 -0.00000000000E+00  0.00000000000E+00  0.19547902085E+03  0.19547902085E+03  0.00000000000E+00 0.  1.
          2   -1    0    0  501    0  0.00000000000E+00 -0.00000000000E+00 -0.31646557623E+04  0.31646557623E+04  0.00000000000E+00 0. -1.
         24    2    1    2    0    0  0.45064722561E+03 -0.16136600710E+03 -0.15765249319E+04  0.16494644121E+04  0.78613456269E+02 0.  0.
        254    2    1    2    0    0 -0.45064722561E+03  0.16136600710E+03 -0.13926518095E+04  0.17106703711E+04  0.87051257642E+03 0.  0.
         23    2    4    4    0    0 -0.44778648786E+02  0.18532458054E+03 -0.12541905700E+04  0.12716707746E+04  0.88330320408E+02 0.  0.
         23    2    4    4    0    0 -0.40586857682E+03 -0.23958573435E+02 -0.13846123953E+03  0.43899959650E+03  0.90806475470E+02 0.  0.
          4    1    3    3  502    0  0.42754749722E+03 -0.13149031729E+03 -0.14556863228E+04  0.15228621856E+04  0.00000000000E+00 0. -1.
         -3    1    3    3    0  502  0.23099728382E+02 -0.29875689818E+02 -0.12083860910E+03  0.12660222646E+03  0.00000000000E+00 0.  1.
         13    1    5    5    0    0 -0.26420988008E+02  0.11609165871E+03 -0.10157706388E+04  0.10227244656E+04  0.00000000000E+00 0. -1.
        -13    1    5    5    0    0 -0.18357660779E+02  0.69232921834E+02 -0.23841993115E+03  0.24894630896E+03  0.00000000000E+00 0.  1.
          1    1    6    6  503    0 -0.33180624707E+03 -0.21024710082E+02 -0.73631387196E+02  0.34052753958E+03  0.00000000000E+00 0. -1.
         -1    1    6    6    0  503 -0.74062329747E+02 -0.29338633533E+01 -0.64829852331E+02  0.98472056925E+02  0.00000000000E+00 0.  1.
<mgrwt>
<rscale>  0 0.15730528E+04</rscale>
<asrwt>0</asrwt>
<pdfrwt beam="1">  1        2 0.48687013E+00 0.15730528E+04</pdfrwt>
<pdfrwt beam="2">  1       -1 0.30073694E-01 0.15730528E+04</pdfrwt>
<totfact> 0.15322846E+01</totfact>
</mgrwt>
</event>
<event>
12    7  0.1661464E-007  0.1902541E+04  0.7818608E-02  0.8653593E-01
          2   -1    0    0  501    0  0.00000000000E+00  0.00000000000E+00  0.33491647463E+04  0.33491647463E+04  0.00000000000E+00 0. -1.
         -1   -1    0    0    0  501 -0.00000000000E+00 -0.00000000000E+00 -0.27019137064E+03  0.27019137064E+03  0.00000000000E+00 0.  1.
         24    2    1    2    0    0  0.20597133864E+03 -0.26882571528E+03  0.24239912885E+04  0.24489284838E+04  0.82616551548E+02 0.  0.
        254    2    1    2    0    0 -0.20597133864E+03  0.26882571528E+03  0.65498208718E+03  0.11704276331E+04  0.90895976387E+03 0.  0.
         23    2    4    4    0    0 -0.15457610040E+03 -0.31852289499E+03  0.17995775611E+03  0.40749384745E+03  0.91191207232E+02 0.  0.
         23    2    4    4    0    0 -0.51395238248E+02  0.58734861027E+03  0.47502433107E+03  0.76293378569E+03  0.93808239173E+02 0.  0.
          2    1    3    3  502    0  0.18649634183E+03 -0.21612989272E+03  0.21764853419E+04  0.21951267525E+04  0.00000000000E+00 0. -1.
         -1    1    3    3    0  502  0.19474996816E+02 -0.52695822559E+02  0.24750594655E+03  0.25380173127E+03  0.00000000000E+00 0.  1.
         13    1    5    5    0    0 -0.16644580651E+03 -0.30119663885E+03  0.17425618205E+03  0.38573156306E+03  0.00000000000E+00 0. -1.
        -13    1    5    5    0    0  0.11869706111E+02 -0.17326256141E+02  0.57015740653E+01  0.21762284390E+02  0.00000000000E+00 0.  1.
          3    1    6    6  503    0 -0.78284639302E+01  0.48799327633E+03  0.40002565677E+03  0.63104615415E+03  0.00000000000E+00 0. -1.
         -3    1    6    6    0  503 -0.43566774317E+02  0.99355333940E+02  0.74998674300E+02  0.13188763154E+03  0.00000000000E+00 0.  1.
<mgrwt>
<rscale>  0 0.19025408E+04</rscale>
<asrwt>0</asrwt>
<pdfrwt beam="1">  1        2 0.51525608E+00 0.19025408E+04</pdfrwt>
<pdfrwt beam="2">  1       -1 0.41567906E-01 0.19025408E+04</pdfrwt>
<totfact> 0.62789597E+00</totfact>
</mgrwt>
</event>
<event>
12    7  0.1661464E-007  0.1243602E+04  0.7818608E-02  0.9075525E-01
         -1   -1    0    0    0  501 -0.00000000000E+00  0.00000000000E+00  0.23906218667E+03  0.23906218667E+03  0.00000000000E+00 0.  1.
          2   -1    0    0  501    0  0.00000000000E+00 -0.00000000000E+00 -0.16173060102E+04  0.16173060102E+04  0.00000000000E+00 0. -1.
         24    2    1    2    0    0  0.11213954944E+03  0.27489451502E+03 -0.30148547783E+03  0.43060070273E+03  0.79882406740E+02 0.  0.
        254    2    1    2    0    0 -0.11213954944E+03 -0.27489451502E+03 -0.10767583457E+04  0.14257674941E+04  0.88615017879E+03 0.  0.
         23    2    4    4    0    0  0.32232708971E+03 -0.48409061937E+02 -0.14279232254E+03  0.36711194816E+03  0.90240484664E+02 0.  0.
         23    2    4    4    0    0 -0.43446663915E+03 -0.22648545309E+03 -0.93396602312E+03  0.10586555459E+04  0.91663033017E+02 0.  0.
          2    1    3    3  502    0  0.78117673995E+02  0.23361989842E+03 -0.28005974703E+03  0.37298001265E+03  0.00000000000E+00 0. -1.
         -1    1    3    3    0  502  0.34021875446E+02  0.41274616603E+02 -0.21425730798E+02  0.57620690076E+02  0.00000000000E+00 0.  1.
         13    1    5    5    0    0  0.20436222029E+03 -0.35288839325E+02 -0.13645171444E+03  0.24825045748E+03  0.00000000000E+00 0. -1.
        -13    1    5    5    0    0  0.11796486942E+03 -0.13120222613E+02 -0.63406080985E+01  0.11886149069E+03  0.00000000000E+00 0.  1.
          2    1    6    6  503    0 -0.28328062562E+03 -0.16002321729E+03 -0.70385739778E+03  0.77541639093E+03  0.00000000000E+00 0. -1.
         -2    1    6    6    0  503 -0.15118601353E+03 -0.66462235801E+02 -0.23010862535E+03  0.28323915502E+03  0.00000000000E+00 0.  1.
<mgrwt>
<rscale>  0 0.12436024E+04</rscale>
<asrwt>0</asrwt>
<pdfrwt beam="1">  1        2 0.24881631E+00 0.12436024E+04</pdfrwt>
<pdfrwt beam="2">  1       -1 0.36778798E-01 0.12436024E+04</pdfrwt>
<totfact> 0.86738177E+01</totfact>
</mgrwt>
</event>
<event>
12    7  0.1661464E-007  0.1490508E+04  0.7818608E-02  0.8890790E-01
          2   -1    0    0  501    0  0.00000000000E+00  0.00000000000E+00  0.27855841289E+04  0.27855841289E+04  0.00000000000E+00 0. -1.
         -1   -1    0    0    0  501 -0.00000000000E+00 -0.00000000000E+00 -0.19938483568E+03  0.19938483568E+03  0.00000000000E+00 0.  1.
         24    2    1    2    0    0  0.40280872334E+03 -0.14820966072E+03  0.11981343147E+04  0.12751362447E+04  0.78902694282E+02 0.  0.
        254    2    1    2    0    0 -0.40280872334E+03  0.14820966072E+03  0.13880649785E+04  0.17098327199E+04  0.90143362179E+03 0.  0.
         23    2    4    4    0    0 -0.19574518840E+03 -0.27429794713E+03  0.10936777583E+04  0.11477100671E+04  0.86901188479E+02 0.  0.
         23    2    4    4    0    0 -0.20706353495E+03  0.42250760785E+03  0.29438722013E+03  0.56212265277E+03  0.89050857299E+02 0.  0.
          4    1    3    3  502    0  0.40446807165E+03 -0.14561240060E+03  0.11970008386E+04  0.12718523499E+04  0.00000000000E+00 0. -1.
         -3    1    3    3    0  502 -0.16593483058E+01 -0.25972601157E+01  0.11334761091E+01  0.32838947910E+01  0.00000000000E+00 0.  1.
         13    1    5    5    0    0 -0.12741345283E+02  0.50160327604E+01  0.33626468476E+02  0.36307600395E+02  0.00000000000E+00 0.  1.
        -13    1    5    5    0    0 -0.18300384311E+03 -0.27931397989E+03  0.10600512898E+04  0.11114024667E+04  0.00000000000E+00 0. -1.
          1    1    6    6  503    0 -0.99180777658E+02  0.16464688282E+03  0.16830360769E+03  0.25548292906E+03  0.00000000000E+00 0. -1.
         -1    1    6    6    0  503 -0.10788275729E+03  0.25786072502E+03  0.12608361245E+03  0.30663972371E+03  0.00000000000E+00 0.  1.
<mgrwt>
<rscale>  0 0.14905076E+04</rscale>
<asrwt>0</asrwt>
<pdfrwt beam="1">  1        2 0.42855138E+00 0.14905076E+04</pdfrwt>
<pdfrwt beam="2">  1       -1 0.30674592E-01 0.14905076E+04</pdfrwt>
<totfact> 0.25623781E+01</totfact>
</mgrwt>
</event>
<event>
12    7  0.1661464E-007  0.1523634E+04  0.7818608E-02  0.8868887E-01
          2   -1    0    0  501    0  0.00000000000E+00  0.00000000000E+00  0.16988380838E+04  0.16988380838E+04  0.00000000000E+00 0. -1.
         -1   -1    0    0    0  501 -0.00000000000E+00 -0.00000000000E+00 -0.34162488804E+03  0.34162488804E+03  0.00000000000E+00 0.  1.
         24    2    1    2    0    0 -0.28343508272E+03  0.25250510680E+03  0.85820044346E+03  0.94189453092E+03  0.81012536968E+02 0.  0.
        254    2    1    2    0    0  0.28343508272E+03 -0.25250510680E+03  0.49901275232E+03  0.10985684409E+04  0.90207794418E+03 0.  0.
         23    2    4    4    0    0 -0.27707119010E+03 -0.28648379650E+03  0.19330170749E+03  0.45253399365E+03  0.92628587657E+02 0.  0.
         23    2    4    4    0    0  0.56050627282E+03  0.33978689697E+02  0.30571104483E+03  0.64603444729E+03  0.92625217588E+02 0.  0.
          4    1    3    3  502    0 -0.22657520595E+03  0.22672886728E+03  0.65334560465E+03  0.72773812758E+03  0.00000000000E+00 0. -1.
         -3    1    3    3    0  502 -0.56859876769E+02  0.25776239514E+02  0.20485483880E+03  0.21415640334E+03  0.00000000000E+00 0.  1.
         13    1    5    5    0    0 -0.24916103522E+03 -0.27457545300E+03  0.20026449509E+03  0.42140095973E+03  0.00000000000E+00 0. -1.
        -13    1    5    5    0    0 -0.27910154875E+02 -0.11908343493E+02 -0.69627876010E+01  0.31133033920E+02  0.00000000000E+00 0.  1.
          4    1    6    6  503    0  0.93355436733E+02  0.23876895123E+02  0.88189321611E+02  0.13062427085E+03  0.00000000000E+00 0.  1.
         -4    1    6    6    0  503  0.46715083609E+03  0.10101794574E+02  0.21752172322E+03  0.51541017644E+03  0.00000000000E+00 0. -1.
<mgrwt>
<rscale>  0 0.15236343E+04</rscale>
<asrwt>0</asrwt>
<pdfrwt beam="1">  1        2 0.26135970E+00 0.15236343E+04</pdfrwt>
<pdfrwt beam="2">  1       -1 0.52557676E-01 0.15236343E+04</pdfrwt>
<totfact> 0.39365529E+01</totfact>
</mgrwt>
</event>
<event>
12    7  0.1661464E-007  0.2191218E+04  0.7818608E-02  0.8522092E-01
         -1   -1    0    0    0  501 -0.00000000000E+00  0.00000000000E+00  0.10248901353E+04  0.10248901353E+04  0.00000000000E+00 0.  1.
          2   -1    0    0  501    0  0.00000000000E+00 -0.00000000000E+00 -0.11712072487E+04  0.11712072487E+04  0.00000000000E+00 0. -1.
         24    2    1    2    0    0  0.87385081489E+03 -0.15280725448E+03  0.13844426057E+03  0.90139005057E+03  0.79824221091E+02 0.  0.
        254    2    1    2    0    0 -0.87385081489E+03  0.15280725448E+03 -0.28476137402E+03  0.12947073334E+04  0.89900652687E+03 0.  0.
         23    2    4    4    0    0  0.65987805755E+02  0.39747182029E+02  0.19557877433E+03  0.22929892742E+03  0.91611746835E+02 0.  0.
         23    2    4    4    0    0 -0.93983862064E+03  0.11306007245E+03 -0.48034014835E+03  0.10654084060E+04  0.91045047160E+02 0.  0.
          2    1    3    3  502    0  0.17507271096E+02  0.98903930401E-01 -0.80221974601E+01  0.19257984716E+02  0.00000000000E+00 0. -1.
         -1    1    3    3    0  502  0.85634354379E+03 -0.15290615841E+03  0.14646645803E+03  0.88213206585E+03  0.00000000000E+00 0.  1.
         13    1    5    5    0    0  0.80702931291E+01 -0.15054105970E+02 -0.10555570417E+01  0.17113443207E+02  0.00000000000E+00 0. -1.
        -13    1    5    5    0    0  0.57917512626E+02  0.54801287998E+02  0.19663433137E+03  0.21218548421E+03  0.00000000000E+00 0.  1.
          3    1    6    6  503    0 -0.22859244364E+03  0.10083795480E+02 -0.77744211374E+02  0.24166164492E+03  0.00000000000E+00 0. -1.
         -3    1    6    6    0  503 -0.71124617700E+03  0.10297627697E+03 -0.40259593697E+03  0.82374676108E+03  0.00000000000E+00 0.  1.
<mgrwt>
<rscale>  0 0.21912177E+04</rscale>
<asrwt>0</asrwt>
<pdfrwt beam="1">  1        2 0.18018573E+00 0.21912177E+04</pdfrwt>
<pdfrwt beam="2">  1       -1 0.15767541E+00 0.21912177E+04</pdfrwt>
<totfact> 0.62570821E+00</totfact>
</mgrwt>
</event>
<event>
12    7  0.1661464E-007  0.2924550E+04  0.7818608E-02  0.8265610E-01
         -1   -1    0    0    0  501 -0.00000000000E+00  0.00000000000E+00  0.65308967776E+03  0.65308967776E+03  0.00000000000E+00 0.  1.
          2   -1    0    0  501    0  0.00000000000E+00 -0.00000000000E+00 -0.32740502180E+04  0.32740502180E+04  0.00000000000E+00 0. -1.
         24    2    1    2    0    0 -0.49555251949E+03 -0.10752512704E+04 -0.19790749406E+04  0.23075512406E+04  0.79482785544E+02 0.  0.
        254    2    1    2    0    0  0.49555251949E+03  0.10752512704E+04 -0.64188559966E+03  0.16195886552E+04  0.89961808280E+03 0.  0.
         23    2    4    4    0    0  0.88747896877E+01 -0.31594179294E+02  0.14337609644E+03  0.17425225691E+03  0.93435485501E+02 0.  0.
         23    2    4    4    0    0  0.48667772980E+03  0.11068454497E+04 -0.78526169610E+03  0.14453363983E+04  0.10197701033E+03 0.  0.
          4    1    3    3  502    0 -0.38887918323E+03 -0.79186372113E+03 -0.15245829472E+04  0.17614279250E+04  0.00000000000E+00 0. -1.
         -3    1    3    3    0  502 -0.10667333625E+03 -0.28338754930E+03 -0.45449199339E+03  0.54612331558E+03  0.00000000000E+00 0.  1.
         13    1    5    5    0    0  0.87820356430E+01 -0.19422867263E+02 -0.77168521495E+01  0.22669841858E+02  0.00000000000E+00 0. -1.
        -13    1    5    5    0    0  0.92754044754E-01 -0.12171312031E+02  0.15109294859E+03  0.15158241505E+03  0.00000000000E+00 0.  1.
          1    1    6    6  503    0  0.68124000687E+02  0.91568728800E+02 -0.56426838260E+02  0.12731731870E+03  0.00000000000E+00 0. -1.
         -1    1    6    6    0  503  0.41855372911E+03  0.10152767209E+04 -0.72883485784E+03  0.13180190796E+04  0.00000000000E+00 0.  1.
<mgrwt>
<rscale>  0 0.29245502E+04</rscale>
<asrwt>0</asrwt>
<pdfrwt beam="1">  1        2 0.50370002E+00 0.29245502E+04</pdfrwt>
<pdfrwt beam="2">  1       -1 0.10047534E+00 0.29245502E+04</pdfrwt>
<totfact> 0.10688021E+00</totfact>
</mgrwt>
</event>
<event>
12    7  0.1661464E-007  0.1468937E+04  0.7818608E-02  0.8905377E-01
          2   -1    0    0  501    0  0.00000000000E+00  0.00000000000E+00  0.97822536030E+03  0.97822536030E+03  0.00000000000E+00 0. -1.
         -1   -1    0    0    0  501 -0.00000000000E+00 -0.00000000000E+00 -0.55145127882E+03  0.55145127882E+03  0.00000000000E+00 0.  1.
         24    2    1    2    0    0 -0.17124042232E+03  0.23123349597E+03  0.50629895629E+03  0.58777304183E+03  0.79663690980E+02 0.  0.
        254    2    1    2    0    0  0.17124042232E+03 -0.23123349597E+03 -0.79524874818E+02  0.94190359729E+03  0.89334538056E+03 0.  0.
         23    2    4    4    0    0 -0.16592402967E+03 -0.38165321126E+03  0.19856623889E+03  0.47011823790E+03  0.91611402617E+02 0.  0.
         23    2    4    4    0    0  0.33716445199E+03  0.15041971529E+03 -0.27809111371E+03  0.47178535939E+03  0.94555800303E+02 0.  0.
          2    1    3    3  502    0 -0.14226120810E+03  0.16331720121E+03  0.31105900886E+03  0.37903623380E+03  0.00000000000E+00 0. -1.
         -1    1    3    3    0  502 -0.28979214212E+02  0.67916294764E+02  0.19523994743E+03  0.20873680803E+03  0.00000000000E+00 0.  1.
         13    1    5    5    0    0 -0.43137687601E+02 -0.29211783559E+02  0.34127367803E+02  0.62280539685E+02  0.00000000000E+00 0. -1.
        -13    1    5    5    0    0 -0.12278634207E+03 -0.35244142770E+03  0.16443887109E+03  0.40783769822E+03  0.00000000000E+00 0.  1.
          2    1    6    6  503    0  0.17259479960E+03  0.32079269465E+02 -0.15799105413E+03  0.23617624259E+03  0.00000000000E+00 0. -1.
         -2    1    6    6    0  503  0.16456965239E+03  0.11834044582E+03 -0.12010005958E+03  0.23560911680E+03  0.00000000000E+00 0.  1.
<mgrwt>
<rscale>  0 0.14689365E+04</rscale>
<asrwt>0</asrwt>
<pdfrwt beam="1">  1        2 0.15049621E+00 0.14689365E+04</pdfrwt>
<pdfrwt beam="2">  1       -1 0.84838658E-01 0.14689365E+04</pdfrwt>
<totfact> 0.39534428E+01</totfact>
</mgrwt>
</event>
<event>
12    7  0.1661464E-007  0.1202203E+04  0.7818608E-02  0.9110931E-01
          2   -1    0    0  501    0  0.00000000000E+00  0.00000000000E+00  0.67863783901E+03  0.67863783901E+03  0.00000000000E+00 0. -1.
         -1   -1    0    0    0  501 -0.00000000000E+00 -0.00000000000E+00 -0.53242347051E+03  0.53242347051E+03  0.00000000000E+00 0.  1.
         24    2    1    2    0    0  0.21191223298E+03 -0.12613107646E+03  0.94673523521E+02  0.27644031429E+03  0.81488210024E+02 0.  0.
        254    2    1    2    0    0 -0.21191223298E+03  0.12613107646E+03  0.51540844984E+02  0.93462099523E+03  0.90002450138E+03 0.  0.
         23    2    4    4    0    0  0.87920289401E+02 -0.18356359706E+03 -0.29839132317E+03  0.37195043653E+03  0.88792871558E+02 0.  0.
         23    2    4    4    0    0 -0.29983252238E+03  0.30969467351E+03  0.34993216815E+03  0.56267055870E+03  0.91297880767E+02 0.  0.
          2    1    3    3  502    0  0.73067604269E+02 -0.22668333036E+02  0.65774527936E+02  0.10089111280E+03  0.00000000000E+00 0. -1.
         -1    1    3    3    0  502  0.13884462871E+03 -0.10346274342E+03  0.28898995584E+02  0.17554920149E+03  0.00000000000E+00 0.  1.
         13    1    5    5    0    0 -0.85261728130E+01 -0.67903983594E+02 -0.66325160373E+02  0.95303061384E+02  0.00000000000E+00 0.  1.
        -13    1    5    5    0    0  0.96446462214E+02 -0.11565961346E+03 -0.23206616280E+03  0.27664737515E+03  0.00000000000E+00 0. -1.
          4    1    6    6  503    0 -0.29275373936E+03  0.28239833524E+03  0.34635980336E+03  0.53424590315E+03  0.00000000000E+00 0. -1.
         -4    1    6    6    0  503 -0.70787830266E+01  0.27296338279E+02  0.35723647944E+01  0.28424655545E+02  0.00000000000E+00 0.  1.
<mgrwt>
<rscale>  0 0.12022025E+04</rscale>
<asrwt>0</asrwt>
<pdfrwt beam="1">  1        2 0.10440582E+00 0.12022025E+04</pdfrwt>
<pdfrwt beam="2">  1       -1 0.81911303E-01 0.12022025E+04</pdfrwt>
<totfact> 0.71250703E+01</totfact>
</mgrwt>
</event>
<event>
12    7  0.1661464E-007  0.1110384E+04  0.7818608E-02  0.9195129E-01
          2   -1    0    0  501    0  0.00000000000E+00  0.00000000000E+00  0.32728458552E+04  0.32728458552E+04  0.00000000000E+00 0. -1.
         -1   -1    0    0    0  501 -0.00000000000E+00 -0.00000000000E+00 -0.94180547986E+02  0.94180547986E+02  0.00000000000E+00 0.  1.
         24    2    1    2    0    0 -0.11097881472E+03 -0.10704964162E+03  0.29744677129E+03  0.34440539608E+03  0.79778267806E+02 0.  0.
        254    2    1    2    0    0  0.11097881472E+03  0.10704964162E+03  0.28812185359E+04  0.30226210071E+04  0.90057846839E+03 0.  0.
         23    2    4    4    0    0  0.19684301217E+02 -0.36447220309E+03  0.79301669129E+03  0.87791009530E+03  0.92861209457E+02 0.  0.
         23    2    4    4    0    0  0.91294513502E+02  0.47152184471E+03  0.20882018446E+04  0.21447109118E+04  0.92360235119E+02 0.  0.
          4    1    3    3  502    0 -0.13940292356E+02  0.39877896721E+01  0.82329922354E+02  0.83596951692E+02  0.00000000000E+00 0. -1.
         -3    1    3    3    0  502 -0.97038522363E+02 -0.11103743129E+03  0.21511684893E+03  0.26080844439E+03  0.00000000000E+00 0.  1.
         13    1    5    5    0    0 -0.11673481800E+02 -0.13255745275E+03  0.38747079048E+03  0.40968446631E+03  0.00000000000E+00 0. -1.
        -13    1    5    5    0    0  0.31357783017E+02 -0.23191475034E+03  0.40554590081E+03  0.46822562899E+03  0.00000000000E+00 0.  1.
          1    1    6    6  503    0  0.53052064660E+02  0.86782574214E+02  0.38916319521E+03  0.40223591244E+03  0.00000000000E+00 0. -1.
         -1    1    6    6    0  503  0.38242448842E+02  0.38473927050E+03  0.16990386494E+04  0.17424749993E+04  0.00000000000E+00 0.  1.
<mgrwt>
<rscale>  0 0.11103845E+04</rscale>
<asrwt>0</asrwt>
<pdfrwt beam="1">  1        2 0.50351466E+00 0.11103845E+04</pdfrwt>
<pdfrwt beam="2">  1       -1 0.14489318E-01 0.11103845E+04</pdfrwt>
<totfact> 0.46838579E+01</totfact>
</mgrwt>
</event>
<event>
12    7  0.1661464E-007  0.1395764E+04  0.7818608E-02  0.8956891E-01
          2   -1    0    0  501    0  0.00000000000E+00  0.00000000000E+00  0.59791804734E+03  0.59791804734E+03  0.00000000000E+00 0. -1.
         -1   -1    0    0    0  501 -0.00000000000E+00 -0.00000000000E+00 -0.81455840746E+03  0.81455840746E+03  0.00000000000E+00 0.  1.
         24    2    1    2    0    0 -0.35552452842E+03  0.25811752818E+02 -0.28409578150E+03  0.46210016104E+03  0.75909214671E+02 0.  0.
        254    2    1    2    0    0  0.35552452842E+03 -0.25811752818E+02  0.67455421385E+02  0.95037629376E+03  0.87840817903E+03 0.  0.
         23    2    4    4    0    0  0.36255112040E+03  0.21259582772E+03 -0.28443488655E+03  0.51564846672E+03  0.91377435306E+02 0.  0.
         23    2    4    4    0    0 -0.70265919728E+01 -0.23840758054E+03  0.35189030793E+03  0.43472782704E+03  0.90961240846E+02 0.  0.
          2    1    3    3  502    0 -0.22392003360E+02 -0.13624079178E+02 -0.73553918560E+01  0.27223503398E+02  0.00000000000E+00 0. -1.
         -1    1    3    3    0  502 -0.33313252506E+03  0.39435831996E+02 -0.27674038964E+03  0.43487665764E+03  0.00000000000E+00 0.  1.
         13    1    5    5    0    0  0.28808407301E+03  0.16044891936E+03 -0.26414155489E+03  0.42250094658E+03  0.00000000000E+00 0. -1.
        -13    1    5    5    0    0  0.74467047384E+02  0.52146908363E+02 -0.20293331659E+02  0.93147520137E+02  0.00000000000E+00 0.  1.
          4    1    6    6  503    0 -0.57634526167E+01 -0.12488462495E+03  0.10604939676E+03  0.16393859060E+03  0.00000000000E+00 0. -1.
         -4    1    6    6    0  503 -0.12631393560E+01 -0.11352295558E+03  0.24584091117E+03  0.27078923644E+03  0.00000000000E+00 0.  1.
<mgrwt>
<rscale>  0 0.13957638E+04</rscale>
<asrwt>0</asrwt>
<pdfrwt beam="1">  1        2 0.91987392E-01 0.13957638E+04</pdfrwt>
<pdfrwt beam="2">  1       -1 0.12531668E+00 0.13957638E+04</pdfrwt>
<totfact> 0.30826435E+01</totfact>
</mgrwt>
</event>
<event>
12    7  0.1661464E-007  0.1400069E+04  0.7818608E-02  0.8953769E-01
         -1   -1    0    0    0  501 -0.00000000000E+00  0.00000000000E+00  0.34849467344E+03  0.34849467344E+03  0.00000000000E+00 0.  1.
          2   -1    0    0  501    0  0.00000000000E+00 -0.00000000000E+00 -0.14061854128E+04  0.14061854128E+04  0.00000000000E+00 0. -1.
         24    2    1    2    0    0  0.96214494977E+02  0.74613152590E+02  0.17581393459E+03  0.22883095790E+03  0.81416927697E+02 0.  0.
        254    2    1    2    0    0 -0.96214494977E+02 -0.74613152590E+02 -0.12335046740E+04  0.15258491284E+04  0.88986371441E+03 0.  0.
         23    2    4    4    0    0 -0.10735462967E+03  0.24943025434E+03 -0.11402859266E+04  0.11761027524E+04  0.96048016604E+02 0.  0.
         23    2    4    4    0    0  0.11140134691E+02 -0.32404340693E+03 -0.93218747359E+02  0.34974637595E+03  0.92220173809E+02 0.  0.
          4    1    3    3  502    0  0.18275677289E+02 -0.15994242641E+02  0.48303585186E+02  0.54065261674E+02  0.00000000000E+00 0. -1.
         -3    1    3    3    0  502  0.77938817689E+02  0.90607395231E+02  0.12751034941E+03  0.17476569623E+03  0.00000000000E+00 0.  1.
         13    1    5    5    0    0 -0.30695711655E+02  0.10116704446E+03 -0.27008626335E+03  0.29004066482E+03  0.00000000000E+00 0.  1.
        -13    1    5    5    0    0 -0.76658918014E+02  0.14826320988E+03 -0.87019966328E+03  0.88606208761E+03  0.00000000000E+00 0. -1.
          3    1    6    6  503    0  0.46293763739E+02 -0.24289918042E+03 -0.54480418496E+02  0.25320197552E+03  0.00000000000E+00 0. -1.
         -3    1    6    6    0  503 -0.35153629048E+02 -0.81144226510E+02 -0.38738328862E+02  0.96544400428E+02  0.00000000000E+00 0.  1.
<mgrwt>
<rscale>  0 0.14000688E+04</rscale>
<asrwt>0</asrwt>
<pdfrwt beam="1">  1        2 0.21633622E+00 0.14000688E+04</pdfrwt>
<pdfrwt beam="2">  1       -1 0.53614564E-01 0.14000688E+04</pdfrwt>
<totfact> 0.55883566E+01</totfact>
</mgrwt>
</event>
<event>
12    7  0.1661464E-007  0.4845765E+04  0.7818608E-02  0.7852750E-01
         -1   -1    0    0    0  501 -0.00000000000E+00  0.00000000000E+00  0.17720024480E+04  0.17720024480E+04  0.00000000000E+00 0.  1.
          2   -1    0    0  501    0  0.00000000000E+00 -0.00000000000E+00 -0.33128393663E+04  0.33128393663E+04  0.00000000000E+00 0. -1.
         24    2    1    2    0    0 -0.13028610546E+04  0.61958487347E+03  0.11902828073E+04  0.18719853716E+04  0.78890601626E+02 0.  0.
        254    2    1    2    0    0  0.13028610546E+04 -0.61958487347E+03 -0.27311197256E+04  0.32128564427E+04  0.88436373905E+03 0.  0.
         23    2    4    4    0    0 -0.10708289904E+03 -0.45135711666E+02 -0.40915469978E+03  0.43462702973E+03  0.89381804013E+02 0.  0.
         23    2    4    4    0    0  0.14099439537E+04 -0.57444916181E+03 -0.23219650258E+04  0.27782294130E+04  0.95411205553E+02 0.  0.
          2    1    3    3  502    0 -0.87865477275E+03  0.41447191450E+03  0.75313742442E+03  0.12292425138E+04  0.00000000000E+00 0. -1.
         -1    1    3    3    0  502 -0.42420628189E+03  0.20511295897E+03  0.43714538289E+03  0.64274285785E+03  0.00000000000E+00 0.  1.
         13    1    5    5    0    0 -0.11093476558E+03 -0.10995271863E+02 -0.29271466471E+03  0.31322403029E+03  0.00000000000E+00 0.  1.
        -13    1    5    5    0    0  0.38518665398E+01 -0.34140439803E+02 -0.11644003507E+03  0.12140299944E+03  0.00000000000E+00 0. -1.
          1    1    6    6  503    0  0.17439636812E+03 -0.88298731642E+02 -0.25011121180E+03  0.31743720244E+03  0.00000000000E+00 0. -1.
         -1    1    6    6    0  503  0.12355475856E+04 -0.48615043017E+03 -0.20718538140E+04  0.24607922106E+04  0.00000000000E+00 0.  1.
<mgrwt>
<rscale>  0 0.48457649E+04</rscale>
<asrwt>0</asrwt>
<pdfrwt beam="1">  1        2 0.50966760E+00 0.48457649E+04</pdfrwt>
<pdfrwt beam="2">  1       -1 0.27261576E+00 0.48457649E+04</pdfrwt>
<totfact> 0.45365767E-02</totfact>
</mgrwt>
</event>
<event>
12    7  0.1661464E-007  0.1389926E+04  0.7818608E-02  0.8961143E-01
          2   -1    0    0  501    0  0.00000000000E+00  0.00000000000E+00  0.98056010877E+02  0.98056010877E+02  0.00000000000E+00 0. -1.
         -1   -1    0    0    0  501 -0.00000000000E+00 -0.00000000000E+00 -0.49254886674E+04  0.49254886674E+04  0.00000000000E+00 0.  1.
         24    2    1    2    0    0  0.70468296228E+02  0.17727550198E+03 -0.26810613664E+04  0.26890201913E+04  0.79669030240E+02 0.  0.
        254    2    1    2    0    0 -0.70468296228E+02 -0.17727550198E+03 -0.21463712901E+04  0.23345244870E+04  0.89816617667E+03 0.  0.
         23    2    4    4    0    0  0.34365356599E+03 -0.26529076670E+03 -0.14314999282E+04  0.14985869886E+04  0.89966401610E+02 0.  0.
         23    2    4    4    0    0 -0.41412186222E+03  0.88015264716E+02 -0.71487136189E+03  0.83593749843E+03  0.92232497784E+02 0.  0.
          4    1    3    3  502    0 -0.89877791990E+01 -0.31820303434E+01 -0.11510495572E+03  0.11549916157E+03  0.00000000000E+00 0. -1.
         -3    1    3    3    0  502  0.79456075427E+02  0.18045753233E+03 -0.25659564106E+04  0.25735210297E+04  0.00000000000E+00 0.  1.
         13    1    5    5    0    0  0.28074060992E+03 -0.21194254519E+03 -0.10214221488E+04  0.10802953941E+04  0.00000000000E+00 0. -1.
        -13    1    5    5    0    0  0.62912956075E+02 -0.53348221506E+02 -0.41007777948E+03  0.41829159447E+03  0.00000000000E+00 0.  1.
          2    1    6    6  503    0 -0.96948579834E+02 -0.18301847998E+00 -0.23281625693E+03  0.25219530154E+03  0.00000000000E+00 0. -1.
         -2    1    6    6    0  503 -0.31717328239E+03  0.88198283196E+02 -0.48205510496E+03  0.58374219689E+03  0.00000000000E+00 0.  1.
<mgrwt>
<rscale>  0 0.13899263E+04</rscale>
<asrwt>0</asrwt>
<pdfrwt beam="1">  1        2 0.15085542E-01 0.13899263E+04</pdfrwt>
<pdfrwt beam="2">  1       -1 0.75776740E+00 0.13899263E+04</pdfrwt>
<totfact> 0.53584150E-02</totfact>
</mgrwt>
</event>
<event>
12    7  0.1661464E-007  0.1317233E+04  0.7818608E-02  0.9016010E-01
          2   -1    0    0  501    0  0.00000000000E+00  0.00000000000E+00  0.84240639392E+03  0.84240639392E+03  0.00000000000E+00 0. -1.
         -1   -1    0    0    0  501 -0.00000000000E+00 -0.00000000000E+00 -0.51492468222E+03  0.51492468222E+03  0.00000000000E+00 0.  1.
         24    2    1    2    0    0 -0.33530921434E+03  0.13601555825E+02 -0.91882524543E+00  0.34510217174E+03  0.80482253679E+02 0.  0.
        254    2    1    2    0    0  0.33530921434E+03 -0.13601555825E+02  0.32840053694E+03  0.10122289044E+04  0.89674030282E+03 0.  0.
         23    2    4    4    0    0  0.41041908664E+03  0.36107111134E+03  0.11342848536E+03  0.56563721906E+03  0.90902520143E+02 0.  0.
         23    2    4    4    0    0 -0.75109872298E+02 -0.37467266716E+03  0.21497205158E+03  0.44659168534E+03  0.84912013418E+02 0.  0.
          4    1    3    3  502    0 -0.76944369009E+01 -0.19555837617E+01  0.14742794312E+02  0.16744511077E+02  0.00000000000E+00 0. -1.
         -3    1    3    3    0  502 -0.32761477744E+03  0.15557139587E+02 -0.15661619558E+02  0.32835766067E+03  0.00000000000E+00 0.  1.
         13    1    5    5    0    0  0.15160262226E+03  0.18646606176E+03  0.27934184954E+02  0.24193649157E+03  0.00000000000E+00 0.  1.
        -13    1    5    5    0    0  0.25881646438E+03  0.17460504958E+03  0.85494300407E+02  0.32370072748E+03  0.00000000000E+00 0. -1.
          3    1    6    6  503    0 -0.82748692967E+02 -0.32435902464E+03  0.15788071090E+03  0.37011139124E+03  0.00000000000E+00 0. -1.
         -3    1    6    6    0  503  0.76388206688E+01 -0.50313642521E+02  0.57091340682E+02  0.76480294102E+02  0.00000000000E+00 0.  1.
<mgrwt>
<rscale>  0 0.13172332E+04</rscale>
<asrwt>0</asrwt>
<pdfrwt beam="1">  1        2 0.12960098E+00 0.13172332E+04</pdfrwt>
<pdfrwt beam="2">  1       -1 0.79219182E-01 0.13172332E+04</pdfrwt>
<totfact> 0.57214395E+01</totfact>
</mgrwt>
</event>
<event>
12    7  0.1661464E-007  0.2397161E+04  0.7818608E-02  0.8440567E-01
         -1   -1    0    0    0  501 -0.00000000000E+00  0.00000000000E+00  0.14489415133E+04  0.14489415133E+04  0.00000000000E+00 0.  1.
          2   -1    0    0  501    0  0.00000000000E+00 -0.00000000000E+00 -0.99147948078E+03  0.99147948078E+03  0.00000000000E+00 0. -1.
         24    2    1    2    0    0 -0.58301185961E+02 -0.74146405139E+03 -0.51769992836E+03  0.90964134813E+03  0.79159324303E+02 0.  0.
        254    2    1    2    0    0  0.58301185961E+02  0.74146405139E+03  0.97516196090E+03  0.15307796460E+04  0.91606632226E+03 0.  0.
         23    2    4    4    0    0 -0.30411361674E+03  0.50516197109E+03  0.90215841544E+03  0.10818005876E+04  0.93429095096E+02 0.  0.
         23    2    4    4    0    0  0.36241480271E+03  0.23630208030E+03  0.73003545464E+02  0.44897905840E+03  0.95234000546E+02 0.  0.
          4    1    3    3  502    0 -0.61840877380E+02 -0.29991136037E+03 -0.20260385820E+03  0.36717767028E+03  0.00000000000E+00 0. -1.
         -3    1    3    3    0  502  0.35396914190E+01 -0.44155269102E+03 -0.31509607015E+03  0.54246367785E+03  0.00000000000E+00 0.  1.
         13    1    5    5    0    0 -0.18960328150E+03  0.39204266151E+03  0.63772616962E+03  0.77223151983E+03  0.00000000000E+00 0. -1.
        -13    1    5    5    0    0 -0.11451033524E+03  0.11311930958E+03  0.26443224582E+03  0.30956906775E+03  0.00000000000E+00 0.  1.
          4    1    6    6  503    0  0.28960919335E+03  0.14027275056E+03  0.41791183793E+02  0.32449411777E+03  0.00000000000E+00 0. -1.
         -4    1    6    6    0  503  0.72805609357E+02  0.96029329744E+02  0.31212361671E+02  0.12448494064E+03  0.00000000000E+00 0.  1.
<mgrwt>
<rscale>  0 0.23971615E+04</rscale>
<asrwt>0</asrwt>
<pdfrwt beam="1">  1        2 0.15253530E+00 0.23971615E+04</pdfrwt>
<pdfrwt beam="2">  1       -1 0.22291408E+00 0.23971615E+04</pdfrwt>
<totfact> 0.27525516E+00</totfact>
</mgrwt>
</event>
<event>
12    7  0.1661464E-007  0.1215233E+04  0.7818608E-02  0.9099627E-01
         -1   -1    0    0    0  501 -0.00000000000E+00  0.00000000000E+00  0.11607800542E+03  0.11607800542E+03  0.00000000000E+00 0.  1.
          2   -1    0    0  501    0  0.00000000000E+00 -0.00000000000E+00 -0.31806002451E+04  0.31806002451E+04  0.00000000000E+00 0. -1.
         24    2    1    2    0    0  0.21154524627E+03  0.53130007673E+02 -0.11215564001E+04  0.11452946165E+04  0.78973483242E+02 0.  0.
        254    2    1    2    0    0 -0.21154524627E+03 -0.53130007673E+02 -0.19429658396E+04  0.21513836340E+04  0.89764196536E+03 0.  0.
         23    2    4    4    0    0 -0.45376977901E+03 -0.31906977258E+02 -0.48812644159E+03  0.67347981856E+03  0.91556406039E+02 0.  0.
         23    2    4    4    0    0  0.24222453273E+03 -0.21223030415E+02 -0.14548393980E+04  0.14779038154E+04  0.92297738363E+02 0.  0.
          2    1    3    3  502    0  0.16052344965E+03  0.50222995185E+02 -0.98952295529E+03  0.10037159988E+04  0.00000000000E+00 0. -1.
         -1    1    3    3    0  502  0.51021796629E+02  0.29070124878E+01 -0.13203344480E+03  0.14157861773E+03  0.00000000000E+00 0.  1.
         13    1    5    5    0    0 -0.21322209750E+03 -0.60831098578E+02 -0.23217439142E+03  0.32104366283E+03  0.00000000000E+00 0. -1.
        -13    1    5    5    0    0 -0.24054768151E+03  0.28924121321E+02 -0.25595205017E+03  0.35243615572E+03  0.00000000000E+00 0.  1.
          4    1    6    6  503    0  0.30676762955E+02  0.13437695081E+02 -0.40615252431E+03  0.40753099077E+03  0.00000000000E+00 0. -1.
         -4    1    6    6    0  503  0.21154776978E+03 -0.34660725496E+02 -0.10486868737E+04  0.10703728247E+04  0.00000000000E+00 0.  1.
<mgrwt>
<rscale>  0 0.12152329E+04</rscale>
<asrwt>0</asrwt>
<pdfrwt beam="1">  1        2 0.48932315E+00 0.12152329E+04</pdfrwt>
<pdfrwt beam="2">  1       -1 0.17858154E-01 0.12152329E+04</pdfrwt>
<totfact> 0.37687899E+01</totfact>
</mgrwt>
</event>
<event>
12    7  0.1661464E-007  0.2133543E+04  0.7818608E-02  0.8546610E-01
         -1   -1    0    0    0  501 -0.00000000000E+00  0.00000000000E+00  0.91721378226E+03  0.91721378226E+03  0.00000000000E+00 0.  1.
          2   -1    0    0  501    0  0.00000000000E+00 -0.00000000000E+00 -0.12407153365E+04  0.12407153365E+04  0.00000000000E+00 0. -1.
         24    2    1    2    0    0 -0.71809989306E+03  0.30159389527E+03  0.27036412021E+03  0.82831009668E+03  0.79840620518E+02 0.  0.
        254    2    1    2    0    0  0.71809989306E+03 -0.30159389527E+03 -0.59386567444E+03  0.13296190221E+04  0.89921297282E+03 0.  0.
         23    2    4    4    0    0  0.63320773758E+03 -0.52036231622E+03 -0.67437347982E+03  0.10655164815E+04  0.93897832213E+02 0.  0.
         23    2    4    4    0    0  0.84892155487E+02  0.21876842094E+03  0.80507805384E+02  0.26410254062E+03  0.90566799475E+02 0.  0.
          4    1    3    3  502    0 -0.54291229814E+03  0.23920267658E+03  0.23954621032E+03  0.63980783899E+03  0.00000000000E+00 0. -1.
         -3    1    3    3    0  502 -0.17518759492E+03  0.62391218693E+02  0.30817909891E+02  0.18850225769E+03  0.00000000000E+00 0.  1.
         13    1    5    5    0    0  0.77016323245E+02 -0.41730909861E+02 -0.10500565186E+03  0.13674490779E+03  0.00000000000E+00 0. -1.
        -13    1    5    5    0    0  0.55619141433E+03 -0.47863140635E+03 -0.56936782797E+03  0.92877157367E+03  0.00000000000E+00 0.  1.
          4    1    6    6  503    0 -0.21598942039E+01 -0.20680183951E+01 -0.97111424236E+01  0.10161108710E+02  0.00000000000E+00 0. -1.
         -4    1    6    6    0  503  0.87052049691E+02  0.22083643934E+03  0.90218947808E+02  0.25394143191E+03  0.00000000000E+00 0.  1.
<mgrwt>
<rscale>  0 0.21335428E+04</rscale>
<asrwt>0</asrwt>
<pdfrwt beam="1">  1        2 0.19087928E+00 0.21335428E+04</pdfrwt>
<pdfrwt beam="2">  1       -1 0.14110981E+00 0.21335428E+04</pdfrwt>
<totfact> 0.77052721E+00</totfact>
</mgrwt>
</event>
<event>
12    7  0.1661464E-007  0.1711945E+04  0.7818608E-02  0.8754581E-01
          2   -1    0    0  501    0  0.00000000000E+00  0.00000000000E+00  0.13720146135E+04  0.13720146135E+04  0.00000000000E+00 0. -1.
         -1   -1    0    0    0  501 -0.00000000000E+00 -0.00000000000E+00 -0.53402412362E+03  0.53402412362E+03  0.00000000000E+00 0.  1.
         24    2    1    2    0    0  0.21668840679E+03 -0.56627246902E+03  0.43985356885E+03  0.75491138120E+03  0.93817144592E+02 0.  0.
        254    2    1    2    0    0 -0.21668840679E+03  0.56627246902E+03  0.39813692098E+03  0.11511273559E+04  0.89384719431E+03 0.  0.
         23    2    4    4    0    0  0.72308001597E+02  0.43827746119E+03 -0.17876843254E+03  0.48742000093E+03  0.91129165252E+02 0.  0.
         23    2    4    4    0    0 -0.28899640839E+03  0.12799500784E+03  0.57690535352E+03  0.66370735494E+03  0.88238426935E+02 0.  0.
          4    1    3    3  502    0  0.10219203718E+03 -0.35471492646E+03  0.30693467231E+03  0.48007789428E+03  0.00000000000E+00 0. -1.
         -3    1    3    3    0  502  0.11449636961E+03 -0.21155754257E+03  0.13291889654E+03  0.27483348691E+03  0.00000000000E+00 0.  1.
         13    1    5    5    0    0  0.20073269434E+02  0.32835288156E+03 -0.15396963173E+03  0.36321508568E+03  0.00000000000E+00 0. -1.
        -13    1    5    5    0    0  0.52234732164E+02  0.10992457963E+03 -0.24798800805E+02  0.12420491525E+03  0.00000000000E+00 0.  1.
          3    1    6    6  503    0 -0.23079065960E+03  0.13470374909E+03  0.43999021481E+03  0.51478230128E+03  0.00000000000E+00 0. -1.
         -3    1    6    6    0  503 -0.58205748782E+02 -0.67087412489E+01  0.13691513871E+03  0.14892505366E+03  0.00000000000E+00 0.  1.
<mgrwt>
<rscale>  0 0.17119450E+04</rscale>
<asrwt>0</asrwt>
<pdfrwt beam="1">  1        2 0.21107917E+00 0.17119450E+04</pdfrwt>
<pdfrwt beam="2">  1       -1 0.82157558E-01 0.17119450E+04</pdfrwt>
<totfact> 0.23976278E+01</totfact>
</mgrwt>
</event>
<event>
12    7  0.1661464E-007  0.1682184E+04  0.7818608E-02  0.8771591E-01
          4   -1    0    0  501    0  0.00000000000E+00  0.00000000000E+00  0.10715136081E+04  0.10715136081E+04  0.00000000000E+00 0. -1.
         -3   -1    0    0    0  501 -0.00000000000E+00 -0.00000000000E+00 -0.66022109878E+03  0.66022109878E+03  0.00000000000E+00 0.  1.
         24    2    1    2    0    0 -0.87179383212E+02  0.12570029603E+03  0.74737342387E+03  0.76692799055E+03  0.78807986244E+02 0.  0.
        254    2    1    2    0    0  0.87179383212E+02 -0.12570029603E+03 -0.33608091459E+03  0.96480671630E+03  0.89134774885E+03 0.  0.
         23    2    4    4    0    0  0.37835161557E+03  0.20516142679E+03 -0.77216528631E+02  0.44560214544E+03  0.85777174590E+02 0.  0.
         23    2    4    4    0    0 -0.29117223236E+03 -0.33086172281E+03 -0.25886438596E+03  0.51920457086E+03  0.91169444267E+02 0.  0.
          4    1    3    3  502    0 -0.10029169412E+03  0.11173258161E+03  0.69805634922E+03  0.71402049018E+03  0.00000000000E+00 0. -1.
         -3    1    3    3    0  502  0.13112310908E+02  0.13967714421E+02  0.49317074651E+02  0.52907500372E+02  0.00000000000E+00 0.  1.
         13    1    5    5    0    0  0.12565672776E+03  0.26732836339E+02 -0.86897229185E+01  0.12876245203E+03  0.00000000000E+00 0. -1.
        -13    1    5    5    0    0  0.25269488781E+03  0.17842859045E+03 -0.68526805712E+02  0.31683969340E+03  0.00000000000E+00 0.  1.
          2    1    6    6  503    0 -0.29015022832E+02 -0.84847074250E+02 -0.38956307224E+02  0.97767537717E+02  0.00000000000E+00 0. -1.
         -2    1    6    6    0  503 -0.26215720952E+03 -0.24601464856E+03 -0.21990807873E+03  0.42143703314E+03  0.00000000000E+00 0.  1.
<mgrwt>
<rscale>  0 0.16821842E+04</rscale>
<asrwt>0</asrwt>
<pdfrwt beam="1">  1        4 0.16484825E+00 0.16821842E+04</pdfrwt>
<pdfrwt beam="2">  1       -3 0.10157248E+00 0.16821842E+04</pdfrwt>
<totfact> 0.42280530E-01</totfact>
</mgrwt>
</event>
<event>
12    7  0.1661464E-007  0.1819327E+04  0.7818608E-02  0.8696089E-01
          2   -1    0    0  501    0  0.00000000000E+00  0.00000000000E+00  0.87742531139E+03  0.87742531139E+03  0.00000000000E+00 0. -1.
         -1   -1    0    0    0  501 -0.00000000000E+00 -0.00000000000E+00 -0.94308573063E+03  0.94308573063E+03  0.00000000000E+00 0.  1.
         24    2    1    2    0    0 -0.52787598896E+03  0.29179960394E+03 -0.35376154828E+03  0.70373803044E+03  0.79371996699E+02 0.  0.
        254    2    1    2    0    0  0.52787598896E+03 -0.29179960394E+03  0.28810112904E+03  0.11167730116E+04  0.89463938559E+03 0.  0.
         23    2    4    4    0    0 -0.15776648665E+01  0.25903343859E+03 -0.44954882176E+02  0.27851046521E+03  0.91903898003E+02 0.  0.
         23    2    4    4    0    0  0.52945365383E+03 -0.55083304253E+03  0.33305601121E+03  0.83826254637E+03  0.89552095104E+02 0.  0.
          2    1    3    3  502    0 -0.18874052117E+03  0.62168216537E+02 -0.12086709677E+03  0.23258703008E+03  0.00000000000E+00 0. -1.
         -1    1    3    3    0  502 -0.33913546779E+03  0.22963138740E+03 -0.23289445151E+03  0.47115100036E+03  0.00000000000E+00 0.  1.
         13    1    5    5    0    0 -0.18568049617E+02  0.30121909875E+02 -0.33431419945E+02  0.48680198855E+02  0.00000000000E+00 0. -1.
        -13    1    5    5    0    0  0.16990384751E+02  0.22891152871E+03 -0.11523462231E+02  0.22983026636E+03  0.00000000000E+00 0.  1.
          3    1    6    6  503    0  0.21091710004E+03 -0.16873916220E+03  0.90862164135E+02  0.28498221141E+03  0.00000000000E+00 0. -1.
         -3    1    6    6    0  503  0.31853655379E+03 -0.38209388033E+03  0.24219384708E+03  0.55328033496E+03  0.00000000000E+00 0.  1.
<mgrwt>
<rscale>  0 0.18193266E+04</rscale>
<asrwt>0</asrwt>
<pdfrwt beam="1">  1        2 0.13498851E+00 0.18193266E+04</pdfrwt>
<pdfrwt beam="2">  1       -1 0.14509011E+00 0.18193266E+04</pdfrwt>
<totfact> 0.12467119E+01</totfact>
</mgrwt>
</event>
<event>
12    7  0.1661464E-007  0.2309391E+04  0.7818608E-02  0.8474228E-01
         -1   -1    0    0    0  501 -0.00000000000E+00  0.00000000000E+00  0.40680400188E+03  0.40680400188E+03  0.00000000000E+00 0.  1.
          2   -1    0    0  501    0  0.00000000000E+00 -0.00000000000E+00 -0.32775535265E+04  0.32775535265E+04  0.00000000000E+00 0. -1.
         24    2    1    2    0    0  0.66875946984E+03  0.30984693347E+03 -0.20303690531E+03  0.76861834526E+03  0.79409225266E+02 0.  0.
        254    2    1    2    0    0 -0.66875946984E+03 -0.30984693347E+03 -0.26677126193E+04  0.29157391832E+04  0.91738760298E+03 0.  0.
         23    2    4    4    0    0 -0.86681726657E+03 -0.19711280519E+03 -0.17441645505E+04  0.19596959328E+04  0.89847305510E+02 0.  0.
         23    2    4    4    0    0  0.19805779673E+03 -0.11273412828E+03 -0.92354806888E+03  0.95604325036E+03  0.95612690136E+02 0.  0.
          2    1    3    3  502    0  0.70268025875E+01  0.41606862989E+01  0.62025969505E+01  0.10254729349E+02  0.00000000000E+00 0. -1.
         -1    1    3    3    0  502  0.66173266726E+03  0.30568624717E+03 -0.20923950226E+03  0.75836361591E+03  0.00000000000E+00 0.  1.
         13    1    5    5    0    0 -0.37904175653E+03 -0.13200327108E+03 -0.78642611099E+03  0.88292895797E+03  0.00000000000E+00 0. -1.
        -13    1    5    5    0    0 -0.48777551004E+03 -0.65109534116E+02 -0.95773843947E+03  0.10767669748E+04  0.00000000000E+00 0.  1.
          4    1    6    6  503    0  0.12025247460E+03 -0.15882525215E+02 -0.51077560432E+03  0.52498059985E+03  0.00000000000E+00 0. -1.
         -4    1    6    6    0  503  0.77805322125E+02 -0.96851603064E+02 -0.41277246456E+03  0.43106265051E+03  0.00000000000E+00 0.  1.
<mgrwt>
<rscale>  0 0.23093912E+04</rscale>
<asrwt>0</asrwt>
<pdfrwt beam="1">  1        2 0.50423903E+00 0.23093912E+04</pdfrwt>
<pdfrwt beam="2">  1       -1 0.62585228E-01 0.23093912E+04</pdfrwt>
<totfact> 0.30818241E+00</totfact>
</mgrwt>
</event>
<event>
12    7  0.1661464E-007  0.1459427E+04  0.7818608E-02  0.8911891E-01
         -1   -1    0    0    0  501 -0.00000000000E+00  0.00000000000E+00  0.21851254769E+03  0.21851254769E+03  0.00000000000E+00 0.  1.
          2   -1    0    0  501    0  0.00000000000E+00 -0.00000000000E+00 -0.24368473712E+04  0.24368473712E+04  0.00000000000E+00 0. -1.
         24    2    1    2    0    0  0.99098289329E+02 -0.31000304683E+03 -0.12404613978E+04  0.12848780300E+04  0.79023493131E+02 0.  0.
        254    2    1    2    0    0 -0.99098289329E+02  0.31000304683E+03 -0.97787342571E+03  0.13704818889E+04  0.90336139565E+03 0.  0.
         23    2    4    4    0    0  0.17461580758E+03  0.30097881950E+03 -0.96129575059E+01  0.35989801023E+03  0.91406995215E+02 0.  0.
         23    2    4    4    0    0 -0.27371409691E+03  0.90242273299E+01 -0.96826046820E+03  0.10105838787E+04  0.93544631348E+02 0.  0.
          2    1    3    3  502    0  0.97278442679E+02 -0.31041191536E+03 -0.12410083451E+04  0.12829342793E+04  0.00000000000E+00 0. -1.
         -1    1    3    3    0  502  0.18198466499E+01  0.40886853417E+00  0.54694723224E+00  0.19437506482E+01  0.00000000000E+00 0.  1.
         13    1    5    5    0    0  0.56987996299E+02  0.17748176065E+03  0.17414404209E+02  0.18721823779E+03  0.00000000000E+00 0. -1.
        -13    1    5    5    0    0  0.11762781128E+03  0.12349705884E+03 -0.27027361715E+02  0.17267977244E+03  0.00000000000E+00 0.  1.
          4    1    6    6  503    0 -0.25895995041E+03 -0.13288219199E+02 -0.91427878873E+03  0.95033811678E+03  0.00000000000E+00 0. -1.
         -4    1    6    6    0  503 -0.14754146499E+02  0.22312446529E+02 -0.53981679477E+02  0.60245761911E+02  0.00000000000E+00 0.  1.
<mgrwt>
<rscale>  0 0.14594269E+04</rscale>
<asrwt>0</asrwt>
<pdfrwt beam="1">  1        2 0.37489958E+00 0.14594269E+04</pdfrwt>
<pdfrwt beam="2">  1       -1 0.33617316E-01 0.14594269E+04</pdfrwt>
<totfact> 0.34947909E+01</totfact>
</mgrwt>
</event>
<event>
12    7  0.1661464E-007  0.2040731E+04  0.7818608E-02  0.8587811E-01
          2   -1    0    0  501    0  0.00000000000E+00  0.00000000000E+00  0.87726368893E+03  0.87726368893E+03  0.00000000000E+00 0. -1.
         -1   -1    0    0    0  501 -0.00000000000E+00 -0.00000000000E+00 -0.11868103635E+04  0.11868103635E+04  0.00000000000E+00 0.  1.
         24    2    1    2    0    0 -0.26713041721E+03 -0.32938405690E+03 -0.83428565966E+03  0.93923618989E+03  0.79243559642E+02 0.  0.
        254    2    1    2    0    0  0.26713041721E+03  0.32938405690E+03  0.52473898506E+03  0.11248378626E+04  0.90003149829E+03 0.  0.
         23    2    4    4    0    0  0.35124723163E+03  0.33768268102E+03  0.73155775914E+03  0.88374992763E+03  0.91831197540E+02 0.  0.
         23    2    4    4    0    0 -0.84116814416E+02 -0.82986241128E+01 -0.20681877409E+03  0.24108793495E+03  0.90580800577E+02 0.  0.
          2    1    3    3  502    0 -0.50611762903E+02 -0.54352178597E+02 -0.22030428373E+03  0.23248588622E+03  0.00000000000E+00 0. -1.
         -1    1    3    3    0  502 -0.21651865431E+03 -0.27503187831E+03 -0.61398137593E+03  0.70675030367E+03  0.00000000000E+00 0.  1.
         13    1    5    5    0    0  0.10076142429E+03  0.15847397428E+03  0.27214840501E+03  0.33065332222E+03  0.00000000000E+00 0.  1.
        -13    1    5    5    0    0  0.25048580734E+03  0.17920870674E+03  0.45940935414E+03  0.55309660541E+03  0.00000000000E+00 0. -1.
          4    1    6    6  503    0 -0.46519846688E+02 -0.49616448003E+02 -0.11545266329E+03  0.13399703545E+03  0.00000000000E+00 0. -1.
         -4    1    6    6    0  503 -0.37596967728E+02  0.41317823891E+02 -0.91366110793E+02  0.10709089950E+03  0.00000000000E+00 0.  1.
<mgrwt>
<rscale>  0 0.20407309E+04</rscale>
<asrwt>0</asrwt>
<pdfrwt beam="1">  1        2 0.13496365E+00 0.20407309E+04</pdfrwt>
<pdfrwt beam="2">  1       -1 0.18258621E+00 0.20407309E+04</pdfrwt>
<totfact> 0.64022028E+00</totfact>
</mgrwt>
</event>
<event>
12    7  0.1661464E-007  0.1654724E+04  0.7818608E-02  0.8787617E-01
          2   -1    0    0  501    0  0.00000000000E+00  0.00000000000E+00  0.14592095808E+04  0.14592095808E+04  0.00000000000E+00 0. -1.
         -1   -1    0    0    0  501 -0.00000000000E+00 -0.00000000000E+00 -0.46910852942E+03  0.46910852942E+03  0.00000000000E+00 0.  1.
         24    2    1    2    0    0 -0.53963983904E+03  0.17447533546E+03  0.48130486734E+03  0.74766767247E+03  0.75496851372E+02 0.  0.
        254    2    1    2    0    0  0.53963983904E+03 -0.17447533546E+03  0.50879618403E+03  0.11806504377E+04  0.90189195622E+03 0.  0.
         23    2    4    4    0    0  0.64690138933E+03 -0.30263432826E+03  0.96177444374E+02  0.72637177180E+03  0.91087353166E+02 0.  0.
         23    2    4    4    0    0 -0.10726155029E+03  0.12815899280E+03  0.41261873966E+03  0.45427866594E+03  0.90471622074E+02 0.  0.
          2    1    3    3  502    0 -0.26812770479E+03  0.98948634295E+02  0.28922765724E+03  0.40661521862E+03  0.00000000000E+00 0. -1.
         -1    1    3    3    0  502 -0.27151213425E+03  0.75526701161E+02  0.19207721011E+03  0.34105245385E+03  0.00000000000E+00 0.  1.
         13    1    5    5    0    0  0.11939680539E+03 -0.83489443707E+02 -0.72392500359E+01  0.14587148827E+03  0.00000000000E+00 0. -1.
        -13    1    5    5    0    0  0.52750458394E+03 -0.21914488455E+03  0.10341669441E+03  0.58050028354E+03  0.00000000000E+00 0.  1.
          1    1    6    6  503    0 -0.32028517701E+02  0.15585360277E+02  0.24530229917E+02  0.43248833289E+02  0.00000000000E+00 0. -1.
         -1    1    6    6    0  503 -0.75233032591E+02  0.11257363252E+03  0.38808850974E+03  0.41102983265E+03  0.00000000000E+00 0.  1.
<mgrwt>
<rscale>  0 0.16547237E+04</rscale>
<asrwt>0</asrwt>
<pdfrwt beam="1">  1        2 0.22449378E+00 0.16547237E+04</pdfrwt>
<pdfrwt beam="2">  1       -1 0.72170544E-01 0.16547237E+04</pdfrwt>
<totfact> 0.28221018E+01</totfact>
</mgrwt>
</event>
<event>
12    7  0.1661464E-007  0.3414045E+04  0.7818608E-02  0.8134468E-01
         -1   -1    0    0    0  501 -0.00000000000E+00  0.00000000000E+00  0.10023298155E+04  0.10023298155E+04  0.00000000000E+00 0.  1.
          2   -1    0    0  501    0  0.00000000000E+00 -0.00000000000E+00 -0.29071523952E+04  0.29071523952E+04  0.00000000000E+00 0. -1.
         24    2    1    2    0    0 -0.22352620462E+03 -0.95259923053E+02  0.91182400877E+03  0.94624201326E+03  0.70089283138E+02 0.  0.
        254    2    1    2    0    0  0.22352620462E+03  0.95259923053E+02 -0.28166465885E+04  0.29632401974E+04  0.88783784880E+03 0.  0.
         23    2    4    4    0    0  0.31471394874E+03  0.22886274564E+03 -0.50279373859E+03  0.64196265700E+03  0.88834022443E+02 0.  0.
         23    2    4    4    0    0 -0.91187744123E+02 -0.13360282258E+03 -0.23138528500E+04  0.23212775404E+04  0.90826700668E+02 0.  0.
          4    1    3    3  502    0 -0.93141840450E+02 -0.35722395570E+02  0.50883183415E+03  0.51851839643E+03  0.00000000000E+00 0. -1.
         -3    1    3    3    0  502 -0.13038436417E+03 -0.59537527483E+02  0.40299217461E+03  0.42772361683E+03  0.00000000000E+00 0.  1.
         13    1    5    5    0    0  0.17890392233E+03  0.87328537694E+02 -0.20841444666E+03  0.28821774493E+03  0.00000000000E+00 0. -1.
        -13    1    5    5    0    0  0.13581002641E+03  0.14153420794E+03 -0.29437929194E+03  0.35374491207E+03  0.00000000000E+00 0.  1.
          2    1    6    6  503    0 -0.23021481825E+02 -0.84392635775E+02 -0.16182209886E+04  0.16205836213E+04  0.00000000000E+00 0. -1.
         -2    1    6    6    0  503 -0.68166262298E+02 -0.49210186808E+02 -0.69563186137E+03  0.70069391917E+03  0.00000000000E+00 0.  1.
<mgrwt>
<rscale>  0 0.34140448E+04</rscale>
<asrwt>0</asrwt>
<pdfrwt beam="1">  1        2 0.44725421E+00 0.34140448E+04</pdfrwt>
<pdfrwt beam="2">  1       -1 0.15420459E+00 0.34140448E+04</pdfrwt>
<totfact> 0.60460234E-01</totfact>
</mgrwt>
</event>
<event>
12    7  0.1661464E-007  0.1193654E+04  0.7818608E-02  0.9118430E-01
         -1   -1    0    0    0  501 -0.00000000000E+00  0.00000000000E+00  0.55176958336E+03  0.55176958336E+03  0.00000000000E+00 0.  1.
          2   -1    0    0  501    0  0.00000000000E+00 -0.00000000000E+00 -0.64556342799E+03  0.64556342799E+03  0.00000000000E+00 0. -1.
         24    2    1    2    0    0 -0.25139300355E+03 -0.30701022562E+02 -0.67328026331E+02  0.27364062583E+03  0.78772672648E+02 0.  0.
        254    2    1    2    0    0  0.25139300355E+03  0.30701022562E+02 -0.26465818302E+02  0.92369238552E+03  0.88789987527E+03 0.  0.
         23    2    4    4    0    0  0.16206372264E+03  0.89813960426E+02 -0.44084493731E+03  0.48687937136E+03  0.91520849145E+02 0.  0.
         23    2    4    4    0    0  0.89329280906E+02 -0.59112937864E+02  0.41437911900E+03  0.43681301416E+03  0.87301175366E+02 0.  0.
          2    1    3    3  502    0 -0.12673802906E+03 -0.34499053111E+02 -0.70124475246E+02  0.14889645632E+03  0.00000000000E+00 0. -1.
         -1    1    3    3    0  502 -0.12465497449E+03  0.37980305490E+01  0.27964489151E+01  0.12474416952E+03  0.00000000000E+00 0.  1.
         13    1    5    5    0    0  0.27093310130E+02  0.53044719167E+02 -0.79023845596E+02  0.98957353734E+02  0.00000000000E+00 0.  1.
        -13    1    5    5    0    0  0.13497041251E+03  0.36769241260E+02 -0.36182109171E+03  0.38792201763E+03  0.00000000000E+00 0. -1.
          1    1    6    6  503    0  0.95706225195E+02 -0.32973214842E+02  0.24156878289E+03  0.26192058206E+03  0.00000000000E+00 0. -1.
         -1    1    6    6    0  503 -0.63769442887E+01 -0.26139723023E+02  0.17281033611E+03  0.17489243210E+03  0.00000000000E+00 0.  1.
<mgrwt>
<rscale>  0 0.11936537E+04</rscale>
<asrwt>0</asrwt>
<pdfrwt beam="1">  1        2 0.99317451E-01 0.11936537E+04</pdfrwt>
<pdfrwt beam="2">  1       -1 0.84887628E-01 0.11936537E+04</pdfrwt>
<totfact> 0.70258012E+01</totfact>
</mgrwt>
</event>
<event>
12    7  0.1661464E-007  0.2435048E+04  0.7818608E-02  0.8426497E-01
          2   -1    0    0  501    0  0.00000000000E+00  0.00000000000E+00  0.94003564660E+03  0.94003564660E+03  0.00000000000E+00 0. -1.
         -1   -1    0    0    0  501 -0.00000000000E+00 -0.00000000000E+00 -0.15769241482E+04  0.15769241482E+04  0.00000000000E+00 0.  1.
         24    2    1    2    0    0 -0.17248622284E+03 -0.72419490951E+03  0.48379768558E+03  0.89143770446E+03  0.79945083201E+02 0.  0.
        254    2    1    2    0    0  0.17248622284E+03  0.72419490951E+03 -0.11206861871E+04  0.16255220903E+04  0.91223613826E+03 0.  0.
         23    2    4    4    0    0 -0.76377199663E+02 -0.13528234385E+03  0.12961570968E+02  0.17852966551E+03  0.87006034039E+02 0.  0.
         23    2    4    4    0    0  0.24886342250E+03  0.85947725336E+03 -0.11336477581E+04  0.14469924248E+04  0.89418598866E+02 0.  0.
          2    1    3    3  502    0 -0.11690109485E+03 -0.58053005227E+03  0.41252791748E+03  0.72170651256E+03  0.00000000000E+00 0. -1.
         -1    1    3    3    0  502 -0.55585127991E+02 -0.14366485724E+03  0.71269768099E+02  0.16973119190E+03  0.00000000000E+00 0.  1.
         13    1    5    5    0    0 -0.85184022316E+02 -0.11435655437E+03  0.35064027925E+02  0.14684422099E+03  0.00000000000E+00 0. -1.
        -13    1    5    5    0    0  0.88068226530E+01 -0.20925789478E+02 -0.22102456956E+02  0.31685444514E+02  0.00000000000E+00 0.  1.
          1    1    6    6  503    0  0.17912414657E+03  0.46752356937E+03 -0.60830764672E+03  0.78784639420E+03  0.00000000000E+00 0. -1.
         -1    1    6    6    0  503  0.69739275936E+02  0.39195368399E+03 -0.52534011139E+03  0.65914603058E+03  0.00000000000E+00 0.  1.
<mgrwt>
<rscale>  0 0.24350482E+04</rscale>
<asrwt>0</asrwt>
<pdfrwt beam="1">  1        2 0.14462087E+00 0.24350482E+04</pdfrwt>
<pdfrwt beam="2">  1       -1 0.24260371E+00 0.24350482E+04</pdfrwt>
<totfact> 0.21966558E+00</totfact>
</mgrwt>
</event>
<event>
12    7  0.1661464E-007  0.2404883E+04  0.7818608E-02  0.8437678E-01
         -1   -1    0    0    0  501 -0.00000000000E+00  0.00000000000E+00  0.53548399398E+03  0.53548399398E+03  0.00000000000E+00 0.  1.
          2   -1    0    0  501    0  0.00000000000E+00 -0.00000000000E+00 -0.27001096865E+04  0.27001096865E+04  0.00000000000E+00 0. -1.
         24    2    1    2    0    0 -0.42572317198E+03 -0.66125229178E+03 -0.56173623366E+02  0.79244164569E+03  0.79457367873E+02 0.  0.
        254    2    1    2    0    0  0.42572317198E+03  0.66125229178E+03 -0.21084520691E+04  0.24431520348E+04  0.95127647119E+03 0.  0.
         23    2    4    4    0    0 -0.22998122391E+03  0.10654890171E+03 -0.16323618448E+03  0.31482801085E+03  0.90700566072E+02 0.  0.
         23    2    4    4    0    0  0.65570439589E+03  0.55470339007E+03 -0.19452158846E+04  0.21283240239E+04  0.90852667387E+02 0.  0.
          2    1    3    3  502    0 -0.29194515216E+03 -0.38629164138E+03 -0.47688210978E+02  0.48654636935E+03  0.00000000000E+00 0. -1.
         -1    1    3    3    0  502 -0.13377801982E+03 -0.27496065041E+03 -0.84854123883E+01  0.30589527633E+03  0.00000000000E+00 0.  1.
         13    1    5    5    0    0 -0.63436568002E+02  0.54682156114E+02 -0.97218394324E+02  0.12831894853E+03  0.00000000000E+00 0. -1.
        -13    1    5    5    0    0 -0.16654465591E+03  0.51866745597E+02 -0.66017790153E+02  0.18650906232E+03  0.00000000000E+00 0.  1.
          3    1    6    6  503    0  0.63403157457E+02  0.91527579907E+02 -0.22954799732E+03  0.25512652024E+03  0.00000000000E+00 0. -1.
         -3    1    6    6    0  503  0.59230123843E+03  0.46317581017E+03 -0.17156678873E+04  0.18731975037E+04  0.00000000000E+00 0.  1.
<mgrwt>
<rscale>  0 0.24048830E+04</rscale>
<asrwt>0</asrwt>
<pdfrwt beam="1">  1        2 0.41540149E+00 0.24048830E+04</pdfrwt>
<pdfrwt beam="2">  1       -1 0.82382154E-01 0.24048830E+04</pdfrwt>
<totfact> 0.39768266E+00</totfact>
</mgrwt>
</event>
<event>
12    7  0.1661464E-007  0.1687187E+04  0.7818608E-02  0.8768706E-01
          2   -1    0    0  501    0  0.00000000000E+00  0.00000000000E+00  0.24356422949E+04  0.24356422949E+04  0.00000000000E+00 0. -1.
         -1   -1    0    0    0  501 -0.00000000000E+00 -0.00000000000E+00 -0.29218174505E+03  0.29218174505E+03  0.00000000000E+00 0.  1.
         24    2    1    2    0    0  0.14806534658E+03  0.10941589281E+03 -0.15335047270E+03  0.25316564878E+03  0.81739181483E+02 0.  0.
        254    2    1    2    0    0 -0.14806534658E+03 -0.10941589281E+03  0.22968110225E+04  0.24746583911E+04  0.90260627917E+03 0.  0.
         23    2    4    4    0    0  0.87314137889E+01 -0.17667811476E+03  0.22690823731E+04  0.22778171428E+04  0.91786308559E+02 0.  0.
         23    2    4    4    0    0 -0.15679676037E+03  0.67262221942E+02  0.27728649446E+02  0.19684124833E+03  0.94170953500E+02 0.  0.
          2    1    3    3  502    0 -0.51023425476E-01  0.14054014048E+02  0.63216754290E+01  0.15410434598E+02  0.00000000000E+00 0. -1.
         -1    1    3    3    0  502  0.14811637000E+03  0.95361878766E+02 -0.15967214813E+03  0.23775521419E+03  0.00000000000E+00 0.  1.
         13    1    5    5    0    0  0.22095558018E+02 -0.96561122236E+02  0.17098570287E+04  0.17127239482E+04  0.00000000000E+00 0. -1.
        -13    1    5    5    0    0 -0.13364144229E+02 -0.80116992520E+02  0.55922534436E+03  0.56509319462E+03  0.00000000000E+00 0.  1.
          3    1    6    6  503    0 -0.15082753936E+03  0.38079809281E+02  0.45598236553E+02  0.16210557572E+03  0.00000000000E+00 0. -1.
         -3    1    6    6    0  503 -0.59692210072E+01  0.29182412662E+02 -0.17869587108E+02  0.34735672609E+02  0.00000000000E+00 0.  1.
<mgrwt>
<rscale>  0 0.16871873E+04</rscale>
<asrwt>0</asrwt>
<pdfrwt beam="1">  1        2 0.37471419E+00 0.16871873E+04</pdfrwt>
<pdfrwt beam="2">  1       -1 0.44951039E-01 0.16871873E+04</pdfrwt>
<totfact> 0.20214467E+01</totfact>
</mgrwt>
</event>
<event>
12    7  0.1661464E-007  0.3157278E+04  0.7818608E-02  0.8200192E-01
          4   -1    0    0  501    0  0.00000000000E+00  0.00000000000E+00  0.96391774166E+03  0.96391774166E+03  0.00000000000E+00 0. -1.
         -3   -1    0    0    0  501 -0.00000000000E+00 -0.00000000000E+00 -0.25853874513E+04  0.25853874513E+04  0.00000000000E+00 0.  1.
         24    2    1    2    0    0 -0.51512468817E+03  0.85421939811E+03  0.44522828510E+03  0.10954406290E+04  0.81961706290E+02 0.  0.
        254    2    1    2    0    0  0.51512468817E+03 -0.85421939811E+03 -0.20666979948E+04  0.24538645640E+04  0.86900314870E+03 0.  0.
         23    2    4    4    0    0  0.72514951374E+01 -0.70901467151E+02  0.60296646313E+02  0.12914007476E+03  0.89229317646E+02 0.  0.
         23    2    4    4    0    0  0.50787319303E+03 -0.78331793096E+03 -0.21269946411E+04  0.23247244892E+04  0.93357305811E+02 0.  0.
          2    1    3    3  502    0 -0.49844702862E+03  0.79191945647E+03  0.40647919367E+03  0.10202015491E+04  0.00000000000E+00 0. -1.
         -1    1    3    3    0  502 -0.16677659549E+02  0.62299941638E+02  0.38749091424E+02  0.75239079888E+02  0.00000000000E+00 0.  1.
         13    1    5    5    0    0  0.39092581732E+02 -0.16124091894E+02  0.90553716371E+00  0.42297000880E+02  0.00000000000E+00 0.  1.
        -13    1    5    5    0    0 -0.31841086595E+02 -0.54777375257E+02  0.59391109149E+02  0.86843073884E+02  0.00000000000E+00 0. -1.
          3    1    6    6  503    0  0.49477592922E+03 -0.72494862654E+03 -0.20117672328E+04  0.21948943324E+04  0.00000000000E+00 0. -1.
         -3    1    6    6    0  503  0.13097263812E+02 -0.58369304420E+02 -0.11522740827E+03  0.12983015688E+03  0.00000000000E+00 0.  1.
<mgrwt>
<rscale>  0 0.31572778E+04</rscale>
<asrwt>0</asrwt>
<pdfrwt beam="1">  1        4 0.14829504E+00 0.31572778E+04</pdfrwt>
<pdfrwt beam="2">  1       -3 0.39775191E+00 0.31572778E+04</pdfrwt>
<totfact> 0.64200229E-03</totfact>
</mgrwt>
</event>
<event>
12    7  0.1661464E-007  0.3417571E+04  0.7818608E-02  0.8133607E-01
         -1   -1    0    0    0  501 -0.00000000000E+00  0.00000000000E+00  0.61147993907E+03  0.61147993907E+03  0.00000000000E+00 0.  1.
          2   -1    0    0  501    0  0.00000000000E+00 -0.00000000000E+00 -0.47752134706E+04  0.47752134706E+04  0.00000000000E+00 0. -1.
         24    2    1    2    0    0  0.71789942066E+03 -0.13625615381E+04 -0.14157883107E+04  0.20934926143E+04  0.79380490126E+02 0.  0.
        254    2    1    2    0    0 -0.71789942066E+03  0.13625615381E+04 -0.27479452209E+04  0.32932007954E+04  0.96021613107E+03 0.  0.
         23    2    4    4    0    0 -0.56132690060E+03  0.23850223080E+03 -0.13927316799E+04  0.15231368918E+04  0.90957437806E+02 0.  0.
         23    2    4    4    0    0 -0.15657252006E+03  0.11240593073E+04 -0.13552135410E+04  0.17700639036E+04  0.92185686075E+02 0.  0.
          4    1    3    3  502    0  0.14174963176E+03 -0.34112525814E+03 -0.34485847840E+03  0.50535806114E+03  0.00000000000E+00 0. -1.
         -3    1    3    3    0  502  0.57614978890E+03 -0.10214362800E+04 -0.10709298323E+04  0.15881345532E+04  0.00000000000E+00 0.  1.
         13    1    5    5    0    0 -0.25766704878E+03  0.96881038338E+02 -0.52146959641E+03  0.58966836747E+03  0.00000000000E+00 0.  1.
        -13    1    5    5    0    0 -0.30365985182E+03  0.14162119246E+03 -0.87126208348E+03  0.93346852431E+03  0.00000000000E+00 0. -1.
          4    1    6    6  503    0 -0.11891648230E+02  0.84103201218E+02 -0.67174914843E+02  0.10829233092E+03  0.00000000000E+00 0. -1.
         -4    1    6    6    0  503 -0.14468087183E+03  0.10399561061E+04 -0.12880386261E+04  0.16617715727E+04  0.00000000000E+00 0.  1.
<mgrwt>
<rscale>  0 0.34175706E+04</rscale>
<asrwt>0</asrwt>
<pdfrwt beam="1">  1        2 0.73464826E+00 0.34175706E+04</pdfrwt>
<pdfrwt beam="2">  1       -1 0.94073832E-01 0.34175706E+04</pdfrwt>
<totfact> 0.64882522E-02</totfact>
</mgrwt>
</event>
<event>
12    7  0.1661464E-007  0.1590960E+04  0.7818608E-02  0.8826121E-01
         -1   -1    0    0    0  501 -0.00000000000E+00  0.00000000000E+00  0.38309153851E+03  0.38309153851E+03  0.00000000000E+00 0.  1.
          2   -1    0    0  501    0  0.00000000000E+00 -0.00000000000E+00 -0.16517946266E+04  0.16517946266E+04  0.00000000000E+00 0. -1.
         24    2    1    2    0    0 -0.18687678441E+03  0.97610312077E+02  0.19737637888E+03  0.30003673433E+03  0.81325896452E+02 0.  0.
        254    2    1    2    0    0  0.18687678441E+03 -0.97610312077E+02 -0.14660794669E+04  0.17348494307E+04  0.90325125983E+03 0.  0.
         23    2    4    4    0    0 -0.65728227874E+01  0.16194123947E+03 -0.13733280133E+04  0.13858883084E+04  0.91588231315E+02 0.  0.
         23    2    4    4    0    0  0.19344960720E+03 -0.25955155154E+03 -0.92751453636E+02  0.34896112237E+03  0.91549300057E+02 0.  0.
          4    1    3    3  502    0 -0.72115209973E+02  0.66923378371E+01  0.10274406621E+03  0.12570494834E+03  0.00000000000E+00 0. -1.
         -3    1    3    3    0  502 -0.11476157444E+03  0.90917974240E+02  0.94632312673E+02  0.17433178600E+03  0.00000000000E+00 0.  1.
         13    1    5    5    0    0  0.22939648546E+02  0.46517077763E+02 -0.20335129296E+03  0.20986141701E+03  0.00000000000E+00 0. -1.
        -13    1    5    5    0    0 -0.29512471333E+02  0.11542416171E+03 -0.11699767203E+04  0.11760268914E+04  0.00000000000E+00 0.  1.
          2    1    6    6  503    0  0.19579784471E+03 -0.26168413533E+03 -0.80896629558E+02  0.33668924448E+03  0.00000000000E+00 0.  1.
         -2    1    6    6    0  503 -0.23482375126E+01  0.21325837841E+01 -0.11854824078E+02  0.12271877889E+02  0.00000000000E+00 0. -1.
<mgrwt>
<rscale>  0 0.15909601E+04</rscale>
<asrwt>0</asrwt>
<pdfrwt beam="1">  1        2 0.25412225E+00 0.15909601E+04</pdfrwt>
<pdfrwt beam="2">  1       -1 0.58937160E-01 0.15909601E+04</pdfrwt>
<totfact> 0.33278690E+01</totfact>
</mgrwt>
</event>
<event>
12    7  0.1661464E-007  0.1714280E+04  0.7818608E-02  0.8753261E-01
          2   -1    0    0  501    0  0.00000000000E+00  0.00000000000E+00  0.22892213407E+04  0.22892213407E+04  0.00000000000E+00 0. -1.
         -1   -1    0    0    0  501 -0.00000000000E+00 -0.00000000000E+00 -0.32093419174E+03  0.32093419174E+03  0.00000000000E+00 0.  1.
         24    2    1    2    0    0 -0.53603917968E+03  0.82903767647E+02  0.72010853801E+03  0.90503254568E+03  0.79476822866E+02 0.  0.
        254    2    1    2    0    0  0.53603917968E+03 -0.82903767647E+02  0.12481786109E+04  0.17051229867E+04  0.10272699345E+04 0.  0.
         23    2    4    4    0    0  0.19747794942E+03 -0.52582316803E+03  0.81165627481E+03  0.99122620681E+03  0.90862203806E+02 0.  0.
         23    2    4    4    0    0  0.33856123026E+03  0.44291940038E+03  0.43652233608E+03  0.71389677991E+03  0.91079968191E+02 0.  0.
          2    1    3    3  502    0 -0.20094706362E+00 -0.11820416453E+01  0.16923769402E+02  0.16966189111E+02  0.00000000000E+00 0. -1.
         -1    1    3    3    0  502 -0.53583823261E+03  0.84085809293E+02  0.70318476861E+03  0.88806635656E+03  0.00000000000E+00 0.  1.
         13    1    5    5    0    0  0.16196580928E+03 -0.48861181223E+03  0.76312715058E+03  0.92050935594E+03  0.00000000000E+00 0.  1.
        -13    1    5    5    0    0  0.35512140139E+02 -0.37211355802E+02  0.48529124231E+02  0.70716850866E+02  0.00000000000E+00 0. -1.
          1    1    6    6  503    0  0.20534327269E+03  0.30693071365E+03  0.24077574595E+03  0.44084609838E+03  0.00000000000E+00 0. -1.
         -1    1    6    6    0  503  0.13321795757E+03  0.13598868673E+03  0.19574659013E+03  0.27305068153E+03  0.00000000000E+00 0.  1.
<mgrwt>
<rscale>  0 0.17142805E+04</rscale>
<asrwt>0</asrwt>
<pdfrwt beam="1">  1        2 0.35218789E+00 0.17142805E+04</pdfrwt>
<pdfrwt beam="2">  1       -1 0.49374492E-01 0.17142805E+04</pdfrwt>
<totfact> 0.20476009E+01</totfact>
</mgrwt>
</event>
<event>
12    7  0.1661464E-007  0.1818357E+04  0.7818608E-02  0.8696598E-01
         -1   -1    0    0    0  501 -0.00000000000E+00  0.00000000000E+00  0.29447058537E+03  0.29447058537E+03  0.00000000000E+00 0.  1.
          2   -1    0    0  501    0  0.00000000000E+00 -0.00000000000E+00 -0.28070915716E+04  0.28070915716E+04  0.00000000000E+00 0. -1.
         24    2    1    2    0    0 -0.57729094908E+03  0.21066933480E+03 -0.40397386133E+03  0.73984485443E+03  0.80802966962E+02 0.  0.
        254    2    1    2    0    0  0.57729094908E+03 -0.21066933480E+03 -0.21086471249E+04  0.23617173025E+04  0.86814141199E+03 0.  0.
         23    2    4    4    0    0  0.64351779089E+03 -0.24752268229E+03 -0.21297732834E+04  0.22404088033E+04  0.90081860669E+02 0.  0.
         23    2    4    4    0    0 -0.66226841807E+02  0.36853347491E+02  0.21126158565E+02  0.12130849921E+03  0.92332408215E+02 0.  0.
          2    1    3    3  502    0 -0.10285507441E+03  0.64019319323E+02 -0.55937234731E+02  0.13344142463E+03  0.00000000000E+00 0. -1.
         -1    1    3    3    0  502 -0.47443587467E+03  0.14665001548E+03 -0.34803662659E+03  0.60640342980E+03  0.00000000000E+00 0.  1.
         13    1    5    5    0    0  0.37085742499E+00 -0.26854276116E+01 -0.58905638210E+00  0.27741744913E+01  0.00000000000E+00 0. -1.
        -13    1    5    5    0    0  0.64314693346E+03 -0.24483725468E+03 -0.21291842270E+04  0.22376346288E+04  0.00000000000E+00 0.  1.
          4    1    6    6  503    0 -0.31633224864E+02  0.40405306058E+02 -0.30026409447E+02  0.59454477857E+02  0.00000000000E+00 0. -1.
         -4    1    6    6    0  503 -0.34593616943E+02 -0.35519585662E+01  0.51152568012E+02  0.61854021349E+02  0.00000000000E+00 0.  1.
<mgrwt>
<rscale>  0 0.18183574E+04</rscale>
<asrwt>0</asrwt>
<pdfrwt beam="1">  1        2 0.43186024E+00 0.18183574E+04</pdfrwt>
<pdfrwt beam="2">  1       -1 0.45303167E-01 0.18183574E+04</pdfrwt>
<totfact> 0.11914314E+01</totfact>
</mgrwt>
</event>
<event>
12    7  0.1661464E-007  0.3891619E+04  0.7818608E-02  0.8026775E-01
          2   -1    0    0  501    0  0.00000000000E+00  0.00000000000E+00  0.16708456520E+04  0.16708456520E+04  0.00000000000E+00 0. -1.
         -1   -1    0    0    0  501 -0.00000000000E+00 -0.00000000000E+00 -0.22660231621E+04  0.22660231621E+04  0.00000000000E+00 0.  1.
         24    2    1    2    0    0 -0.12378770128E+04 -0.12569108603E+04  0.23876682820E+03  0.17815529815E+04  0.68971138790E+02 0.  0.
        254    2    1    2    0    0  0.12378770128E+04  0.12569108603E+04 -0.83394433836E+03  0.21553158326E+04  0.91529163068E+03 0.  0.
         23    2    4    4    0    0  0.62854905171E+03  0.80567201732E+03 -0.17799127141E+01  0.10258868931E+04  0.90881458502E+02 0.  0.
         23    2    4    4    0    0  0.60932796111E+03  0.45123884301E+03 -0.83216442565E+03  0.11294289395E+04  0.90636860209E+02 0.  0.
          2    1    3    3  502    0 -0.11775031480E+04 -0.12125843827E+04  0.23577498555E+03  0.17065943843E+04  0.00000000000E+00 0. -1.
         -1    1    3    3    0  502 -0.60373864840E+02 -0.44326477630E+02  0.29918426536E+01  0.74958597221E+02  0.00000000000E+00 0.  1.
         13    1    5    5    0    0  0.18195876751E+02  0.21183307199E+02 -0.15288736457E+02  0.31836581115E+02  0.00000000000E+00 0.  1.
        -13    1    5    5    0    0  0.61035317496E+03  0.78448871012E+03  0.13508823743E+02  0.99405031201E+03  0.00000000000E+00 0. -1.
          3    1    6    6  503    0  0.42528185674E+03  0.27091157181E+03 -0.58592193471E+03  0.77302150746E+03  0.00000000000E+00 0. -1.
         -3    1    6    6    0  503  0.18404610437E+03  0.18032727120E+03 -0.24624249093E+03  0.35640743204E+03  0.00000000000E+00 0.  1.
<mgrwt>
<rscale>  0 0.38916192E+04</rscale>
<asrwt>0</asrwt>
<pdfrwt beam="1">  1        2 0.25705318E+00 0.38916192E+04</pdfrwt>
<pdfrwt beam="2">  1       -1 0.34861895E+00 0.38916192E+04</pdfrwt>
<totfact> 0.14631027E-01</totfact>
</mgrwt>
</event>
<event>
12    7  0.1661464E-007  0.1422806E+04  0.7818608E-02  0.8937474E-01
         -1   -1    0    0    0  501 -0.00000000000E+00  0.00000000000E+00  0.38252890327E+03  0.38252890327E+03  0.00000000000E+00 0.  1.
          2   -1    0    0  501    0  0.00000000000E+00 -0.00000000000E+00 -0.13230214747E+04  0.13230214747E+04  0.00000000000E+00 0. -1.
         24    2    1    2    0    0 -0.14170533474E+03  0.57918304587E+02 -0.74238217365E+03  0.76208951976E+03  0.78830276398E+02 0.  0.
        254    2    1    2    0    0  0.14170533474E+03 -0.57918304587E+02 -0.19811039781E+03  0.94346085823E+03  0.90963494293E+03 0.  0.
         23    2    4    4    0    0  0.37171957077E+03  0.24463333830E+02  0.22617779397E+03  0.44541264060E+03  0.91989846853E+02 0.  0.
         23    2    4    4    0    0 -0.23001423603E+03 -0.82381638417E+02 -0.42428819178E+03  0.49804821764E+03  0.91314151587E+02 0.  0.
          4    1    3    3  502    0 -0.13656629116E+03  0.25285289564E+02 -0.61574650392E+03  0.63121585439E+03  0.00000000000E+00 0. -1.
         -3    1    3    3    0  502 -0.51390435770E+01  0.32633015024E+02 -0.12663566973E+03  0.13087366536E+03  0.00000000000E+00 0.  1.
         13    1    5    5    0    0  0.27931152229E+03 -0.22083065681E+02  0.16869927018E+03  0.32705050379E+03  0.00000000000E+00 0.  1.
        -13    1    5    5    0    0  0.92408048482E+02  0.46546399512E+02  0.57478523788E+02  0.11836213680E+03  0.00000000000E+00 0. -1.
          4    1    6    6  503    0 -0.16796766753E+03 -0.28169003001E+02 -0.22337793099E+03  0.28089914582E+03  0.00000000000E+00 0.  1.
         -4    1    6    6    0  503 -0.62046568496E+02 -0.54212635417E+02 -0.20091026079E+03  0.21714907182E+03  0.00000000000E+00 0. -1.
<mgrwt>
<rscale>  0 0.14228056E+04</rscale>
<asrwt>0</asrwt>
<pdfrwt beam="1">  1        2 0.20354176E+00 0.14228056E+04</pdfrwt>
<pdfrwt beam="2">  1       -1 0.58850601E-01 0.14228056E+04</pdfrwt>
<totfact> 0.51951538E+01</totfact>
</mgrwt>
</event>
<event>
12    7  0.1661464E-007  0.1840449E+04  0.7818608E-02  0.8685080E-01
          2   -1    0    0  501    0  0.00000000000E+00  0.00000000000E+00  0.21159542459E+04  0.21159542459E+04  0.00000000000E+00 0. -1.
         -1   -1    0    0    0  501 -0.00000000000E+00 -0.00000000000E+00 -0.40020389954E+03  0.40020389954E+03  0.00000000000E+00 0.  1.
         24    2    1    2    0    0  0.29866977760E+03  0.48543469256E+03  0.11582965346E+04  0.12943768930E+04  0.94393867764E+02 0.  0.
        254    2    1    2    0    0 -0.29866977760E+03 -0.48543469256E+03  0.55745381185E+03  0.12217812525E+04  0.92582082493E+03 0.  0.
         23    2    4    4    0    0 -0.11980881799E+03  0.24825540673E+03  0.16091758815E+02  0.28752600631E+03  0.80170816176E+02 0.  0.
         23    2    4    4    0    0 -0.17886095961E+03 -0.73369009928E+03  0.54136205303E+03  0.93425524621E+03  0.97301531029E+02 0.  0.
          2    1    3    3  502    0  0.19639138096E+03  0.27141256733E+03  0.58845250731E+03  0.67713418875E+03  0.00000000000E+00 0. -1.
         -1    1    3    3    0  502  0.10227839664E+03  0.21402212523E+03  0.56984402725E+03  0.61724270421E+03  0.00000000000E+00 0.  1.
         13    1    5    5    0    0 -0.15446844323E+02  0.92408166922E+02 -0.21755094600E+02  0.96182942638E+02  0.00000000000E+00 0. -1.
        -13    1    5    5    0    0 -0.10436197367E+03  0.15584723981E+03  0.37846853415E+02  0.19134306368E+03  0.00000000000E+00 0.  1.
          2    1    6    6  503    0 -0.75872566584E+02 -0.36998062884E+03  0.32776518840E+03  0.50007232558E+03  0.00000000000E+00 0. -1.
         -2    1    6    6    0  503 -0.10298839302E+03 -0.36370947044E+03  0.21359686463E+03  0.43418292063E+03  0.00000000000E+00 0.  1.
<mgrwt>
<rscale>  0 0.18404490E+04</rscale>
<asrwt>0</asrwt>
<pdfrwt beam="1">  1        2 0.32553142E+00 0.18404490E+04</pdfrwt>
<pdfrwt beam="2">  1       -1 0.61569832E-01 0.18404490E+04</pdfrwt>
<totfact> 0.16504833E+01</totfact>
</mgrwt>
</event>
<event>
12    7  0.1661464E-007  0.1532464E+04  0.7818608E-02  0.8863147E-01
         -3   -1    0    0    0  501 -0.00000000000E+00  0.00000000000E+00  0.66450576480E+03  0.66450576480E+03  0.00000000000E+00 0.  1.
          4   -1    0    0  501    0  0.00000000000E+00 -0.00000000000E+00 -0.88353118562E+03  0.88353118562E+03  0.00000000000E+00 0. -1.
         24    2    1    2    0    0  0.24814687950E+02 -0.24687759776E+02  0.43164701096E+03  0.44102437561E+03  0.83415247936E+02 0.  0.
        254    2    1    2    0    0 -0.24814687950E+02  0.24687759776E+02 -0.65067243178E+03  0.11070125748E+04  0.89491729959E+03 0.  0.
         23    2    4    4    0    0  0.15160911673E+03  0.80181427280E+02  0.17154276185E+03  0.25934221938E+03  0.91744656798E+02 0.  0.
         23    2    4    4    0    0 -0.17642380468E+03 -0.55493667504E+02 -0.82221519363E+03  0.84767035544E+03  0.91116962591E+02 0.  0.
          2    1    3    3  502    0  0.20599442242E+02 -0.40972616629E+02  0.11324384840E+03  0.12217717272E+03  0.00000000000E+00 0. -1.
         -1    1    3    3    0  502  0.42152457080E+01  0.16284856853E+02  0.31840316256E+03  0.31884720288E+03  0.00000000000E+00 0.  1.
         13    1    5    5    0    0  0.16320461266E+03  0.79946133012E+02  0.16723246346E+03  0.24696928273E+03  0.00000000000E+00 0. -1.
        -13    1    5    5    0    0 -0.11595495922E+02  0.23529426776E+00  0.43102983822E+01  0.12372936645E+02  0.00000000000E+00 0.  1.
          2    1    6    6  503    0 -0.19451897133E+01 -0.29647714683E+02 -0.12699041621E+03  0.13041984725E+03  0.00000000000E+00 0.  1.
         -2    1    6    6    0  503 -0.17447861497E+03 -0.25845952821E+02 -0.69522477742E+03  0.71725050819E+03  0.00000000000E+00 0. -1.
<mgrwt>
<rscale>  0 0.15324641E+04</rscale>
<asrwt>0</asrwt>
<pdfrwt beam="1">  1        4 0.13592787E+00 0.15324641E+04</pdfrwt>
<pdfrwt beam="2">  1       -3 0.10223166E+00 0.15324641E+04</pdfrwt>
<totfact> 0.70572089E-01</totfact>
</mgrwt>
</event>
<event>
12    7  0.1661464E-007  0.2061440E+04  0.7818608E-02  0.8578422E-01
          2   -1    0    0  501    0  0.00000000000E+00  0.00000000000E+00  0.19805779367E+04  0.19805779367E+04  0.00000000000E+00 0. -1.
         -1   -1    0    0    0  501 -0.00000000000E+00 -0.00000000000E+00 -0.53640076735E+03  0.53640076735E+03  0.00000000000E+00 0.  1.
         24    2    1    2    0    0  0.54820083197E+03 -0.56840137107E+03  0.91792225083E+03  0.12135160132E+04  0.80222097697E+02 0.  0.
        254    2    1    2    0    0 -0.54820083197E+03  0.56840137107E+03  0.52625491849E+03  0.13034626908E+04  0.89356951397E+03 0.  0.
         23    2    4    4    0    0 -0.25165287679E+02  0.63464013958E+03  0.39387043033E+03  0.75296861009E+03  0.91795497801E+02 0.  0.
         23    2    4    4    0    0 -0.52303554429E+03 -0.66238768515E+02  0.13238448816E+03  0.55049408072E+03  0.86973128930E+02 0.  0.
          2    1    3    3  502    0  0.22577087219E+03 -0.25311134865E+03  0.45187191053E+03  0.56500094253E+03  0.00000000000E+00 0. -1.
         -1    1    3    3    0  502  0.32242995979E+03 -0.31529002242E+03  0.46605034030E+03  0.64851507068E+03  0.00000000000E+00 0.  1.
         13    1    5    5    0    0  0.28614226899E+02  0.39533723828E+03  0.23699585464E+03  0.46181959797E+03  0.00000000000E+00 0. -1.
        -13    1    5    5    0    0 -0.53779514578E+02  0.23930290130E+03  0.15687457568E+03  0.29114901212E+03  0.00000000000E+00 0.  1.
          4    1    6    6  503    0 -0.41773024491E+03 -0.45999492852E+02  0.14007825191E+03  0.44298580960E+03  0.00000000000E+00 0. -1.
         -4    1    6    6    0  503 -0.10530529939E+03 -0.20239275663E+02 -0.76937637470E+01  0.10750827112E+03  0.00000000000E+00 0.  1.
<mgrwt>
<rscale>  0 0.20614398E+04</rscale>
<asrwt>0</asrwt>
<pdfrwt beam="1">  1        2 0.30470430E+00 0.20614398E+04</pdfrwt>
<pdfrwt beam="2">  1       -1 0.82523196E-01 0.20614398E+04</pdfrwt>
<totfact> 0.10520740E+01</totfact>
</mgrwt>
</event>
<event>
12    7  0.1661464E-007  0.1709186E+04  0.7818608E-02  0.8756142E-01
         -1   -1    0    0    0  501 -0.00000000000E+00  0.00000000000E+00  0.40498486019E+03  0.40498486019E+03  0.00000000000E+00 0.  1.
          2   -1    0    0  501    0  0.00000000000E+00 -0.00000000000E+00 -0.18033500973E+04  0.18033500973E+04  0.00000000000E+00 0. -1.
         24    2    1    2    0    0 -0.34866128650E+03 -0.46720501445E+03 -0.23620108281E+03  0.63399079355E+03  0.79423904143E+02 0.  0.
        254    2    1    2    0    0  0.34866128650E+03  0.46720501445E+03 -0.11621641543E+04  0.15743441639E+04  0.88774366048E+03 0.  0.
         23    2    4    4    0    0  0.41512143510E+03  0.68806663004E+03 -0.85283520403E+03  0.11759678445E+04  0.99050455581E+02 0.  0.
         23    2    4    4    0    0 -0.66460148600E+02 -0.22086161559E+03 -0.30932895025E+03  0.39837631944E+03  0.99108465009E+02 0.  0.
          2    1    3    3  502    0 -0.10803355449E+03 -0.19441248242E+03 -0.63365997446E+02  0.23126329551E+03  0.00000000000E+00 0. -1.
         -1    1    3    3    0  502 -0.24062773201E+03 -0.27279253203E+03 -0.17283508536E+03  0.40272749804E+03  0.00000000000E+00 0.  1.
         13    1    5    5    0    0  0.89569313301E+02  0.88952682849E+02 -0.10760245192E+03  0.16587202697E+03  0.00000000000E+00 0. -1.
        -13    1    5    5    0    0  0.32555212180E+03  0.59911394719E+03 -0.74523275211E+03  0.10100958175E+04  0.00000000000E+00 0.  1.
          1    1    6    6  503    0 -0.86583234153E+01  0.98762316065E+01 -0.17699027745E+02  0.22040011303E+02  0.00000000000E+00 0. -1.
         -1    1    6    6    0  503 -0.57801825185E+02 -0.23073784719E+03 -0.29162992251E+03  0.37633630814E+03  0.00000000000E+00 0.  1.
<mgrwt>
<rscale>  0 0.17091863E+04</rscale>
<asrwt>0</asrwt>
<pdfrwt beam="1">  1        2 0.27743848E+00 0.17091863E+04</pdfrwt>
<pdfrwt beam="2">  1       -1 0.62305363E-01 0.17091863E+04</pdfrwt>
<totfact> 0.24313819E+01</totfact>
</mgrwt>
</event>
<event>
12    7  0.1661464E-007  0.1696305E+04  0.7818608E-02  0.8763475E-01
         -1   -1    0    0    0  501 -0.00000000000E+00  0.00000000000E+00  0.32486615798E+03  0.32486615798E+03  0.00000000000E+00 0.  1.
          2   -1    0    0  501    0  0.00000000000E+00 -0.00000000000E+00 -0.22143351829E+04  0.22143351829E+04  0.00000000000E+00 0. -1.
         24    2    1    2    0    0  0.50644204480E+03  0.31911085032E+03 -0.68716147306E+03  0.91485262575E+03  0.80306645105E+02 0.  0.
        254    2    1    2    0    0 -0.50644204480E+03 -0.31911085032E+03 -0.12023075519E+04  0.16243487152E+04  0.91359182328E+03 0.  0.
         23    2    4    4    0    0 -0.62062480897E+03 -0.23647737375E+03 -0.35285567718E+03  0.75823564890E+03  0.96527035245E+02 0.  0.
         23    2    4    4    0    0  0.11418276417E+03 -0.82633476569E+02 -0.84945187473E+03  0.86611306628E+03  0.93366808967E+02 0.  0.
          2    1    3    3  502    0  0.31918238662E+03  0.21220057076E+03 -0.49483711685E+03  0.62591552974E+03  0.00000000000E+00 0. -1.
         -1    1    3    3    0  502  0.18725965818E+03  0.10691027955E+03 -0.19232435621E+03  0.28893709600E+03  0.00000000000E+00 0.  1.
         13    1    5    5    0    0 -0.59001277927E+03 -0.23276619904E+03 -0.35582019398E+03  0.72725730904E+03  0.00000000000E+00 0.  1.
        -13    1    5    5    0    0 -0.30612029703E+02 -0.37111747106E+01  0.29645167956E+01  0.30978339853E+02  0.00000000000E+00 0. -1.
          1    1    6    6  503    0  0.30697471428E+02 -0.16562275155E+02 -0.59123188132E+02  0.68645430185E+02  0.00000000000E+00 0. -1.
         -1    1    6    6    0  503  0.83485292739E+02 -0.66071201414E+02 -0.79032868660E+03  0.79746763609E+03  0.00000000000E+00 0.  1.
<mgrwt>
<rscale>  0 0.16963049E+04</rscale>
<asrwt>0</asrwt>
<pdfrwt beam="1">  1        2 0.34066697E+00 0.16963049E+04</pdfrwt>
<pdfrwt beam="2">  1       -1 0.49979407E-01 0.16963049E+04</pdfrwt>
<totfact> 0.22083266E+01</totfact>
</mgrwt>
</event>
<event>
12    7  0.1661464E-007  0.1150627E+04  0.7818608E-02  0.9157205E-01
          2   -1    0    0  501    0  0.00000000000E+00  0.00000000000E+00  0.22723324036E+04  0.22723324036E+04  0.00000000000E+00 0. -1.
         -1   -1    0    0    0  501 -0.00000000000E+00 -0.00000000000E+00 -0.14565909651E+03  0.14565909651E+03  0.00000000000E+00 0.  1.
         24    2    1    2    0    0  0.79319425628E+02 -0.87944221323E+02  0.91270834049E+01  0.14379795747E+03  0.81048081879E+02 0.  0.
        254    2    1    2    0    0 -0.79319425628E+02  0.87944221323E+02  0.21175462237E+04  0.22741935427E+04  0.82093148470E+03 0.  0.
         23    2    4    4    0    0  0.23310976663E+03 -0.20785337613E+03  0.49111235962E+03  0.58940006526E+03  0.93047825823E+02 0.  0.
         23    2    4    4    0    0 -0.31242919226E+03  0.29579759745E+03  0.16264338641E+04  0.16847934774E+04  0.90187185277E+02 0.  0.
          2    1    3    3  502    0  0.42695863356E+02  0.55469239795E+01  0.10940934811E+01  0.43068575016E+02  0.00000000000E+00 0. -1.
         -1    1    3    3    0  502  0.36623562272E+02 -0.93491145302E+02  0.80329899238E+01  0.10072938246E+03  0.00000000000E+00 0.  1.
         13    1    5    5    0    0  0.16476959370E+03 -0.18581105722E+03  0.32997313930E+03  0.41298552112E+03  0.00000000000E+00 0. -1.
        -13    1    5    5    0    0  0.68340172932E+02 -0.22042318905E+02  0.16113922032E+03  0.17641454414E+03  0.00000000000E+00 0.  1.
          2    1    6    6  503    0 -0.22902426749E+03  0.20929154228E+03  0.13119187261E+04  0.13481045244E+04  0.00000000000E+00 0. -1.
         -2    1    6    6    0  503 -0.83404924771E+02  0.86506055173E+02  0.31451513800E+03  0.33668895302E+03  0.00000000000E+00 0.  1.
<mgrwt>
<rscale>  0 0.11506275E+04</rscale>
<asrwt>0</asrwt>
<pdfrwt beam="1">  1        2 0.34958957E+00 0.11506275E+04</pdfrwt>
<pdfrwt beam="2">  1       -1 0.22409093E-01 0.11506275E+04</pdfrwt>
<totfact> 0.89877818E+01</totfact>
</mgrwt>
</event>
<event>
12    7  0.1661464E-007  0.1629889E+04  0.7818608E-02  0.8802393E-01
          2   -1    0    0  501    0  0.00000000000E+00  0.00000000000E+00  0.12462654794E+04  0.12462654794E+04  0.00000000000E+00 0. -1.
         -1   -1    0    0    0  501 -0.00000000000E+00 -0.00000000000E+00 -0.53289999689E+03  0.53289999689E+03  0.00000000000E+00 0.  1.
         24    2    1    2    0    0  0.30597353482E+03 -0.24342200757E+03 -0.18425504770E+03  0.43991521168E+03  0.81862036853E+02 0.  0.
        254    2    1    2    0    0 -0.30597353482E+03  0.24342200757E+03  0.89762053019E+03  0.13392502646E+04  0.91378037692E+03 0.  0.
         23    2    4    4    0    0 -0.34277471056E+03 -0.27910366583E+03  0.31484928901E+03  0.55016569406E+03  0.90326395123E+02 0.  0.
         23    2    4    4    0    0  0.36801175731E+02  0.52252567341E+03  0.58277124118E+03  0.78908457054E+03  0.92977061738E+02 0.  0.
          4    1    3    3  502    0  0.33950314142E+02  0.40655809961E+00 -0.11770715730E+02  0.35935203751E+02  0.00000000000E+00 0. -1.
         -3    1    3    3    0  502  0.27202322068E+03 -0.24382856567E+03 -0.17248433197E+03  0.40398000793E+03  0.00000000000E+00 0.  1.
         13    1    5    5    0    0 -0.56099574598E+02 -0.87617782813E+01  0.32659609909E+02  0.65502527800E+02  0.00000000000E+00 0. -1.
        -13    1    5    5    0    0 -0.28667513596E+03 -0.27034188755E+03  0.28218967910E+03  0.48466316626E+03  0.00000000000E+00 0.  1.
          1    1    6    6  503    0 -0.13942652018E+02  0.17106869849E+03  0.13989584598E+03  0.22142661283E+03  0.00000000000E+00 0. -1.
         -1    1    6    6    0  503  0.50743827749E+02  0.35145697492E+03  0.44287539520E+03  0.56765795770E+03  0.00000000000E+00 0.  1.
<mgrwt>
<rscale>  0 0.16298894E+04</rscale>
<asrwt>0</asrwt>
<pdfrwt beam="1">  1        2 0.19173315E+00 0.16298894E+04</pdfrwt>
<pdfrwt beam="2">  1       -1 0.81984615E-01 0.16298894E+04</pdfrwt>
<totfact> 0.28706875E+01</totfact>
</mgrwt>
</event>
<event>
12    7  0.1661464E-007  0.2035374E+04  0.7818608E-02  0.8590258E-01
         -1   -1    0    0    0  501 -0.00000000000E+00  0.00000000000E+00  0.66229082443E+03  0.66229082443E+03  0.00000000000E+00 0.  1.
          2   -1    0    0  501    0  0.00000000000E+00 -0.00000000000E+00 -0.15637948226E+04  0.15637948226E+04  0.00000000000E+00 0. -1.
         24    2    1    2    0    0  0.12846238845E+03  0.44311562115E+03  0.37028646187E+03  0.59698960719E+03  0.80190325442E+02 0.  0.
        254    2    1    2    0    0 -0.12846238845E+03 -0.44311562115E+03 -0.12717904601E+04  0.16290960399E+04  0.90755104200E+03 0.  0.
         23    2    4    4    0    0  0.20049909959E+03 -0.55835304684E+03 -0.51631791075E+03  0.79211104673E+03  0.94327681776E+02 0.  0.
         23    2    4    4    0    0 -0.32896148804E+03  0.11523742569E+03 -0.75547254934E+03  0.83698499315E+03  0.91158000503E+02 0.  0.
          2    1    3    3  502    0  0.10096242687E+02  0.16732098632E+02 -0.68292830315E+00  0.19554120591E+02  0.00000000000E+00 0. -1.
         -1    1    3    3    0  502  0.11836614576E+03  0.42638352252E+03  0.37096939017E+03  0.57743548660E+03  0.00000000000E+00 0.  1.
         13    1    5    5    0    0  0.19748338530E+03 -0.48298475989E+03 -0.47738531849E+03  0.70722747972E+03  0.00000000000E+00 0. -1.
        -13    1    5    5    0    0  0.30157142978E+01 -0.75368286943E+02 -0.38932592255E+02  0.84883567015E+02  0.00000000000E+00 0.  1.
          2    1    6    6  503    0 -0.27497574124E+03  0.65296699351E+02 -0.64582963634E+03  0.70496186875E+03  0.00000000000E+00 0. -1.
         -2    1    6    6    0  503 -0.53985746806E+02  0.49940726337E+02 -0.10964291300E+03  0.13202312440E+03  0.00000000000E+00 0.  1.
<mgrwt>
<rscale>  0 0.20353741E+04</rscale>
<asrwt>0</asrwt>
<pdfrwt beam="1">  1        2 0.24058382E+00 0.20353741E+04</pdfrwt>
<pdfrwt beam="2">  1       -1 0.10189090E+00 0.20353741E+04</pdfrwt>
<totfact> 0.11258287E+01</totfact>
</mgrwt>
</event>
<event>
12    7  0.1661464E-007  0.2120886E+04  0.7818608E-02  0.8552099E-01
         -1   -1    0    0    0  501 -0.00000000000E+00  0.00000000000E+00  0.58257446550E+03  0.58257446550E+03  0.00000000000E+00 0.  1.
          2   -1    0    0  501    0  0.00000000000E+00 -0.00000000000E+00 -0.19302921658E+04  0.19302921658E+04  0.00000000000E+00 0. -1.
         24    2    1    2    0    0 -0.61760449164E+03 -0.41930241380E+02  0.16576737012E+03  0.64576634679E+03  0.79636049715E+02 0.  0.
        254    2    1    2    0    0  0.61760449164E+03  0.41930241380E+02 -0.15134850704E+04  0.18671002845E+04  0.90123967999E+03 0.  0.
         23    2    4    4    0    0 -0.92403553504E+01 -0.19912042742E+03 -0.98204897288E+03  0.10061647190E+04  0.90625204825E+02 0.  0.
         23    2    4    4    0    0  0.62684484699E+03  0.24105066880E+03 -0.53143609749E+03  0.86093556552E+03  0.88010426202E+02 0.  0.
          2    1    3    3  502    0 -0.95135446553E+02 -0.33318222459E+02  0.15001834517E+02  0.10191129563E+03  0.00000000000E+00 0. -1.
         -1    1    3    3    0  502 -0.52246904509E+03 -0.86120189218E+01  0.15076553560E+03  0.54385505116E+03  0.00000000000E+00 0.  1.
         13    1    5    5    0    0 -0.45202073617E+02 -0.14004008209E+03 -0.59088822072E+03  0.60893623758E+03  0.00000000000E+00 0. -1.
        -13    1    5    5    0    0  0.35961718267E+02 -0.59080345330E+02 -0.39116075216E+03  0.39722848137E+03  0.00000000000E+00 0.  1.
          2    1    6    6  503    0  0.56868152462E+03  0.19583726998E+03 -0.49387053505E+03  0.77824097691E+03  0.00000000000E+00 0. -1.
         -2    1    6    6    0  503  0.58163322372E+02  0.45213398821E+02 -0.37565562445E+02  0.82694588603E+02  0.00000000000E+00 0.  1.
<mgrwt>
<rscale>  0 0.21208856E+04</rscale>
<asrwt>0</asrwt>
<pdfrwt beam="1">  1        2 0.29696803E+00 0.21208856E+04</pdfrwt>
<pdfrwt beam="2">  1       -1 0.89626840E-01 0.21208856E+04</pdfrwt>
<totfact> 0.93264301E+00</totfact>
</mgrwt>
</event>
<event>
12    7  0.1661464E-007  0.3903153E+04  0.7818608E-02  0.8024374E-01
          2   -1    0    0  501    0  0.00000000000E+00  0.00000000000E+00  0.36167558500E+04  0.36167558500E+04  0.00000000000E+00 0. -1.
         -1   -1    0    0    0  501 -0.00000000000E+00 -0.00000000000E+00 -0.10530572998E+04  0.10530572998E+04  0.00000000000E+00 0.  1.
         24    2    1    2    0    0 -0.15469504549E+04 -0.32119722940E+03  0.67765944743E+02  0.15834246703E+04  0.80113002224E+02 0.  0.
        254    2    1    2    0    0  0.15469504549E+04  0.32119722940E+03  0.24959326054E+04  0.30863884795E+04  0.89436620318E+03 0.  0.
         23    2    4    4    0    0  0.56795463611E+03  0.55721381338E+03  0.11981573624E+04  0.14412121706E+04  0.91933416799E+02 0.  0.
         23    2    4    4    0    0  0.97899581880E+03 -0.23601658398E+03  0.12977752430E+04  0.16451763089E+04  0.90817755827E+02 0.  0.
          4    1    3    3  502    0 -0.20303797994E+03 -0.20021840153E+02 -0.70861584941E+01  0.20414580334E+03  0.00000000000E+00 0. -1.
         -3    1    3    3    0  502 -0.13439124750E+04 -0.30117538925E+03  0.74852103237E+02  0.13792788670E+04  0.00000000000E+00 0.  1.
         13    1    5    5    0    0  0.15723391208E+03  0.18212527303E+03  0.43126634110E+03  0.49384488976E+03  0.00000000000E+00 0.  1.
        -13    1    5    5    0    0  0.41072072404E+03  0.37508854035E+03  0.76689102134E+03  0.94736728087E+03  0.00000000000E+00 0. -1.
          2    1    6    6  503    0  0.86926147896E+03 -0.20264334954E+03  0.11002747523E+04  0.14167866376E+04  0.00000000000E+00 0.  1.
         -2    1    6    6    0  503  0.10973433984E+03 -0.33373234442E+02  0.19750049072E+03  0.22838967129E+03  0.00000000000E+00 0. -1.
<mgrwt>
<rscale>  0 0.39031532E+04</rscale>
<asrwt>0</asrwt>
<pdfrwt beam="1">  1        2 0.55642397E+00 0.39031532E+04</pdfrwt>
<pdfrwt beam="2">  1       -1 0.16200882E+00 0.39031532E+04</pdfrwt>
<totfact> 0.17058448E-01</totfact>
</mgrwt>
</event>
<event>
12    7  0.1661464E-007  0.1286292E+04  0.7818608E-02  0.9040507E-01
         -1   -1    0    0    0  501 -0.00000000000E+00  0.00000000000E+00  0.21117564903E+03  0.21117564903E+03  0.00000000000E+00 0.  1.
          2   -1    0    0  501    0  0.00000000000E+00 -0.00000000000E+00 -0.19587320290E+04  0.19587320290E+04  0.00000000000E+00 0. -1.
         24    2    1    2    0    0  0.73969632865E+02  0.30131582039E+03 -0.45865599556E+03  0.55953507095E+03  0.80320876228E+02 0.  0.
        254    2    1    2    0    0 -0.73969632865E+02 -0.30131582039E+03 -0.12889003844E+04  0.16103726071E+04  0.91420621445E+03 0.  0.
         23    2    4    4    0    0  0.32872194126E+02  0.23969082557E+03 -0.67979642530E+02  0.26808021031E+03  0.93346099810E+02 0.  0.
         23    2    4    4    0    0 -0.10684182699E+03 -0.54100664596E+03 -0.12209207419E+04  0.13422923968E+04  0.83654369455E+02 0.  0.
          4    1    3    3  502    0  0.21136997578E+02  0.18801558373E+03 -0.32834289685E+03  0.37895341442E+03  0.00000000000E+00 0. -1.
         -3    1    3    3    0  502  0.52832635287E+02  0.11330023666E+03 -0.13031309871E+03  0.18058165653E+03  0.00000000000E+00 0.  1.
         13    1    5    5    0    0  0.64854252678E+02  0.17377463261E+03 -0.40656388275E+02  0.18988585765E+03  0.00000000000E+00 0. -1.
        -13    1    5    5    0    0 -0.31982058553E+02  0.65916192964E+02 -0.27323254254E+02  0.78194352655E+02  0.00000000000E+00 0.  1.
          3    1    6    6  503    0 -0.94855280703E+02 -0.33531708404E+03 -0.69548982846E+03  0.77790820321E+03  0.00000000000E+00 0. -1.
         -3    1    6    6    0  503 -0.11986546287E+02 -0.20568956192E+03 -0.52543091345E+03  0.56438419360E+03  0.00000000000E+00 0.  1.
<mgrwt>
<rscale>  0 0.12862916E+04</rscale>
<asrwt>0</asrwt>
<pdfrwt beam="1">  1        2 0.30134337E+00 0.12862916E+04</pdfrwt>
<pdfrwt beam="2">  1       -1 0.32488563E-01 0.12862916E+04</pdfrwt>
<totfact> 0.69827016E+01</totfact>
</mgrwt>
</event>
<event>
12    7  0.1661464E-007  0.1646601E+04  0.7818608E-02  0.8792420E-01
          2   -1    0    0  501    0  0.00000000000E+00  0.00000000000E+00  0.36115171292E+04  0.36115171292E+04  0.00000000000E+00 0. -1.
         -1   -1    0    0    0  501 -0.00000000000E+00 -0.00000000000E+00 -0.18768400899E+03  0.18768400899E+03  0.00000000000E+00 0.  1.
         24    2    1    2    0    0  0.33615692361E+03  0.42779678429E+03  0.16141158871E+04  0.17052974914E+04  0.81595779425E+02 0.  0.
        254    2    1    2    0    0 -0.33615692361E+03 -0.42779678429E+03  0.18097172331E+04  0.20939036468E+04  0.90185611509E+03 0.  0.
         23    2    4    4    0    0 -0.21062741363E+03  0.95445210921E+02  0.13716596577E+04  0.13940143575E+04  0.91389915220E+02 0.  0.
         23    2    4    4    0    0 -0.12552950998E+03 -0.52324199521E+03  0.43805757539E+03  0.69988928931E+03  0.91710056724E+02 0.  0.
          4    1    3    3  502    0  0.30657736991E+03  0.34162677604E+03  0.13532958967E+04  0.14290235554E+04  0.00000000000E+00 0. -1.
         -3    1    3    3    0  502  0.29579553699E+02  0.86170008255E+02  0.26081999039E+03  0.27627393599E+03  0.00000000000E+00 0.  1.
         13    1    5    5    0    0 -0.15057654670E+02 -0.16304454532E+02  0.88870834806E+02  0.91600182755E+02  0.00000000000E+00 0. -1.
        -13    1    5    5    0    0 -0.19556975896E+03  0.11174966545E+03  0.12827888229E+04  0.13024141748E+04  0.00000000000E+00 0.  1.
          3    1    6    6  503    0 -0.60935275066E+02 -0.12929353203E+03  0.15283765646E+03  0.20925886935E+03  0.00000000000E+00 0. -1.
         -3    1    6    6    0  503 -0.64594234916E+02 -0.39394846319E+03  0.28521991892E+03  0.49063041995E+03  0.00000000000E+00 0.  1.
<mgrwt>
<rscale>  0 0.16466014E+04</rscale>
<asrwt>0</asrwt>
<pdfrwt beam="1">  1        2 0.55561797E+00 0.16466014E+04</pdfrwt>
<pdfrwt beam="2">  1       -1 0.28874465E-01 0.16466014E+04</pdfrwt>
<totfact> 0.81416838E+00</totfact>
</mgrwt>
</event>
<event>
12    7  0.1661464E-007  0.2208515E+04  0.7818608E-02  0.8514892E-01
          2   -1    0    0  501    0  0.00000000000E+00  0.00000000000E+00  0.26074914484E+04  0.26074914484E+04  0.00000000000E+00 0. -1.
         -1   -1    0    0    0  501 -0.00000000000E+00 -0.00000000000E+00 -0.46764685077E+03  0.46764685077E+03  0.00000000000E+00 0.  1.
         24    2    1    2    0    0  0.47465815576E+02 -0.91094630674E+03  0.76454854485E+03  0.11929126022E+04  0.80186168237E+02 0.  0.
        254    2    1    2    0    0 -0.47465815576E+02  0.91094630674E+03  0.13752960527E+04  0.18822256970E+04  0.90512881085E+03 0.  0.
         23    2    4    4    0    0  0.29732457130E+02 -0.17177045415E+03  0.19180671749E+03  0.27352677093E+03  0.87395478237E+02 0.  0.
         23    2    4    4    0    0 -0.77198272706E+02  0.10827167609E+04  0.11834893352E+04  0.16086989260E+04  0.95026682329E+02 0.  0.
          2    1    3    3  502    0  0.40594455137E+02 -0.24949372913E+03  0.18202928975E+03  0.31149589563E+03  0.00000000000E+00 0. -1.
         -1    1    3    3    0  502  0.68713604392E+01 -0.66145257761E+03  0.58251925510E+03  0.88141670654E+03  0.00000000000E+00 0.  1.
         13    1    5    5    0    0 -0.15690375959E+02 -0.11660738904E+03  0.85530839637E+02  0.14546131997E+03  0.00000000000E+00 0.  1.
        -13    1    5    5    0    0  0.45422833089E+02 -0.55163065106E+02  0.10627587785E+03  0.12806545096E+03  0.00000000000E+00 0. -1.
          3    1    6    6  503    0 -0.77428528264E+02  0.46482411392E+03  0.53616439160E+03  0.71381292275E+03  0.00000000000E+00 0. -1.
         -3    1    6    6    0  503  0.23025555803E+00  0.61789264697E+03  0.64732494365E+03  0.89488600328E+03  0.00000000000E+00 0.  1.
<mgrwt>
<rscale>  0 0.22085155E+04</rscale>
<asrwt>0</asrwt>
<pdfrwt beam="1">  1        2 0.40115252E+00 0.22085155E+04</pdfrwt>
<pdfrwt beam="2">  1       -1 0.71945671E-01 0.22085155E+04</pdfrwt>
<totfact> 0.61062083E+00</totfact>
</mgrwt>
</event>
<event>
12    7  0.1661464E-007  0.1417083E+04  0.7818608E-02  0.8941545E-01
         -1   -1    0    0    0  501 -0.00000000000E+00  0.00000000000E+00  0.66443180397E+03  0.66443180397E+03  0.00000000000E+00 0.  1.
          2   -1    0    0  501    0  0.00000000000E+00 -0.00000000000E+00 -0.75557918167E+03  0.75557918167E+03  0.00000000000E+00 0. -1.
         24    2    1    2    0    0  0.29373055306E+02 -0.32972917220E+03 -0.29317374851E+03  0.44905215690E+03  0.78184969317E+02 0.  0.
        254    2    1    2    0    0 -0.29373055306E+02  0.32972917220E+03  0.20202637080E+03  0.97095882874E+03  0.89014734130E+03 0.  0.
         23    2    4    4    0    0 -0.32079764510E+03  0.19176037762E+03 -0.21156574586E+03  0.43911080599E+03  0.91515373541E+02 0.  0.
         23    2    4    4    0    0  0.29142458979E+03  0.13796879458E+03  0.41359211666E+03  0.53184802274E+03  0.88544906820E+02 0.  0.
          4    1    3    3  502    0 -0.30643900721E+01  0.37371461751E+01 -0.22505291435E+01  0.53311940007E+01  0.00000000000E+00 0. -1.
         -3    1    3    3    0  502  0.32437445378E+02 -0.33346631838E+03 -0.29092321936E+03  0.44372096290E+03  0.00000000000E+00 0.  1.
         13    1    5    5    0    0 -0.24922156027E+03  0.11749361611E+03 -0.18726419917E+03  0.33314263646E+03  0.00000000000E+00 0.  1.
        -13    1    5    5    0    0 -0.71576084822E+02  0.74266761513E+02 -0.24301546684E+02  0.10596816954E+03  0.00000000000E+00 0. -1.
          1    1    6    6  503    0  0.22947786998E+03  0.13063879451E+03  0.28263593064E+03  0.38679407536E+03  0.00000000000E+00 0.  1.
         -1    1    6    6    0  503  0.61946719809E+02  0.73300000643E+01  0.13095618602E+03  0.14505394739E+03  0.00000000000E+00 0. -1.
<mgrwt>
<rscale>  0 0.14170827E+04</rscale>
<asrwt>0</asrwt>
<pdfrwt beam="1">  1        2 0.11624295E+00 0.14170827E+04</pdfrwt>
<pdfrwt beam="2">  1       -1 0.10222028E+00 0.14170827E+04</pdfrwt>
<totfact> 0.37372770E+01</totfact>
</mgrwt>
</event>
<event>
12    7  0.1661464E-007  0.1835610E+04  0.7818608E-02  0.8687589E-01
         -1   -1    0    0    0  501 -0.00000000000E+00  0.00000000000E+00  0.71446049483E+03  0.71446049483E+03  0.00000000000E+00 0.  1.
          2   -1    0    0  501    0  0.00000000000E+00 -0.00000000000E+00 -0.11790233968E+04  0.11790233968E+04  0.00000000000E+00 0. -1.
         24    2    1    2    0    0  0.47932346159E+03  0.47305178414E+03 -0.15164644930E+02  0.67843970103E+03  0.80755743950E+02 0.  0.
        254    2    1    2    0    0 -0.47932346159E+03 -0.47305178414E+03 -0.44939825707E+03  0.12150441906E+04  0.90600475739E+03 0.  0.
         23    2    4    4    0    0 -0.40666355855E+03 -0.37866695871E+03 -0.71470855982E+03  0.90999705309E+03  0.92316822282E+02 0.  0.
         23    2    4    4    0    0 -0.72659903040E+02 -0.94384825421E+02  0.26531030275E+03  0.30504713754E+03  0.92066511798E+02 0.  0.
          4    1    3    3  502    0  0.31822598451E+03  0.31949315899E+03  0.27714930660E+02  0.45178730974E+03  0.00000000000E+00 0. -1.
         -3    1    3    3    0  502  0.16109747708E+03  0.15355862515E+03 -0.42879575591E+02  0.22665239130E+03  0.00000000000E+00 0.  1.
         13    1    5    5    0    0 -0.13668176893E+03 -0.13455348183E+03 -0.32005011771E+03  0.37312011910E+03  0.00000000000E+00 0. -1.
        -13    1    5    5    0    0 -0.26998178961E+03 -0.24411347688E+03 -0.39465844211E+03  0.53687693399E+03  0.00000000000E+00 0.  1.
          2    1    6    6  503    0 -0.39444002558E+02 -0.92358716446E+02  0.12247161646E+03  0.15838326515E+03  0.00000000000E+00 0. -1.
         -2    1    6    6    0  503 -0.33215900482E+02 -0.20261089751E+01  0.14283868629E+03  0.14666387239E+03  0.00000000000E+00 0.  1.
<mgrwt>
<rscale>  0 0.18356096E+04</rscale>
<asrwt>0</asrwt>
<pdfrwt beam="1">  1        2 0.18138821E+00 0.18356096E+04</pdfrwt>
<pdfrwt beam="2">  1       -1 0.10991700E+00 0.18356096E+04</pdfrwt>
<totfact> 0.16004108E+01</totfact>
</mgrwt>
</event>
<event>
12    7  0.1661464E-007  0.1447889E+04  0.7818608E-02  0.8919865E-01
         -1   -1    0    0    0  501 -0.00000000000E+00  0.00000000000E+00  0.19041303221E+03  0.19041303221E+03  0.00000000000E+00 0.  1.
          2   -1    0    0  501    0  0.00000000000E+00 -0.00000000000E+00 -0.27524146035E+04  0.27524146035E+04  0.00000000000E+00 0. -1.
         24    2    1    2    0    0 -0.35624015952E+02  0.31335191988E+02 -0.17239652082E+04  0.17265700436E+04  0.82079908846E+02 0.  0.
        254    2    1    2    0    0  0.35624015952E+02 -0.31335191988E+02 -0.83803636313E+03  0.12162575922E+04  0.88018555992E+03 0.  0.
         23    2    4    4    0    0  0.11503386827E+03 -0.39041165376E+03 -0.69643973419E+03  0.81178137826E+03  0.91140838761E+02 0.  0.
         23    2    4    4    0    0 -0.79409852315E+02  0.35907646177E+03 -0.14159662894E+03  0.40447621394E+03  0.91156855328E+02 0.  0.
          2    1    3    3  502    0 -0.26540049228E+02  0.25841060795E+02 -0.16994650882E+04  0.16998687363E+04  0.00000000000E+00 0. -1.
         -1    1    3    3    0  502 -0.90839667237E+01  0.54941311924E+01 -0.24500120003E+02  0.26701307256E+02  0.00000000000E+00 0.  1.
         13    1    5    5    0    0  0.86290919734E+02 -0.14199001205E+03 -0.25288608090E+03  0.30258660952E+03  0.00000000000E+00 0. -1.
        -13    1    5    5    0    0  0.28742948534E+02 -0.24842164171E+03 -0.44355365329E+03  0.50919476874E+03  0.00000000000E+00 0.  1.
          4    1    6    6  503    0 -0.84687594290E+02  0.35724303807E+03 -0.14811175443E+03  0.39589350674E+03  0.00000000000E+00 0. -1.
         -4    1    6    6    0  503  0.52777419745E+01  0.18334236980E+01  0.65151254863E+01  0.85827072016E+01  0.00000000000E+00 0.  1.
<mgrwt>
<rscale>  0 0.14478890E+04</rscale>
<asrwt>0</asrwt>
<pdfrwt beam="1">  1        2 0.42344836E+00 0.14478890E+04</pdfrwt>
<pdfrwt beam="2">  1       -1 0.29294315E-01 0.14478890E+04</pdfrwt>
<totfact> 0.29191674E+01</totfact>
</mgrwt>
</event>
<event>
12    7  0.1661464E-007  0.1950844E+04  0.7818608E-02  0.8629954E-01
          2   -1    0    0  501    0  0.00000000000E+00  0.00000000000E+00  0.15025309005E+04  0.15025309005E+04  0.00000000000E+00 0. -1.
         -1   -1    0    0    0  501 -0.00000000000E+00 -0.00000000000E+00 -0.63323041657E+03  0.63323041657E+03  0.00000000000E+00 0.  1.
         24    2    1    2    0    0  0.36199182332E+03 -0.46300147945E+03 -0.19287553397E+03  0.62356582749E+03  0.78898159004E+02 0.  0.
        254    2    1    2    0    0 -0.36199182332E+03  0.46300147945E+03  0.10621760179E+04  0.15121954896E+04  0.90172548794E+03 0.  0.
         23    2    4    4    0    0 -0.61759604928E+03  0.26945873092E+03  0.45026348682E+03  0.81532076020E+03  0.89318792495E+02 0.  0.
         23    2    4    4    0    0  0.25560422596E+03  0.19354274853E+03  0.61191253113E+03  0.69687472942E+03  0.91679479254E+02 0.  0.
          4    1    3    3  502    0  0.14014513540E+03 -0.13527380062E+03 -0.90533920080E+02  0.21479304178E+03  0.00000000000E+00 0. -1.
         -3    1    3    3    0  502  0.22184668792E+03 -0.32772767883E+03 -0.10234161389E+03  0.40877278572E+03  0.00000000000E+00 0.  1.
         13    1    5    5    0    0 -0.69965515932E+02  0.10233424559E+02  0.24639748223E+02  0.74879994593E+02  0.00000000000E+00 0. -1.
        -13    1    5    5    0    0 -0.54763053335E+03  0.25922530636E+03  0.42562373860E+03  0.74044076561E+03  0.00000000000E+00 0.  1.
          1    1    6    6  503    0  0.16188286354E+03  0.92444388717E+02  0.26892654975E+03  0.32722089737E+03  0.00000000000E+00 0. -1.
         -1    1    6    6    0  503  0.93721362425E+02  0.10109835981E+03  0.34298598137E+03  0.36965383205E+03  0.00000000000E+00 0.  1.
<mgrwt>
<rscale>  0 0.19508442E+04</rscale>
<asrwt>0</asrwt>
<pdfrwt beam="1">  1        2 0.23115860E+00 0.19508442E+04</pdfrwt>
<pdfrwt beam="2">  1       -1 0.97420064E-01 0.19508442E+04</pdfrwt>
<totfact> 0.13602647E+01</totfact>
</mgrwt>
</event>
<event>
12    7  0.1661464E-007  0.1895954E+04  0.7818608E-02  0.8656873E-01
         -1   -1    0    0    0  501 -0.00000000000E+00  0.00000000000E+00  0.28877278265E+03  0.28877278265E+03  0.00000000000E+00 0.  1.
          2   -1    0    0  501    0  0.00000000000E+00 -0.00000000000E+00 -0.31119983878E+04  0.31119983878E+04  0.00000000000E+00 0. -1.
         24    2    1    2    0    0  0.28726215608E+03  0.18427752589E+03 -0.22494221737E+04  0.22766080604E+04  0.81033278047E+02 0.  0.
        254    2    1    2    0    0 -0.28726215608E+03 -0.18427752589E+03 -0.57380343138E+03  0.11241631100E+04  0.90444157754E+03 0.  0.
         23    2    4    4    0    0  0.57629716681E+02 -0.48718673783E+03 -0.30471004925E+03  0.58469962532E+03  0.91396586216E+02 0.  0.
         23    2    4    4    0    0 -0.34489187276E+03  0.30290921193E+03 -0.26909338212E+03  0.53946348469E+03  0.88911239113E+02 0.  0.
          4    1    3    3  502    0  0.29243486143E+03  0.17740918415E+03 -0.21835509247E+04  0.22101780036E+04  0.00000000000E+00 0. -1.
         -3    1    3    3    0  502 -0.51727053527E+01  0.68683417483E+01 -0.65871249006E+02  0.66430056787E+02  0.00000000000E+00 0.  1.
         13    1    5    5    0    0 -0.15444778184E+02 -0.16446020782E+02 -0.16062019803E+02  0.27694787467E+02  0.00000000000E+00 0. -1.
        -13    1    5    5    0    0  0.73074494865E+02 -0.47074071704E+03 -0.28864802945E+03  0.55700483785E+03  0.00000000000E+00 0.  1.
          1    1    6    6  503    0 -0.13108189533E+03  0.13204611400E+03 -0.15794735385E+03  0.24406148015E+03  0.00000000000E+00 0. -1.
         -1    1    6    6    0  503 -0.21380997743E+03  0.17086309794E+03 -0.11114602828E+03  0.29540200455E+03  0.00000000000E+00 0.  1.
<mgrwt>
<rscale>  0 0.18959540E+04</rscale>
<asrwt>0</asrwt>
<pdfrwt beam="1">  1        2 0.47876892E+00 0.18959540E+04</pdfrwt>
<pdfrwt beam="2">  1       -1 0.44426588E-01 0.18959540E+04</pdfrwt>
<totfact> 0.79394141E+00</totfact>
</mgrwt>
</event>
<event>
12    7  0.1661464E-007  0.1559564E+04  0.7818608E-02  0.8845782E-01
         -1   -1    0    0    0  501 -0.00000000000E+00  0.00000000000E+00  0.36063256169E+03  0.36063256169E+03  0.00000000000E+00 0.  1.
          2   -1    0    0  501    0  0.00000000000E+00 -0.00000000000E+00 -0.16860920715E+04  0.16860920715E+04  0.00000000000E+00 0. -1.
         24    2    1    2    0    0 -0.38211298951E+03 -0.73431055281E+02 -0.89573348192E+03  0.98004421789E+03  0.82132464699E+02 0.  0.
        254    2    1    2    0    0  0.38211298951E+03  0.73431055281E+02 -0.42972602787E+03  0.10666804153E+04  0.89539945984E+03 0.  0.
         23    2    4    4    0    0  0.60732507034E+03 -0.12349790530E+03 -0.14277629447E+03  0.64259431561E+03  0.91907075431E+02 0.  0.
         23    2    4    4    0    0 -0.22521208083E+03  0.19692896058E+03 -0.28694973340E+03  0.42408609968E+03  0.89483929155E+02 0.  0.
          4    1    3    3  502    0 -0.22627457287E+03 -0.54357430115E+02 -0.62722301051E+03  0.66900195623E+03  0.00000000000E+00 0. -1.
         -1    1    3    3    0  502 -0.15583841664E+03 -0.19073625166E+02 -0.26851047141E+03  0.31104226165E+03  0.00000000000E+00 0.  1.
         13    1    5    5    0    0  0.51121757710E+03 -0.69063387881E+02 -0.12402525311E+03  0.53056142537E+03  0.00000000000E+00 0.  1.
        -13    1    5    5    0    0  0.96107493239E+02 -0.54434517417E+02 -0.18751041364E+02  0.11203289024E+03  0.00000000000E+00 0. -1.
          4    1    6    6  503    0 -0.18502305816E+03  0.13949778830E+03 -0.16870597142E+03  0.28662670808E+03  0.00000000000E+00 0.  1.
         -4    1    6    6    0  503 -0.40189022668E+02  0.57431172284E+02 -0.11824376197E+03  0.13745939160E+03  0.00000000000E+00 0. -1.
<mgrwt>
<rscale>  0 0.15595637E+04</rscale>
<asrwt>0</asrwt>
<pdfrwt beam="1">  1        2 0.25939878E+00 0.15595637E+04</pdfrwt>
<pdfrwt beam="2">  1       -1 0.55481933E-01 0.15595637E+04</pdfrwt>
<totfact> 0.35934499E+01</totfact>
</mgrwt>
</event>
<event>
12    7  0.1661464E-007  0.1566137E+04  0.7818608E-02  0.8841626E-01
          2   -1    0    0  501    0  0.00000000000E+00  0.00000000000E+00  0.63293688896E+03  0.63293688896E+03  0.00000000000E+00 0. -1.
         -1   -1    0    0    0  501 -0.00000000000E+00 -0.00000000000E+00 -0.96881083186E+03  0.96881083186E+03  0.00000000000E+00 0.  1.
         24    2    1    2    0    0  0.22878788184E+02  0.23485318108E+03 -0.58362546862E+03  0.63590992743E+03  0.89907133061E+02 0.  0.
        254    2    1    2    0    0 -0.22878788184E+02 -0.23485318108E+03  0.24775152572E+03  0.96583779339E+03  0.90320671445E+03 0.  0.
         23    2    4    4    0    0  0.28337972008E+03 -0.11133517992E+03  0.46189510008E+03  0.56093712014E+03  0.92756569765E+02 0.  0.
         23    2    4    4    0    0 -0.30625850827E+03 -0.12351800116E+03 -0.21414357436E+03  0.40490067325E+03  0.95058478106E+02 0.  0.
          2    1    3    3  502    0 -0.45807275249E+01  0.49928530320E+02 -0.23532615440E+03  0.24060806335E+03  0.00000000000E+00 0. -1.
         -1    1    3    3    0  502  0.27459515709E+02  0.18492465076E+03 -0.34829931422E+03  0.39530186408E+03  0.00000000000E+00 0.  1.
         13    1    5    5    0    0  0.10353450942E+03 -0.29198428227E+02  0.92134896977E+02  0.14163609036E+03  0.00000000000E+00 0. -1.
        -13    1    5    5    0    0  0.17984521066E+03 -0.82136751692E+02  0.36976020310E+03  0.41930102978E+03  0.00000000000E+00 0.  1.
          3    1    6    6  503    0 -0.25310106442E+03 -0.69116619571E+02 -0.13473557099E+03  0.29494224858E+03  0.00000000000E+00 0. -1.
         -3    1    6    6    0  503 -0.53157443852E+02 -0.54401381593E+02 -0.79408003363E+02  0.10995842466E+03  0.00000000000E+00 0.  1.
<mgrwt>
<rscale>  0 0.15661368E+04</rscale>
<asrwt>0</asrwt>
<pdfrwt beam="1">  1        2 0.97374907E-01 0.15661368E+04</pdfrwt>
<pdfrwt beam="2">  1       -1 0.14904782E+00 0.15661368E+04</pdfrwt>
<totfact> 0.18115083E+01</totfact>
</mgrwt>
</event>
<event>
12    7  0.1661464E-007  0.2329366E+04  0.7818608E-02  0.8466432E-01
         -1   -1    0    0    0  501 -0.00000000000E+00  0.00000000000E+00  0.79762010544E+03  0.79762010544E+03  0.00000000000E+00 0.  1.
          2   -1    0    0  501    0  0.00000000000E+00 -0.00000000000E+00 -0.17006675298E+04  0.17006675298E+04  0.00000000000E+00 0. -1.
         24    2    1    2    0    0  0.19345085301E+03 -0.57788034548E+03 -0.12215085852E+04  0.13673800526E+04  0.79221576292E+02 0.  0.
        254    2    1    2    0    0 -0.19345085301E+03  0.57788034548E+03  0.31846116092E+03  0.11309075826E+04  0.89786720800E+03 0.  0.
         23    2    4    4    0    0  0.26435501032E+03  0.17997877736E+03  0.39070558960E+03  0.51314264733E+03  0.91589229629E+02 0.  0.
         23    2    4    4    0    0 -0.45780586333E+03  0.39790156812E+03 -0.72244428688E+02  0.61776493529E+03  0.92208412762E+02 0.  0.
          2    1    3    3  502    0  0.16617149773E+03 -0.51853955274E+03 -0.11362215339E+04  0.12599585741E+04  0.00000000000E+00 0. -1.
         -1    1    3    3    0  502  0.27279355278E+02 -0.59340792735E+02 -0.85287051368E+02  0.10742147848E+03  0.00000000000E+00 0.  1.
         13    1    5    5    0    0  0.25679914012E+02  0.30109670344E+02  0.12541971207E+02  0.41513266237E+02  0.00000000000E+00 0. -1.
        -13    1    5    5    0    0  0.23867509631E+03  0.14986910701E+03  0.37816361840E+03  0.47162938110E+03  0.00000000000E+00 0.  1.
          4    1    6    6  503    0 -0.14926832113E+03  0.16641685922E+03  0.83747665731E+01  0.22370905087E+03  0.00000000000E+00 0. -1.
         -4    1    6    6    0  503 -0.30853754220E+03  0.23148470890E+03 -0.80619195261E+02  0.39405588442E+03  0.00000000000E+00 0.  1.
<mgrwt>
<rscale>  0 0.23293661E+04</rscale>
<asrwt>0</asrwt>
<pdfrwt beam="1">  1        2 0.26164116E+00 0.23293661E+04</pdfrwt>
<pdfrwt beam="2">  1       -1 0.12271079E+00 0.23293661E+04</pdfrwt>
<totfact> 0.59124733E+00</totfact>
</mgrwt>
</event>
<event>
12    7  0.1661464E-007  0.1914047E+04  0.7818608E-02  0.8647896E-01
          2   -1    0    0  501    0  0.00000000000E+00  0.00000000000E+00  0.54953096240E+03  0.54953096240E+03  0.00000000000E+00 0. -1.
         -1   -1    0    0    0  501 -0.00000000000E+00 -0.00000000000E+00 -0.16666824960E+04  0.16666824960E+04  0.00000000000E+00 0.  1.
         24    2    1    2    0    0 -0.93005610896E+02  0.25350678118E+03  0.33797975688E+03  0.44000411076E+03  0.80359004825E+02 0.  0.
        254    2    1    2    0    0  0.93005610896E+02 -0.25350678118E+03 -0.14551312905E+04  0.17762093476E+04  0.98213891193E+03 0.  0.
         23    2    4    4    0    0  0.42873674741E+02 -0.19497344930E+02 -0.15103873603E+04  0.15138580955E+04  0.90983827283E+02 0.  0.
         23    2    4    4    0    0  0.50131936155E+02 -0.23400943625E+03  0.55256069779E+02  0.26235125214E+03  0.92202597437E+02 0.  0.
          4    1    3    3  502    0 -0.17470371357E+02  0.13249677156E+03  0.20669131329E+03  0.24613392156E+03  0.00000000000E+00 0. -1.
         -3    1    3    3    0  502 -0.75535239539E+02  0.12101000962E+03  0.13128844359E+03  0.19387018920E+03  0.00000000000E+00 0.  1.
         13    1    5    5    0    0 -0.26095285393E+02  0.73189849180E+01 -0.52297927895E+03  0.52368106484E+03  0.00000000000E+00 0.  1.
        -13    1    5    5    0    0  0.68968960134E+02 -0.26816329848E+02 -0.98740808130E+03  0.99017703065E+03  0.00000000000E+00 0. -1.
          2    1    6    6  503    0 -0.79085772671E+01 -0.64115209922E+02  0.51765212028E+02  0.82782503671E+02  0.00000000000E+00 0. -1.
         -2    1    6    6    0  503  0.58040513422E+02 -0.16989422633E+03  0.34908577502E+01  0.17956874847E+03  0.00000000000E+00 0.  1.
<mgrwt>
<rscale>  0 0.19140466E+04</rscale>
<asrwt>0</asrwt>
<pdfrwt beam="1">  1        2 0.84543227E-01 0.19140466E+04</pdfrwt>
<pdfrwt beam="2">  1       -1 0.25641269E+00 0.19140466E+04</pdfrwt>
<totfact> 0.37290618E+00</totfact>
</mgrwt>
</event>
<event>
12    7  0.1661464E-007  0.1451305E+04  0.7818608E-02  0.8917496E-01
         -1   -1    0    0    0  501 -0.00000000000E+00  0.00000000000E+00  0.38253000375E+03  0.38253000375E+03  0.00000000000E+00 0.  1.
          2   -1    0    0  501    0  0.00000000000E+00 -0.00000000000E+00 -0.13765493190E+04  0.13765493190E+04  0.00000000000E+00 0. -1.
         24    2    1    2    0    0 -0.32207669938E+03  0.20572633872E+03 -0.82027874003E+02  0.39926307586E+03  0.81398433079E+02 0.  0.
        254    2    1    2    0    0  0.32207669938E+03 -0.20572633872E+03 -0.91199144122E+03  0.13598162468E+04  0.93344261185E+03 0.  0.
         23    2    4    4    0    0 -0.21123898622E+03  0.12654974471E+03 -0.59286523920E+03  0.64927041639E+03  0.97088282304E+02 0.  0.
         23    2    4    4    0    0  0.53331568560E+03 -0.33227608343E+03 -0.31912620201E+03  0.71054583045E+03  0.90558424412E+02 0.  0.
          2    1    3    3  502    0 -0.28802853883E+03  0.16039724493E+03 -0.90662148956E+02  0.34191715460E+03  0.00000000000E+00 0. -1.
         -1    1    3    3    0  502 -0.34048160554E+02  0.45329093794E+02  0.86342749526E+01  0.57345921261E+02  0.00000000000E+00 0.  1.
         13    1    5    5    0    0 -0.14528294322E+02  0.51989965205E+02 -0.13489719343E+03  0.14529721475E+03  0.00000000000E+00 0.  1.
        -13    1    5    5    0    0 -0.19671069190E+03  0.74559779506E+02 -0.45796804577E+03  0.50397320164E+03  0.00000000000E+00 0. -1.
          4    1    6    6  503    0  0.47975643358E+03 -0.32592615955E+03 -0.28088755896E+03  0.64443146867E+03  0.00000000000E+00 0.  1.
         -4    1    6    6    0  503  0.53559252027E+02 -0.63499238785E+01 -0.38238643052E+02  0.66114361779E+02  0.00000000000E+00 0. -1.
<mgrwt>
<rscale>  0 0.14513048E+04</rscale>
<asrwt>0</asrwt>
<pdfrwt beam="1">  1        2 0.21177682E+00 0.14513048E+04</pdfrwt>
<pdfrwt beam="2">  1       -1 0.58850770E-01 0.14513048E+04</pdfrwt>
<totfact> 0.48272367E+01</totfact>
</mgrwt>
</event>
<event>
12    7  0.1661464E-007  0.3021978E+04  0.7818608E-02  0.8237483E-01
         -1   -1    0    0    0  501 -0.00000000000E+00  0.00000000000E+00  0.76637430466E+03  0.76637430466E+03  0.00000000000E+00 0.  1.
          2   -1    0    0  501    0  0.00000000000E+00 -0.00000000000E+00 -0.29790758753E+04  0.29790758753E+04  0.00000000000E+00 0. -1.
         24    2    1    2    0    0  0.51683068509E+02 -0.63200669552E+03  0.50499579755E+03  0.81513777008E+03  0.85587533698E+02 0.  0.
        254    2    1    2    0    0 -0.51683068509E+02  0.63200669552E+03 -0.27176973682E+04  0.29303124098E+04  0.89372715723E+03 0.  0.
         23    2    4    4    0    0  0.17101760667E+03  0.78495771411E+03 -0.20217490686E+04  0.21774635154E+04  0.92045804105E+02 0.  0.
         23    2    4    4    0    0 -0.22270067518E+03 -0.15295101859E+03 -0.69594829959E+03  0.75284889440E+03  0.97199883143E+02 0.  0.
          4    1    3    3  502    0  0.55359236488E+02 -0.20509287963E+03  0.15268849768E+03  0.26161328648E+03  0.00000000000E+00 0. -1.
         -3    1    3    3    0  502 -0.36761679790E+01 -0.42691381589E+03  0.35230729987E+03  0.55352448361E+03  0.00000000000E+00 0.  1.
         13    1    5    5    0    0  0.11354092682E+03  0.48496891847E+03 -0.11316134284E+04  0.12363799356E+04  0.00000000000E+00 0. -1.
        -13    1    5    5    0    0  0.57476679853E+02  0.29998879564E+03 -0.89013564020E+03  0.94108357982E+03  0.00000000000E+00 0.  1.
          4    1    6    6  503    0 -0.12282218744E+03 -0.45847335624E+02 -0.42623849237E+03  0.44594452602E+03  0.00000000000E+00 0. -1.
         -4    1    6    6    0  503 -0.99878487742E+02 -0.10710368297E+03 -0.26970980722E+03  0.30690436838E+03  0.00000000000E+00 0.  1.
<mgrwt>
<rscale>  0 0.30219776E+04</rscale>
<asrwt>0</asrwt>
<pdfrwt beam="1">  1        2 0.45831937E+00 0.30219776E+04</pdfrwt>
<pdfrwt beam="2">  1       -1 0.11790374E+00 0.30219776E+04</pdfrwt>
<totfact> 0.11252807E+00</totfact>
</mgrwt>
</event>
<event>
12    7  0.1661464E-007  0.3106766E+04  0.7818608E-02  0.8213883E-01
          2   -1    0    0  501    0  0.00000000000E+00  0.00000000000E+00  0.27952877185E+04  0.27952877185E+04  0.00000000000E+00 0. -1.
         -1   -1    0    0    0  501 -0.00000000000E+00 -0.00000000000E+00 -0.86323829438E+03  0.86323829438E+03  0.00000000000E+00 0.  1.
         24    2    1    2    0    0  0.28818838338E+02 -0.11570260739E+04  0.18651152769E+04  0.21965006155E+04  0.80125504481E+02 0.  0.
        254    2    1    2    0    0 -0.28818838338E+02  0.11570260739E+04  0.66934147211E+02  0.14620253974E+04  0.89078517123E+03 0.  0.
         23    2    4    4    0    0 -0.97165705810E+02  0.12355604612E+04 -0.97939308418E+02  0.12464522753E+04  0.89444613232E+02 0.  0.
         23    2    4    4    0    0  0.68346867472E+02 -0.78534387251E+02  0.16487345563E+03  0.21557312207E+03  0.91921544338E+02 0.  0.
          4    1    3    3  502    0  0.21678262960E+02 -0.10911623751E+04  0.17887089094E+04  0.20953722434E+04  0.00000000000E+00 0. -1.
         -3    1    3    3    0  502  0.71405753779E+01 -0.65863698860E+02  0.76406367514E+02  0.10112837209E+03  0.00000000000E+00 0.  1.
         13    1    5    5    0    0 -0.57451379762E+02  0.38984844187E+03  0.88682814490E+00  0.39405996387E+03  0.00000000000E+00 0.  1.
        -13    1    5    5    0    0 -0.39714326048E+02  0.84571201933E+03 -0.98826136563E+02  0.85239231144E+03  0.00000000000E+00 0. -1.
          1    1    6    6  503    0 -0.22804092299E+02 -0.20825747848E+02  0.33085044245E+02  0.45258795297E+02  0.00000000000E+00 0. -1.
         -1    1    6    6    0  503  0.91150959770E+02 -0.57708639402E+02  0.13178841138E+03  0.17031432677E+03  0.00000000000E+00 0.  1.
<mgrwt>
<rscale>  0 0.31067664E+04</rscale>
<asrwt>0</asrwt>
<pdfrwt beam="1">  1        2 0.43004426E+00 0.31067664E+04</pdfrwt>
<pdfrwt beam="2">  1       -1 0.13280589E+00 0.31067664E+04</pdfrwt>
<totfact> 0.10774740E+00</totfact>
</mgrwt>
</event>
<event>
12    7  0.1661464E-007  0.2240638E+04  0.7818608E-02  0.8501702E-01
          2   -1    0    0  501    0  0.00000000000E+00  0.00000000000E+00  0.17001189620E+04  0.17001189620E+04  0.00000000000E+00 0. -1.
         -1   -1    0    0    0  501 -0.00000000000E+00 -0.00000000000E+00 -0.73825081953E+03  0.73825081953E+03  0.00000000000E+00 0.  1.
         24    2    1    2    0    0 -0.38705302832E+03  0.28052204331E+03 -0.47464030951E+03  0.67828723752E+03  0.79293692375E+02 0.  0.
        254    2    1    2    0    0  0.38705302832E+03 -0.28052204331E+03  0.14365084520E+04  0.17600825440E+04  0.89768110462E+03 0.  0.
         23    2    4    4    0    0  0.16931122678E+03  0.30420648984E+03  0.34212900191E+03  0.49648921898E+03  0.90782215471E+02 0.  0.
         23    2    4    4    0    0  0.21774180155E+03 -0.58472853314E+03  0.10943794501E+04  0.12635933250E+04  0.98401019823E+02 0.  0.
          2    1    3    3  502    0 -0.27111986932E+03  0.14959213518E+03 -0.30628897585E+03  0.43554187764E+03  0.00000000000E+00 0. -1.
         -3    1    3    3    0  502 -0.11593315901E+03  0.13092990813E+03 -0.16835133366E+03  0.24274535988E+03  0.00000000000E+00 0.  1.
         13    1    5    5    0    0  0.17664211756E+03  0.25627370301E+03  0.29872495576E+03  0.43141076452E+03  0.00000000000E+00 0. -1.
        -13    1    5    5    0    0 -0.73308907864E+01  0.47932786826E+02  0.43404046149E+02  0.65078454459E+02  0.00000000000E+00 0.  1.
          4    1    6    6  503    0  0.22055827028E+03 -0.58617510543E+03  0.10764646520E+04  0.12454008800E+04  0.00000000000E+00 0. -1.
         -4    1    6    6    0  503 -0.28164687305E+01  0.14465722852E+01  0.17914798053E+02  0.18192445047E+02  0.00000000000E+00 0.  1.
<mgrwt>
<rscale>  0 0.22406376E+04</rscale>
<asrwt>0</asrwt>
<pdfrwt beam="1">  1        2 0.26155676E+00 0.22406376E+04</pdfrwt>
<pdfrwt beam="2">  1       -1 0.11357705E+00 0.22406376E+04</pdfrwt>
<totfact> 0.71935858E+00</totfact>
</mgrwt>
</event>
<event>
12    7  0.1661464E-007  0.1950347E+04  0.7818608E-02  0.8630193E-01
         -1   -1    0    0    0  501 -0.00000000000E+00  0.00000000000E+00  0.41443101164E+03  0.41443101164E+03  0.00000000000E+00 0.  1.
          2   -1    0    0  501    0  0.00000000000E+00 -0.00000000000E+00 -0.22946244264E+04  0.22946244264E+04  0.00000000000E+00 0. -1.
         24    2    1    2    0    0  0.18898533682E+03 -0.63784282851E+03 -0.12669720903E+04  0.14332185785E+04  0.79613345875E+02 0.  0.
        254    2    1    2    0    0 -0.18898533682E+03  0.63784282851E+03 -0.61322132452E+03  0.12758368596E+04  0.89953341682E+03 0.  0.
         23    2    4    4    0    0 -0.38773388038E+03  0.18407822925E+03 -0.63486037448E+03  0.77181224075E+03  0.91782805646E+02 0.  0.
         23    2    4    4    0    0  0.19874854356E+03  0.45376459926E+03  0.21639049957E+02  0.50402461882E+03  0.90384029465E+02 0.  0.
          4    1    3    3  502    0  0.11927431662E+03 -0.51199810128E+03 -0.97325928624E+03  0.11061654743E+04  0.00000000000E+00 0. -1.
         -3    1    3    3    0  502  0.69711020199E+02 -0.12584472723E+03 -0.29371280405E+03  0.32705310420E+03  0.00000000000E+00 0.  1.
         13    1    5    5    0    0 -0.31302983303E+03  0.13843320544E+03 -0.43418804927E+03  0.55287493239E+03  0.00000000000E+00 0.  1.
        -13    1    5    5    0    0 -0.74704047356E+02  0.45645023810E+02 -0.20067232521E+03  0.21893730836E+03  0.00000000000E+00 0. -1.
          2    1    6    6  503    0  0.16470615315E+03  0.40594785178E+03  0.45950794864E+02  0.44049205532E+03  0.00000000000E+00 0. -1.
         -2    1    6    6    0  503  0.34042390407E+02  0.47816747480E+02 -0.24311744907E+02  0.63532563498E+02  0.00000000000E+00 0.  1.
<mgrwt>
<rscale>  0 0.19503472E+04</rscale>
<asrwt>0</asrwt>
<pdfrwt beam="1">  1        2 0.35301913E+00 0.19503472E+04</pdfrwt>
<pdfrwt beam="2">  1       -1 0.63758619E-01 0.19503472E+04</pdfrwt>
<totfact> 0.12098529E+01</totfact>
</mgrwt>
</event>
<event>
12    7  0.1661464E-007  0.2371543E+04  0.7818608E-02  0.8450235E-01
          2   -1    0    0  501    0  0.00000000000E+00  0.00000000000E+00  0.96411830263E+03  0.96411830263E+03  0.00000000000E+00 0. -1.
         -1   -1    0    0    0  501 -0.00000000000E+00 -0.00000000000E+00 -0.14583830588E+04  0.14583830588E+04  0.00000000000E+00 0.  1.
         24    2    1    2    0    0  0.88132200862E+01 -0.11469730008E+03 -0.12417887495E+04  0.12495717805E+04  0.78467781250E+02 0.  0.
        254    2    1    2    0    0 -0.88132200862E+01  0.11469730008E+03  0.74752399331E+03  0.11729295810E+04  0.89651466127E+03 0.  0.
         23    2    4    4    0    0 -0.50851624974E+02 -0.14090137900E+03 -0.15208464106E+03  0.23237982027E+03  0.91823507097E+02 0.  0.
         23    2    4    4    0    0  0.42038404888E+02  0.25559867909E+03  0.89960863437E+03  0.94054976071E+03  0.90775795731E+02 0.  0.
          2    1    3    3  502    0  0.28066156344E+02 -0.82135409153E+02 -0.55540778374E+03  0.56214921579E+03  0.00000000000E+00 0. -1.
         -1    1    3    3    0  502 -0.19252936258E+02 -0.32561890931E+02 -0.68638096573E+03  0.68742256467E+03  0.00000000000E+00 0.  1.
         13    1    5    5    0    0 -0.74272069541E+02 -0.11006581080E+03 -0.94454098027E+02  0.16294907074E+03  0.00000000000E+00 0. -1.
        -13    1    5    5    0    0  0.23420444567E+02 -0.30835568203E+02 -0.57630543038E+02  0.69430749535E+02  0.00000000000E+00 0.  1.
          1    1    6    6  503    0  0.44926355098E+02  0.26217923960E+03  0.85677472790E+03  0.89711719715E+03  0.00000000000E+00 0. -1.
         -1    1    6    6    0  503 -0.28879502097E+01 -0.65805605138E+01  0.42833906473E+02  0.43432563553E+02  0.00000000000E+00 0.  1.
<mgrwt>
<rscale>  0 0.23715428E+04</rscale>
<asrwt>0</asrwt>
<pdfrwt beam="1">  1        2 0.14832589E+00 0.23715428E+04</pdfrwt>
<pdfrwt beam="2">  1       -1 0.22436663E+00 0.23715428E+04</pdfrwt>
<totfact> 0.28104773E+00</totfact>
</mgrwt>
</event>
<event>
12    7  0.1661464E-007  0.1855863E+04  0.7818608E-02  0.8677144E-01
         -1   -1    0    0    0  501 -0.00000000000E+00  0.00000000000E+00  0.60173018165E+03  0.60173018165E+03  0.00000000000E+00 0.  1.
          2   -1    0    0  501    0  0.00000000000E+00 -0.00000000000E+00 -0.14309679185E+04  0.14309679185E+04  0.00000000000E+00 0. -1.
         24    2    1    2    0    0  0.14081673416E+03 -0.54728784042E+03 -0.78132202984E+03  0.96784895378E+03  0.83151368788E+02 0.  0.
        254    2    1    2    0    0 -0.14081673416E+03  0.54728784042E+03 -0.47915707009E+02  0.10648491464E+04  0.90125160564E+03 0.  0.
         23    2    4    4    0    0  0.36353803470E+03  0.29766843902E+03  0.67714279921E+02  0.48323074476E+03  0.90334526692E+02 0.  0.
         23    2    4    4    0    0 -0.50435476886E+03  0.24961940140E+03 -0.11562998693E+03  0.58161840162E+03  0.90697810282E+02 0.  0.
          4    1    3    3  502    0  0.13318376449E+03 -0.36743121560E+03 -0.51888272967E+03  0.64960210935E+03  0.00000000000E+00 0. -1.
         -3    1    3    3    0  502  0.76329696721E+01 -0.17985662482E+03 -0.26243930017E+03  0.31824684444E+03  0.00000000000E+00 0.  1.
         13    1    5    5    0    0  0.35733243843E+03  0.28652315045E+03  0.49070795112E+02  0.46064078221E+03  0.00000000000E+00 0.  1.
        -13    1    5    5    0    0  0.62055962752E+01  0.11145288562E+02  0.18643484810E+02  0.22589962552E+02  0.00000000000E+00 0. -1.
          1    1    6    6  503    0 -0.40885190456E+02  0.33783452012E+02  0.12615670052E+02  0.54516745678E+02  0.00000000000E+00 0. -1.
         -1    1    6    6    0  503 -0.46346957841E+03  0.21583594939E+03 -0.12824565698E+03  0.52710165594E+03  0.00000000000E+00 0.  1.
<mgrwt>
<rscale>  0 0.18558627E+04</rscale>
<asrwt>0</asrwt>
<pdfrwt beam="1">  1        2 0.22014891E+00 0.18558627E+04</pdfrwt>
<pdfrwt beam="2">  1       -1 0.92573875E-01 0.18558627E+04</pdfrwt>
<totfact> 0.16883922E+01</totfact>
</mgrwt>
</event>
<event>
12    7  0.1661464E-007  0.1657698E+04  0.7818608E-02  0.8785866E-01
          2   -1    0    0  501    0  0.00000000000E+00  0.00000000000E+00  0.34756584034E+04  0.34756584034E+04  0.00000000000E+00 0. -1.
         -1   -1    0    0    0  501 -0.00000000000E+00 -0.00000000000E+00 -0.19765762388E+03  0.19765762388E+03  0.00000000000E+00 0.  1.
         24    2    1    2    0    0  0.48618005097E+03 -0.24900494387E+03  0.80855921905E+03  0.97900090918E+03  0.79374211398E+02 0.  0.
        254    2    1    2    0    0 -0.48618005097E+03  0.24900494387E+03  0.24694415605E+04  0.26943151181E+04  0.92887987973E+03 0.  0.
         23    2    4    4    0    0 -0.35677466597E+03  0.15019800580E+02  0.23676282735E+04  0.23961788943E+04  0.92173181629E+02 0.  0.
         23    2    4    4    0    0 -0.12940538501E+03  0.23398514329E+03  0.10181328705E+03  0.29813622385E+03  0.83812061213E+02 0.  0.
          4    1    3    3  502    0  0.12872904093E+03 -0.61758094688E+02  0.27695164492E+03  0.31158857788E+03  0.00000000000E+00 0. -1.
         -3    1    3    3    0  502  0.35745101005E+03 -0.18724684918E+03  0.53160757413E+03  0.66741233131E+03  0.00000000000E+00 0.  1.
         13    1    5    5    0    0 -0.23672802274E+03  0.19989073013E+02  0.18256517758E+04  0.18410443031E+04  0.00000000000E+00 0. -1.
        -13    1    5    5    0    0 -0.12004664323E+03 -0.49692724330E+01  0.54197649770E+03  0.55513459114E+03  0.00000000000E+00 0.  1.
          4    1    6    6  503    0 -0.69628473411E+02  0.15026469578E+03  0.20234009655E+02  0.16684429344E+03  0.00000000000E+00 0. -1.
         -4    1    6    6    0  503 -0.59776911594E+02  0.83720447512E+02  0.81579277395E+02  0.13129193041E+03  0.00000000000E+00 0.  1.
<mgrwt>
<rscale>  0 0.16576977E+04</rscale>
<asrwt>0</asrwt>
<pdfrwt beam="1">  1        2 0.53471663E+00 0.16576977E+04</pdfrwt>
<pdfrwt beam="2">  1       -1 0.30408868E-01 0.16576977E+04</pdfrwt>
<totfact> 0.92524021E+00</totfact>
</mgrwt>
</event>
<event>
12    7  0.1661464E-007  0.3903726E+04  0.7818608E-02  0.8024255E-01
         -1   -1    0    0    0  501 -0.00000000000E+00  0.00000000000E+00  0.16685641666E+04  0.16685641666E+04  0.00000000000E+00 0.  1.
          2   -1    0    0  501    0  0.00000000000E+00 -0.00000000000E+00 -0.22832625629E+04  0.22832625629E+04  0.00000000000E+00 0. -1.
         24    2    1    2    0    0  0.46334063236E+03 -0.17515897374E+04  0.21561028707E+03  0.18265038770E+04  0.82930496000E+02 0.  0.
        254    2    1    2    0    0 -0.46334063236E+03  0.17515897374E+04 -0.83030868340E+03  0.21253228525E+04  0.73812842241E+03 0.  0.
         23    2    4    4    0    0  0.56074005017E+02  0.57937661605E+03  0.10562052571E+02  0.58952657281E+03  0.92781818413E+02 0.  0.
         23    2    4    4    0    0 -0.51941463738E+03  0.11722131213E+04 -0.84087073597E+03  0.15357962797E+04  0.87928668769E+02 0.  0.
          4    1    3    3  502    0  0.34905159905E+03 -0.13332482647E+04  0.19936001050E+03  0.13925273311E+04  0.00000000000E+00 0. -1.
         -3    1    3    3    0  502  0.11428903331E+03 -0.41834147272E+03  0.16250276570E+02  0.43397654594E+03  0.00000000000E+00 0.  1.
         13    1    5    5    0    0  0.31835861037E+02  0.48724148003E+02 -0.52484147337E+00  0.58205155314E+02  0.00000000000E+00 0. -1.
        -13    1    5    5    0    0  0.24238143980E+02  0.53065246805E+03  0.11086894044E+02  0.53132141750E+03  0.00000000000E+00 0.  1.
          2    1    6    6  503    0 -0.24350742534E+02  0.11288866771E+03 -0.65291946263E+02  0.13266441952E+03  0.00000000000E+00 0. -1.
         -2    1    6    6    0  503 -0.49506389484E+03  0.10593244536E+04 -0.77557878970E+03  0.14031318602E+04  0.00000000000E+00 0.  1.
<mgrwt>
<rscale>  0 0.39037265E+04</rscale>
<asrwt>0</asrwt>
<pdfrwt beam="1">  1        2 0.35127116E+00 0.39037265E+04</pdfrwt>
<pdfrwt beam="2">  1       -1 0.25670218E+00 0.39037265E+04</pdfrwt>
<totfact> 0.26407761E-01</totfact>
</mgrwt>
</event>
<event>
12    7  0.1661464E-007  0.2118994E+04  0.7818608E-02  0.8552922E-01
          2   -1    0    0  501    0  0.00000000000E+00  0.00000000000E+00  0.15640740879E+04  0.15640740879E+04  0.00000000000E+00 0. -1.
         -1   -1    0    0    0  501 -0.00000000000E+00 -0.00000000000E+00 -0.71769857254E+03  0.71769857254E+03  0.00000000000E+00 0.  1.
         24    2    1    2    0    0 -0.25625419429E+02  0.82071772789E+03  0.48871797563E+02  0.82641466006E+03  0.79614613982E+02 0.  0.
        254    2    1    2    0    0  0.25625419429E+02 -0.82071772789E+03  0.79750371778E+03  0.14553580004E+04  0.89878833900E+03 0.  0.
         23    2    4    4    0    0 -0.89837688946E+02 -0.94030095521E+03  0.83344969503E+03  0.12632405082E+04  0.94347712170E+02 0.  0.
         23    2    4    4    0    0  0.11546310838E+03  0.11958322731E+03 -0.35945977243E+02  0.19211749212E+03  0.89359609718E+02 0.  0.
          4    1    3    3  502    0 -0.35330532130E+02  0.18771114021E+03  0.27467245872E+02  0.19297193644E+03  0.00000000000E+00 0. -1.
         -3    1    3    3    0  502  0.97051127001E+01  0.63300658768E+03  0.21404551691E+02  0.63344272361E+03  0.00000000000E+00 0.  1.
         13    1    5    5    0    0 -0.95442165803E+02 -0.53746168917E+03  0.50041299426E+03  0.74053186236E+03  0.00000000000E+00 0. -1.
        -13    1    5    5    0    0  0.56044768568E+01 -0.40283926604E+03  0.33303670077E+03  0.52270864588E+03  0.00000000000E+00 0.  1.
          2    1    6    6  503    0  0.79518243071E+02  0.21072605842E+02 -0.34543648233E+01  0.82335522919E+02  0.00000000000E+00 0. -1.
         -2    1    6    6    0  503  0.35944865304E+02  0.98510621471E+02 -0.32491612420E+02  0.10978196920E+03  0.00000000000E+00 0.  1.
<mgrwt>
<rscale>  0 0.21189939E+04</rscale>
<asrwt>0</asrwt>
<pdfrwt beam="1">  1        2 0.24062678E+00 0.21189939E+04</pdfrwt>
<pdfrwt beam="2">  1       -1 0.11041516E+00 0.21189939E+04</pdfrwt>
<totfact> 0.92612797E+00</totfact>
</mgrwt>
</event>
<event>
12    7  0.1661464E-007  0.1632651E+04  0.7818608E-02  0.8800736E-01
         -1   -1    0    0    0  501 -0.00000000000E+00  0.00000000000E+00  0.15597119861E+03  0.15597119861E+03  0.00000000000E+00 0.  1.
          2   -1    0    0  501    0  0.00000000000E+00 -0.00000000000E+00 -0.42725035265E+04  0.42725035265E+04  0.00000000000E+00 0. -1.
         24    2    1    2    0    0 -0.45759797534E+03  0.28800675378E+03 -0.18289631372E+04  0.19086151118E+04  0.73223563921E+02 0.  0.
        254    2    1    2    0    0  0.45759797534E+03 -0.28800675378E+03 -0.22875691907E+04  0.25198596133E+04  0.90795146984E+03 0.  0.
         23    2    4    4    0    0  0.10265768567E+03  0.20129901343E+03 -0.12788034124E+03  0.27522706738E+03  0.91305332310E+02 0.  0.
         23    2    4    4    0    0  0.35494028966E+03 -0.48930576721E+03 -0.21596888494E+04  0.22446325460E+04  0.93362717096E+02 0.  0.
          2    1    3    3  502    0 -0.45457958489E+03  0.28093855821E+03 -0.18198823575E+04  0.18967184471E+04  0.00000000000E+00 0. -1.
         -1    1    3    3    0  502 -0.30183904501E+01  0.70681955672E+01 -0.90807796955E+01  0.11896664632E+02  0.00000000000E+00 0.  1.
         13    1    5    5    0    0  0.57901306703E+02  0.16163874449E+03 -0.53603759236E+02  0.17986941942E+03  0.00000000000E+00 0. -1.
        -13    1    5    5    0    0  0.44756378972E+02  0.39660268943E+02 -0.74276582001E+02  0.95357647963E+02  0.00000000000E+00 0.  1.
          3    1    6    6  503    0  0.29708544941E+03 -0.40475657720E+03 -0.19064359978E+04  0.19714425847E+04  0.00000000000E+00 0. -1.
         -3    1    6    6    0  503  0.57854840257E+02 -0.84549190017E+02 -0.25325285159E+03  0.27318996123E+03  0.00000000000E+00 0.  1.
<mgrwt>
<rscale>  0 0.16326512E+04</rscale>
<asrwt>0</asrwt>
<pdfrwt beam="1">  1        2 0.65730821E+00 0.16326512E+04</pdfrwt>
<pdfrwt beam="2">  1       -1 0.23995570E-01 0.16326512E+04</pdfrwt>
<totfact> 0.33667809E+00</totfact>
</mgrwt>
</event>
<event>
12    7  0.1661464E-007  0.1574220E+04  0.7818608E-02  0.8836544E-01
          2   -1    0    0  501    0  0.00000000000E+00  0.00000000000E+00  0.27394287232E+04  0.27394287232E+04  0.00000000000E+00 0. -1.
         -1   -1    0    0    0  501 -0.00000000000E+00 -0.00000000000E+00 -0.22615740456E+03  0.22615740456E+03  0.00000000000E+00 0.  1.
         24    2    1    2    0    0 -0.50421837591E+03 -0.97677731600E+02  0.59271457229E+03  0.78916012213E+03  0.87669973804E+02 0.  0.
        254    2    1    2    0    0  0.50421837591E+03  0.97677731600E+02  0.19205567464E+04  0.21764260057E+04  0.88572841898E+03 0.  0.
         23    2    4    4    0    0  0.45670512659E+03  0.43028822931E+03  0.15080360565E+04  0.16360615025E+04  0.93792106747E+02 0.  0.
         23    2    4    4    0    0  0.47513249317E+02 -0.33261049771E+03  0.41252068986E+03  0.54036450315E+03  0.94515737596E+02 0.  0.
          2    1    3    3  502    0 -0.24409605060E+03 -0.39934765826E+02  0.35107926612E+03  0.42945816855E+03  0.00000000000E+00 0. -1.
         -1    1    3    3    0  502 -0.26012232531E+03 -0.57742965774E+02  0.24163530618E+03  0.35970195358E+03  0.00000000000E+00 0.  1.
         13    1    5    5    0    0  0.29455658637E+03  0.24274863079E+03  0.81325027852E+03  0.89836879723E+03  0.00000000000E+00 0. -1.
        -13    1    5    5    0    0  0.16214854022E+03  0.18753959852E+03  0.69478577802E+03  0.73769270530E+03  0.00000000000E+00 0.  1.
          4    1    6    6  503    0  0.75369992243E+02 -0.24799931172E+03  0.32203225252E+03  0.41338730751E+03  0.00000000000E+00 0. -1.
         -4    1    6    6    0  503 -0.27856742925E+02 -0.84611185987E+02  0.90488437338E+02  0.12697719564E+03  0.00000000000E+00 0.  1.
<mgrwt>
<rscale>  0 0.15742199E+04</rscale>
<asrwt>0</asrwt>
<pdfrwt beam="1">  1        2 0.42145055E+00 0.15742199E+04</pdfrwt>
<pdfrwt beam="2">  1       -1 0.34793449E-01 0.15742199E+04</pdfrwt>
<totfact> 0.21668118E+01</totfact>
</mgrwt>
</event>
<event>
12    7  0.1661464E-007  0.2550938E+04  0.7818608E-02  0.8385060E-01
          2   -1    0    0  501    0  0.00000000000E+00  0.00000000000E+00  0.36819373144E+04  0.36819373144E+04  0.00000000000E+00 0. -1.
         -1   -1    0    0    0  501 -0.00000000000E+00 -0.00000000000E+00 -0.44183842247E+03  0.44183842247E+03  0.00000000000E+00 0.  1.
         24    2    1    2    0    0  0.85125629634E+03  0.84963807515E+02  0.25779419738E+04  0.27173878024E+04  0.80966153530E+02 0.  0.
        254    2    1    2    0    0 -0.85125629634E+03 -0.84963807515E+02  0.66215691820E+03  0.14063879345E+04  0.89867630840E+03 0.  0.
         23    2    4    4    0    0 -0.18333278596E+03 -0.18350630156E+03 -0.17633554581E+03  0.32599439897E+03  0.88840589391E+02 0.  0.
         23    2    4    4    0    0 -0.66792351038E+03  0.98542494040E+02  0.83849246401E+03  0.10803935355E+04  0.91368159174E+02 0.  0.
          2    1    3    3  502    0  0.31323251077E+03  0.11220278270E+02  0.10516791243E+04  0.10973921273E+04  0.00000000000E+00 0. -1.
         -3    1    3    3    0  502  0.53802378558E+03  0.73743529245E+02  0.15262628495E+04  0.16199956752E+04  0.00000000000E+00 0.  1.
         13    1    5    5    0    0 -0.37583021142E+02 -0.83188723438E+02 -0.29101951006E+02  0.95811120115E+02  0.00000000000E+00 0. -1.
        -13    1    5    5    0    0 -0.14574976482E+03 -0.10031757812E+03 -0.14723359481E+03  0.23018327886E+03  0.00000000000E+00 0.  1.
          3    1    6    6  503    0 -0.38597162685E+02 -0.97617427064E+01  0.76198324838E+02  0.85972189086E+02  0.00000000000E+00 0. -1.
         -3    1    6    6    0  503 -0.62932634770E+03  0.10830423675E+03  0.76229413917E+03  0.99442134642E+03  0.00000000000E+00 0.  1.
<mgrwt>
<rscale>  0 0.25509382E+04</rscale>
<asrwt>0</asrwt>
<pdfrwt beam="1">  1        2 0.56645187E+00 0.25509382E+04</pdfrwt>
<pdfrwt beam="2">  1       -1 0.67975144E-01 0.25509382E+04</pdfrwt>
<totfact> 0.13340341E+00</totfact>
</mgrwt>
</event>
<event>
12    7  0.1661464E-007  0.2443138E+04  0.7818608E-02  0.8423528E-01
          2   -1    0    0  501    0  0.00000000000E+00  0.00000000000E+00  0.73041278109E+03  0.73041278109E+03  0.00000000000E+00 0. -1.
         -1   -1    0    0    0  501 -0.00000000000E+00 -0.00000000000E+00 -0.20429969000E+04  0.20429969000E+04  0.00000000000E+00 0.  1.
         24    2    1    2    0    0 -0.56308351198E+03 -0.65150757154E+03  0.11896992834E+03  0.87286380026E+03  0.78817591488E+02 0.  0.
        254    2    1    2    0    0  0.56308351198E+03  0.65150757154E+03 -0.14315540473E+04  0.19005458808E+04  0.90620223886E+03 0.  0.
         23    2    4    4    0    0 -0.13593175561E+03  0.43024947328E+03 -0.30247088798E+03  0.55119374138E+03  0.93455074878E+02 0.  0.
         23    2    4    4    0    0  0.69901526759E+03  0.22125809826E+03 -0.11290831593E+04  0.13493521395E+04  0.91350562826E+02 0.  0.
          4    1    3    3  502    0 -0.44180083312E+03 -0.55707151692E+03  0.96363802122E+02  0.71749747976E+03  0.00000000000E+00 0. -1.
         -3    1    3    3    0  502 -0.12128267886E+03 -0.94436054621E+02  0.22606126217E+02  0.15536632050E+03  0.00000000000E+00 0.  1.
         13    1    5    5    0    0 -0.26388922605E+02  0.10511328080E+03 -0.28299431630E+02  0.11200908386E+03  0.00000000000E+00 0. -1.
        -13    1    5    5    0    0 -0.10954283301E+03  0.32513619248E+03 -0.27417145635E+03  0.43918465752E+03  0.00000000000E+00 0.  1.
          4    1    6    6  503    0  0.33151189605E+03  0.57763087541E+02 -0.52686709345E+03  0.62516049592E+03  0.00000000000E+00 0. -1.
         -4    1    6    6    0  503  0.36750337154E+03  0.16349501072E+03 -0.60221606585E+03  0.72419164355E+03  0.00000000000E+00 0.  1.
<mgrwt>
<rscale>  0 0.24431382E+04</rscale>
<asrwt>0</asrwt>
<pdfrwt beam="1">  1        2 0.11237120E+00 0.24431382E+04</pdfrwt>
<pdfrwt beam="2">  1       -1 0.31430722E+00 0.24431382E+04</pdfrwt>
<totfact> 0.10577386E+00</totfact>
</mgrwt>
</event>
<event>
12    7  0.1661464E-007  0.2443574E+04  0.7818608E-02  0.8423368E-01
         -1   -1    0    0    0  501 -0.00000000000E+00  0.00000000000E+00  0.10384083110E+04  0.10384083110E+04  0.00000000000E+00 0.  1.
          2   -1    0    0  501    0  0.00000000000E+00 -0.00000000000E+00 -0.14375493721E+04  0.14375493721E+04  0.00000000000E+00 0. -1.
         24    2    1    2    0    0 -0.78607663463E+03 -0.22027873664E+03  0.49897163224E+03  0.96012247287E+03  0.80145341814E+02 0.  0.
        254    2    1    2    0    0  0.78607663463E+03  0.22027873664E+03 -0.89811269340E+03  0.15158352102E+04  0.90813588034E+03 0.  0.
         23    2    4    4    0    0  0.65117103574E+03  0.58007554252E+02 -0.78462650995E+02  0.66469477353E+03  0.90962411010E+02 0.  0.
         23    2    4    4    0    0  0.13490559889E+03  0.16227118239E+03 -0.81965004240E+03  0.85114043669E+03  0.89902134071E+02 0.  0.
          2    1    3    3  502    0 -0.10392213516E+03 -0.55984065079E+02  0.84777664874E+02  0.14533161453E+03  0.00000000000E+00 0. -1.
         -1    1    3    3    0  502 -0.68215449946E+03 -0.16429467156E+03  0.41419396736E+03  0.81479085834E+03  0.00000000000E+00 0.  1.
         13    1    5    5    0    0  0.34850265450E+03  0.47763978791E+01 -0.43129221055E+01  0.34856206832E+03  0.00000000000E+00 0.  1.
        -13    1    5    5    0    0  0.30266838124E+03  0.53231156373E+02 -0.74149728890E+02  0.31613270521E+03  0.00000000000E+00 0. -1.
          1    1    6    6  503    0  0.64809244288E+02  0.60996318984E+02 -0.19342346004E+03  0.21291647181E+03  0.00000000000E+00 0. -1.
         -1    1    6    6    0  503  0.70096354598E+02  0.10127486340E+03 -0.62622658236E+03  0.63822396487E+03  0.00000000000E+00 0.  1.
<mgrwt>
<rscale>  0 0.24435738E+04</rscale>
<asrwt>0</asrwt>
<pdfrwt beam="1">  1        2 0.22116144E+00 0.24435738E+04</pdfrwt>
<pdfrwt beam="2">  1       -1 0.15975513E+00 0.24435738E+04</pdfrwt>
<totfact> 0.41263421E+00</totfact>
</mgrwt>
</event>
<event>
12    7  0.1661464E-007  0.1895738E+04  0.7818608E-02  0.8656981E-01
          2   -1    0    0  501    0  0.00000000000E+00  0.00000000000E+00  0.27060127975E+04  0.27060127975E+04  0.00000000000E+00 0. -1.
         -1   -1    0    0    0  501 -0.00000000000E+00 -0.00000000000E+00 -0.33202188635E+03  0.33202188635E+03  0.00000000000E+00 0.  1.
         24    2    1    2    0    0 -0.29542720650E+03 -0.13311842983E+03 -0.12993903585E+03  0.35774959623E+03  0.78120867041E+02 0.  0.
        254    2    1    2    0    0  0.29542720650E+03  0.13311842983E+03  0.25039299470E+04  0.26802850876E+04  0.89959169668E+03 0.  0.
         23    2    4    4    0    0  0.60440165633E+03  0.26697697289E+02  0.17422831580E+04  0.18465298960E+04  0.90044015186E+02 0.  0.
         23    2    4    4    0    0 -0.30897444983E+03  0.10642073254E+03  0.76164678899E+03  0.83375519169E+03  0.90836697014E+02 0.  0.
          2    1    3    3  502    0 -0.39668099138E+01 -0.12245811910E+02  0.59754450071E+01  0.14191597276E+02  0.00000000000E+00 0. -1.
         -1    1    3    3    0  502 -0.29146039659E+03 -0.12087261792E+03 -0.13591448086E+03  0.34355799896E+03  0.00000000000E+00 0.  1.
         13    1    5    5    0    0  0.55126942936E+03  0.10502921542E+02  0.16390158475E+04  0.17292718824E+04  0.00000000000E+00 0. -1.
        -13    1    5    5    0    0  0.53132226967E+02  0.16194775747E+02  0.10326731054E+03  0.11725801350E+03  0.00000000000E+00 0.  1.
          3    1    6    6  503    0 -0.27967931624E+03  0.88079624874E+02  0.73079295072E+03  0.78742420402E+03  0.00000000000E+00 0. -1.
         -3    1    6    6    0  503 -0.29295133591E+02  0.18341107663E+02  0.30853838269E+02  0.46330987669E+02  0.00000000000E+00 0.  1.
<mgrwt>
<rscale>  0 0.18957378E+04</rscale>
<asrwt>0</asrwt>
<pdfrwt beam="1">  1        2 0.41630965E+00 0.18957378E+04</pdfrwt>
<pdfrwt beam="2">  1       -1 0.51080292E-01 0.18957378E+04</pdfrwt>
<totfact> 0.10841013E+01</totfact>
</mgrwt>
</event>
<event>
12    7  0.1661464E-007  0.1178666E+04  0.7818608E-02  0.9131737E-01
         -1   -1    0    0    0  501 -0.00000000000E+00  0.00000000000E+00  0.89612043201E+03  0.89612043201E+03  0.00000000000E+00 0.  1.
          2   -1    0    0  501    0  0.00000000000E+00 -0.00000000000E+00 -0.38757469893E+03  0.38757469893E+03  0.00000000000E+00 0. -1.
         24    2    1    2    0    0 -0.14347626857E+03 -0.13232629832E+03  0.21658991164E+03  0.30442107221E+03  0.87551759014E+02 0.  0.
        254    2    1    2    0    0  0.14347626857E+03  0.13232629832E+03  0.29195582144E+03  0.97927405873E+03  0.91413554332E+03 0.  0.
         23    2    4    4    0    0  0.25401329166E+03  0.14681584195E+03 -0.26385374955E+03  0.40515590549E+03  0.91950328001E+02 0.  0.
         23    2    4    4    0    0 -0.11053702308E+03 -0.14489543624E+02  0.55580957098E+03  0.57411815324E+03  0.90879009308E+02 0.  0.
          2    1    3    3  502    0 -0.10191173623E+02 -0.51301897694E+02  0.87545279759E+02  0.10198000164E+03  0.00000000000E+00 0. -1.
         -1    1    3    3    0  502 -0.13328509495E+03 -0.81024400627E+02  0.12904463188E+03  0.20244107056E+03  0.00000000000E+00 0.  1.
         13    1    5    5    0    0  0.13741671575E+03  0.51229146530E+02 -0.78887601377E+02  0.16652637290E+03  0.00000000000E+00 0.  1.
        -13    1    5    5    0    0  0.11659657591E+03  0.95586695415E+02 -0.18496614817E+03  0.23862953259E+03  0.00000000000E+00 0. -1.
          1    1    6    6  503    0 -0.37441395663E+02  0.27300579300E+02  0.32780130507E+03  0.33106022918E+03  0.00000000000E+00 0. -1.
         -1    1    6    6    0  503 -0.73095627421E+02 -0.41790122924E+02  0.22800826592E+03  0.24305792406E+03  0.00000000000E+00 0.  1.
<mgrwt>
<rscale>  0 0.11786664E+04</rscale>
<asrwt>0</asrwt>
<pdfrwt beam="1">  1        2 0.59626877E-01 0.11786664E+04</pdfrwt>
<pdfrwt beam="2">  1       -1 0.13786468E+00 0.11786664E+04</pdfrwt>
<totfact> 0.40674156E+01</totfact>
</mgrwt>
</event>
<event>
12    7  0.1661464E-007  0.2308364E+04  0.7818608E-02  0.8474631E-01
          2   -1    0    0  501    0  0.00000000000E+00  0.00000000000E+00  0.32076867457E+04  0.32076867457E+04  0.00000000000E+00 0. -1.
         -1   -1    0    0    0  501 -0.00000000000E+00 -0.00000000000E+00 -0.41529487902E+03  0.41529487902E+03  0.00000000000E+00 0.  1.
         24    2    1    2    0    0 -0.63628940029E+03  0.74098115673E+03  0.12441292679E+04  0.15836426633E+04  0.78416670244E+02 0.  0.
        254    2    1    2    0    0  0.63628940029E+03 -0.74098115673E+03  0.15482625988E+04  0.20393389615E+04  0.89881535887E+03 0.  0.
         23    2    4    4    0    0  0.85375253215E+03 -0.63307358620E+03  0.12662360696E+04  0.16556886766E+04  0.90970643606E+02 0.  0.
         23    2    4    4    0    0 -0.21746313185E+03 -0.10790757053E+03  0.28202652921E+03  0.38365028492E+03  0.93350524627E+02 0.  0.
          4    1    3    3  502    0 -0.19914914845E+02  0.33955655383E+02  0.30534876266E+02  0.49819364050E+02  0.00000000000E+00 0. -1.
         -3    1    3    3    0  502 -0.61637448545E+03  0.70702550135E+03  0.12135943916E+04  0.15338232992E+04  0.00000000000E+00 0.  1.
         13    1    5    5    0    0  0.16448820773E+03 -0.12471719026E+03  0.30459504840E+03  0.36795229519E+03  0.00000000000E+00 0. -1.
        -13    1    5    5    0    0  0.68926432442E+03 -0.50835639593E+03  0.96164102123E+03  0.12877363814E+04  0.00000000000E+00 0.  1.
          3    1    6    6  503    0 -0.38757254031E+02 -0.16959725051E+02  0.63764698042E+01  0.42783365705E+02  0.00000000000E+00 0. -1.
         -3    1    6    6    0  503 -0.17870587782E+03 -0.90947845481E+02  0.27565005940E+03  0.34086691921E+03  0.00000000000E+00 0.  1.
<mgrwt>
<rscale>  0 0.23083638E+04</rscale>
<asrwt>0</asrwt>
<pdfrwt beam="1">  1        2 0.49349025E+00 0.23083638E+04</pdfrwt>
<pdfrwt beam="2">  1       -1 0.63891522E-01 0.23083638E+04</pdfrwt>
<totfact> 0.32869488E+00</totfact>
</mgrwt>
</event>
<event>
12    7  0.1661464E-007  0.1807088E+04  0.7818608E-02  0.8702539E-01
          2   -1    0    0  501    0  0.00000000000E+00  0.00000000000E+00  0.87131975756E+03  0.87131975756E+03  0.00000000000E+00 0. -1.
         -1   -1    0    0    0  501 -0.00000000000E+00 -0.00000000000E+00 -0.93696040160E+03  0.93696040160E+03  0.00000000000E+00 0.  1.
         24    2    1    2    0    0  0.16820870788E+03 -0.12301577007E+03 -0.67249978302E+03  0.70837113166E+03  0.78145076086E+02 0.  0.
        254    2    1    2    0    0 -0.16820870788E+03  0.12301577007E+03  0.60685913898E+03  0.10999090275E+04  0.89336151984E+03 0.  0.
         23    2    4    4    0    0 -0.38530703046E+03 -0.24638560950E+03  0.22000917966E+03  0.51552020432E+03  0.90496771416E+02 0.  0.
         23    2    4    4    0    0  0.21709832257E+03  0.36940137957E+03  0.38684995932E+03  0.58438882319E+03  0.90930439070E+02 0.  0.
          2    1    3    3  502    0  0.82518038594E+02 -0.19959451211E+02 -0.32542395562E+03  0.33631585939E+03  0.00000000000E+00 0. -1.
         -1    1    3    3    0  502  0.85690669287E+02 -0.10305631886E+03 -0.34707582740E+03  0.37205527227E+03  0.00000000000E+00 0.  1.
         13    1    5    5    0    0 -0.24712137263E+03 -0.18656270593E+03  0.18579970298E+03  0.36110406489E+03  0.00000000000E+00 0.  1.
        -13    1    5    5    0    0 -0.13818565782E+03 -0.59822903576E+02  0.34209476679E+02  0.15441613942E+03  0.00000000000E+00 0. -1.
          3    1    6    6  503    0  0.14641882164E+03  0.26598422863E+03  0.32475327891E+03  0.44457932180E+03  0.00000000000E+00 0. -1.
         -3    1    6    6    0  503  0.70679500930E+02  0.10341715094E+03  0.62096680412E+02  0.13980950139E+03  0.00000000000E+00 0.  1.
<mgrwt>
<rscale>  0 0.18070884E+04</rscale>
<asrwt>0</asrwt>
<pdfrwt beam="1">  1        2 0.13404919E+00 0.18070884E+04</pdfrwt>
<pdfrwt beam="2">  1       -1 0.14414775E+00 0.18070884E+04</pdfrwt>
<totfact> 0.12821067E+01</totfact>
</mgrwt>
</event>
<event>
12    7  0.1661464E-007  0.1534183E+04  0.7818608E-02  0.8862035E-01
         -1   -1    0    0    0  501 -0.00000000000E+00  0.00000000000E+00  0.92575656191E+03  0.92575656191E+03  0.00000000000E+00 0.  1.
          2   -1    0    0  501    0  0.00000000000E+00 -0.00000000000E+00 -0.63561993916E+03  0.63561993916E+03  0.00000000000E+00 0. -1.
         24    2    1    2    0    0  0.30538641152E+02 -0.45484504872E+03  0.32871793077E+03  0.56744613388E+03  0.78249663916E+02 0.  0.
        254    2    1    2    0    0 -0.30538641152E+02  0.45484504872E+03 -0.38581308012E+02  0.99393036718E+03  0.88237884750E+03 0.  0.
         23    2    4    4    0    0  0.18839488739E+03 -0.38195718376E+02  0.28656921593E+03  0.35750851400E+03  0.93481953142E+02 0.  0.
         23    2    4    4    0    0 -0.21893352854E+03  0.49304076710E+03 -0.32515052395E+03  0.63642185318E+03  0.91042979122E+02 0.  0.
          2    1    3    3  502    0  0.36471486508E+02 -0.19861548809E+03  0.18355826157E+03  0.27289543204E+03  0.00000000000E+00 0. -1.
         -1    1    3    3    0  502 -0.59328453560E+01 -0.25622956063E+03  0.14515966919E+03  0.29455070184E+03  0.00000000000E+00 0.  1.
         13    1    5    5    0    0  0.17291808193E+03 -0.24794807022E+02  0.28816026965E+03  0.33697445974E+03  0.00000000000E+00 0.  1.
        -13    1    5    5    0    0  0.15476805457E+02 -0.13400911354E+02 -0.15910537145E+01  0.20534054256E+02  0.00000000000E+00 0. -1.
          4    1    6    6  503    0 -0.78054535930E+02  0.26405032467E+03 -0.19716069580E+03  0.33865531814E+03  0.00000000000E+00 0. -1.
         -4    1    6    6    0  503 -0.14087899261E+03  0.22899044242E+03 -0.12798982815E+03  0.29776653504E+03  0.00000000000E+00 0.  1.
<mgrwt>
<rscale>  0 0.15341829E+04</rscale>
<asrwt>0</asrwt>
<pdfrwt beam="1">  1        2 0.97787682E-01 0.15341829E+04</pdfrwt>
<pdfrwt beam="2">  1       -1 0.14242409E+00 0.15341829E+04</pdfrwt>
<totfact> 0.20392774E+01</totfact>
</mgrwt>
</event>
<event>
12    7  0.1661464E-007  0.1533077E+04  0.7818608E-02  0.8862750E-01
          2   -1    0    0  501    0  0.00000000000E+00  0.00000000000E+00  0.82721014148E+03  0.82721014148E+03  0.00000000000E+00 0. -1.
         -1   -1    0    0    0  501 -0.00000000000E+00 -0.00000000000E+00 -0.71031668054E+03  0.71031668054E+03  0.00000000000E+00 0.  1.
         24    2    1    2    0    0  0.31143255387E+03  0.37542485535E+03  0.14670368885E+03  0.51522608752E+03  0.77471874361E+02 0.  0.
        254    2    1    2    0    0 -0.31143255387E+03 -0.37542485535E+03 -0.29810227908E+02  0.10223007345E+04  0.89792877471E+03 0.  0.
         23    2    4    4    0    0 -0.55031440607E+03 -0.38456892673E+03  0.16836412194E+03  0.69804984150E+03  0.90487008601E+02 0.  0.
         23    2    4    4    0    0  0.23888185220E+03  0.91440713736E+01 -0.19817434985E+03  0.32425089300E+03  0.93367099785E+02 0.  0.
          2    1    3    3  502    0  0.30665896177E+03  0.36035335356E+03  0.15428510275E+03  0.49769282814E+03  0.00000000000E+00 0. -1.
         -1    1    3    3    0  502  0.47735920959E+01  0.15071501796E+02 -0.75814138953E+01  0.17533259381E+02  0.00000000000E+00 0.  1.
         13    1    5    5    0    0 -0.96971261825E+01 -0.14510525337E+02 -0.85607016661E+01  0.19439012700E+02  0.00000000000E+00 0. -1.
        -13    1    5    5    0    0 -0.54061727989E+03 -0.37005840139E+03  0.17692482361E+03  0.67861082880E+03  0.00000000000E+00 0.  1.
          3    1    6    6  503    0  0.15047952448E+02 -0.23840139115E+02 -0.36744149203E+02  0.46313341561E+02  0.00000000000E+00 0. -1.
         -3    1    6    6    0  503  0.22383389976E+03  0.32984210489E+02 -0.16143020064E+03  0.27793755144E+03  0.00000000000E+00 0.  1.
<mgrwt>
<rscale>  0 0.15330769E+04</rscale>
<asrwt>0</asrwt>
<pdfrwt beam="1">  1        2 0.12726310E+00 0.15330769E+04</pdfrwt>
<pdfrwt beam="2">  1       -1 0.10927949E+00 0.15330769E+04</pdfrwt>
<totfact> 0.28096322E+01</totfact>
</mgrwt>
</event>
<event>
12    7  0.1661464E-007  0.2642842E+04  0.7818608E-02  0.8353793E-01
          2   -1    0    0  501    0  0.00000000000E+00  0.00000000000E+00  0.12307808142E+04  0.12307808142E+04  0.00000000000E+00 0. -1.
         -1   -1    0    0    0  501 -0.00000000000E+00 -0.00000000000E+00 -0.14187366259E+04  0.14187366259E+04  0.00000000000E+00 0.  1.
         24    2    1    2    0    0  0.10996611684E+02 -0.44410888780E+03 -0.11397906043E+04  0.12259299164E+04  0.80174238144E+02 0.  0.
        254    2    1    2    0    0 -0.10996611684E+02  0.44410888780E+03  0.95183479259E+03  0.14235875238E+04  0.96086332840E+03 0.  0.
         23    2    4    4    0    0 -0.34559397380E+03 -0.89979604378E+02  0.57728385999E+03  0.68484105826E+03  0.90659230878E+02 0.  0.
         23    2    4    4    0    0  0.33459736212E+03  0.53408849218E+03  0.37455093260E+03  0.73874646555E+03  0.90840668424E+02 0.  0.
          4    1    3    3  502    0 -0.14644346627E+02 -0.26788702476E+03 -0.77215269250E+03  0.81743360308E+03  0.00000000000E+00 0. -1.
         -3    1    3    3    0  502  0.25640958311E+02 -0.17622186304E+03 -0.36763791181E+03  0.40849631327E+03  0.00000000000E+00 0.  1.
         13    1    5    5    0    0 -0.30115140240E+03 -0.10441891092E+03  0.52930276023E+03  0.61786478141E+03  0.00000000000E+00 0.  1.
        -13    1    5    5    0    0 -0.44442571399E+02  0.14439306542E+02  0.47981099763E+02  0.66976276848E+02  0.00000000000E+00 0. -1.
          2    1    6    6  503    0  0.18662419791E+03  0.22255847779E+03  0.19585981855E+03  0.35031690768E+03  0.00000000000E+00 0. -1.
         -2    1    6    6    0  503  0.14797316420E+03  0.31153001438E+03  0.17869111405E+03  0.38842955787E+03  0.00000000000E+00 0.  1.
<mgrwt>
<rscale>  0 0.26428423E+04</rscale>
<asrwt>0</asrwt>
<pdfrwt beam="1">  1        2 0.18935089E+00 0.26428423E+04</pdfrwt>
<pdfrwt beam="2">  1       -1 0.21826717E+00 0.26428423E+04</pdfrwt>
<totfact> 0.20614519E+00</totfact>
</mgrwt>
</event>
<event>
12    7  0.1661464E-007  0.2596941E+04  0.7818608E-02  0.8369241E-01
          2   -1    0    0  501    0  0.00000000000E+00  0.00000000000E+00  0.14531504210E+04  0.14531504210E+04  0.00000000000E+00 0. -1.
         -1   -1    0    0    0  501 -0.00000000000E+00 -0.00000000000E+00 -0.11602557612E+04  0.11602557612E+04  0.00000000000E+00 0.  1.
         24    2    1    2    0    0  0.34900704194E+03 -0.40124424668E+03  0.11420953787E+04  0.12623325277E+04  0.79364321744E+02 0.  0.
        254    2    1    2    0    0 -0.34900704194E+03  0.40124424668E+03 -0.84920071891E+03  0.13510736545E+04  0.90634171158E+03 0.  0.
         23    2    4    4    0    0 -0.32847490064E+03  0.66883897756E+03 -0.71546333067E+03  0.10371755322E+04  0.92757580975E+02 0.  0.
         23    2    4    4    0    0 -0.20532141294E+02 -0.26759473088E+03 -0.13373738823E+03  0.31389812231E+03  0.92832286169E+02 0.  0.
          2    1    3    3  502    0  0.23823002484E+03 -0.32134274043E+03  0.81545791373E+03  0.90828757045E+03  0.00000000000E+00 0. -1.
         -1    1    3    3    0  502  0.11077701710E+03 -0.79901506246E+02  0.32663746495E+03  0.35404495721E+03  0.00000000000E+00 0.  1.
         13    1    5    5    0    0 -0.31374319895E+03  0.66555193551E+03 -0.70172305922E+03  0.10167641937E+04  0.00000000000E+00 0.  1.
        -13    1    5    5    0    0 -0.14731701695E+02  0.32870420467E+01 -0.13740271450E+02  0.20411338510E+02  0.00000000000E+00 0. -1.
          3    1    6    6  503    0  0.28793083413E+02 -0.37413344918E+02 -0.11253860482E+02  0.48532972360E+02  0.00000000000E+00 0. -1.
         -3    1    6    6    0  503 -0.49325224707E+02 -0.23018138597E+03 -0.12248352775E+03  0.26536514995E+03  0.00000000000E+00 0.  1.
<mgrwt>
<rscale>  0 0.25969414E+04</rscale>
<asrwt>0</asrwt>
<pdfrwt beam="1">  1        2 0.22356160E+00 0.25969414E+04</pdfrwt>
<pdfrwt beam="2">  1       -1 0.17850089E+00 0.25969414E+04</pdfrwt>
<totfact> 0.29015792E+00</totfact>
</mgrwt>
</event>
<event>
12    7  0.1661464E-007  0.1620475E+04  0.7818608E-02  0.8808067E-01
         -1   -1    0    0    0  501 -0.00000000000E+00  0.00000000000E+00  0.12977983135E+04  0.12977983135E+04  0.00000000000E+00 0.  1.
          2   -1    0    0  501    0  0.00000000000E+00 -0.00000000000E+00 -0.50584515887E+03  0.50584515887E+03  0.00000000000E+00 0. -1.
         24    2    1    2    0    0 -0.73329012599E+02 -0.54549450002E+03  0.29305060313E+03  0.62852145424E+03  0.78861706867E+02 0.  0.
        254    2    1    2    0    0  0.73329012599E+02  0.54549450002E+03  0.49890255155E+03  0.11751220182E+04  0.91053094842E+03 0.  0.
         23    2    4    4    0    0  0.42469066878E+03  0.47291828757E+03  0.48460769250E+03  0.80451030986E+03  0.91533339162E+02 0.  0.
         23    2    4    4    0    0 -0.35136165618E+03  0.72576212452E+02  0.14294859051E+02  0.37061170832E+03  0.91795290170E+02 0.  0.
          4    1    3    3  502    0 -0.54763948169E+02 -0.23132405218E+03  0.16165258148E+03  0.28747428448E+03  0.00000000000E+00 0. -1.
         -3    1    3    3    0  502 -0.18565064431E+02 -0.31417044784E+03  0.13139802165E+03  0.34104716977E+03  0.00000000000E+00 0.  1.
         13    1    5    5    0    0  0.33578965442E+03  0.37701973576E+03  0.33549529560E+03  0.60618121592E+03  0.00000000000E+00 0. -1.
        -13    1    5    5    0    0  0.88901014357E+02  0.95898551810E+02  0.14911239690E+03  0.19832909394E+03  0.00000000000E+00 0.  1.
          4    1    6    6  503    0 -0.33826764999E+03  0.56045800360E+02 -0.36853330166E+01  0.34289898870E+03  0.00000000000E+00 0.  1.
         -4    1    6    6    0  503 -0.13094006190E+02  0.16530412092E+02  0.17980192068E+02  0.27712719622E+02  0.00000000000E+00 0. -1.
<mgrwt>
<rscale>  0 0.16204752E+04</rscale>
<asrwt>0</asrwt>
<pdfrwt beam="1">  1        2 0.77822333E-01 0.16204752E+04</pdfrwt>
<pdfrwt beam="2">  1       -1 0.19966128E+00 0.16204752E+04</pdfrwt>
<totfact> 0.10058548E+01</totfact>
</mgrwt>
</event>
<event>
12    7  0.1661464E-007  0.1518928E+04  0.7818608E-02  0.8871963E-01
         -1   -1    0    0    0  501 -0.00000000000E+00  0.00000000000E+00  0.66491290467E+03  0.66491290467E+03  0.00000000000E+00 0.  1.
          2   -1    0    0  501    0  0.00000000000E+00 -0.00000000000E+00 -0.86746040667E+03  0.86746040667E+03  0.00000000000E+00 0. -1.
         24    2    1    2    0    0 -0.25394667066E+03  0.41152516838E+03 -0.28685217709E+02  0.49101739467E+03  0.80208256477E+02 0.  0.
        254    2    1    2    0    0  0.25394667066E+03 -0.41152516838E+03 -0.17386228429E+03  0.10413559167E+04  0.90573294934E+03 0.  0.
         23    2    4    4    0    0  0.15778685719E+03  0.25574084867E+03  0.66875611771E+02  0.32038687658E+03  0.88743051873E+02 0.  0.
         23    2    4    4    0    0  0.96159813468E+02 -0.66726601705E+03 -0.24073789606E+03  0.72096904008E+03  0.85737826624E+02 0.  0.
          2    1    3    3  502    0 -0.84497166939E+02  0.19537224428E+03 -0.37894013676E+02  0.21620832854E+03  0.00000000000E+00 0. -1.
         -1    1    3    3    0  502 -0.16944950372E+03  0.21615292410E+03  0.92087959674E+01  0.27480906613E+03  0.00000000000E+00 0.  1.
         13    1    5    5    0    0 -0.10793072662E+02  0.10054878966E+02  0.75743003371E+01  0.16581949045E+02  0.00000000000E+00 0.  1.
        -13    1    5    5    0    0  0.16857992985E+03  0.24568596971E+03  0.59301311434E+02  0.30380492754E+03  0.00000000000E+00 0. -1.
          2    1    6    6  503    0  0.59895943352E+02 -0.54951263043E+03 -0.16728911429E+03  0.57752688491E+03  0.00000000000E+00 0. -1.
         -2    1    6    6    0  503  0.36263870116E+02 -0.11775338662E+03 -0.73448781765E+02  0.14344215517E+03  0.00000000000E+00 0.  1.
<mgrwt>
<rscale>  0 0.15189281E+04</rscale>
<asrwt>0</asrwt>
<pdfrwt beam="1">  1        2 0.13345545E+00 0.15189281E+04</pdfrwt>
<pdfrwt beam="2">  1       -1 0.10229429E+00 0.15189281E+04</pdfrwt>
<totfact> 0.30756598E+01</totfact>
</mgrwt>
</event>
<event>
12    7  0.1661464E-007  0.2012957E+04  0.7818608E-02  0.8600587E-01
          2   -1    0    0  501    0  0.00000000000E+00  0.00000000000E+00  0.34476125211E+04  0.34476125211E+04  0.00000000000E+00 0. -1.
         -1   -1    0    0    0  501 -0.00000000000E+00 -0.00000000000E+00 -0.29382625126E+03  0.29382625126E+03  0.00000000000E+00 0.  1.
         24    2    1    2    0    0 -0.34090282327E+03 -0.72425390921E+03  0.14541509478E+04  0.16631634521E+04  0.10391934128E+03 0.  0.
        254    2    1    2    0    0  0.34090282327E+03  0.72425390921E+03  0.16996353221E+04  0.20782753203E+04  0.88865607461E+03 0.  0.
         23    2    4    4    0    0 -0.25177413781E+03  0.31598171157E+03  0.94310220789E+03  0.10302973049E+04  0.94000550481E+02 0.  0.
         23    2    4    4    0    0  0.59267696108E+03  0.40827219764E+03  0.75653311416E+03  0.10479780153E+04  0.89237885716E+02 0.  0.
          2    1    3    3  502    0 -0.70813579371E+02 -0.13375513391E+03  0.36508954270E+03  0.39521560326E+03  0.00000000000E+00 0. -1.
         -1    1    3    3    0  502 -0.27008924390E+03 -0.59049877530E+03  0.10890614051E+04  0.12679478488E+04  0.00000000000E+00 0.  1.
         13    1    5    5    0    0 -0.14384414414E+02  0.16591510619E+02  0.14917124120E+02  0.26546378184E+02  0.00000000000E+00 0.  1.
        -13    1    5    5    0    0 -0.23738972340E+03  0.29939020095E+03  0.92818508377E+03  0.10037509267E+04  0.00000000000E+00 0. -1.
          4    1    6    6  503    0  0.54314412611E+03  0.35823866454E+03  0.64561566831E+03  0.91660246218E+03  0.00000000000E+00 0. -1.
         -4    1    6    6    0  503  0.49532834973E+02  0.50033533101E+02  0.11091744585E+03  0.13137555316E+03  0.00000000000E+00 0.  1.
<mgrwt>
<rscale>  0 0.20129571E+04</rscale>
<asrwt>0</asrwt>
<pdfrwt beam="1">  1        2 0.53040190E+00 0.20129571E+04</pdfrwt>
<pdfrwt beam="2">  1       -1 0.45204041E-01 0.20129571E+04</pdfrwt>
<totfact> 0.45586905E+00</totfact>
</mgrwt>
</event>
<event>
12    7  0.1661464E-007  0.1316349E+04  0.7818608E-02  0.9016700E-01
          2   -1    0    0  501    0  0.00000000000E+00  0.00000000000E+00  0.88341896955E+03  0.88341896955E+03  0.00000000000E+00 0. -1.
         -1   -1    0    0    0  501 -0.00000000000E+00 -0.00000000000E+00 -0.49036035957E+03  0.49036035957E+03  0.00000000000E+00 0.  1.
         24    2    1    2    0    0 -0.34536872588E+03  0.15531185708E+02  0.10227764292E+03  0.36927101424E+03  0.79872342978E+02 0.  0.
        254    2    1    2    0    0  0.34536872588E+03 -0.15531185708E+02  0.29078096706E+03  0.10045083149E+04  0.89719708498E+03 0.  0.
         23    2    4    4    0    0  0.41526393164E+03 -0.97657765287E+02 -0.20966622161E+03  0.48385999551E+03  0.90440028365E+02 0.  0.
         23    2    4    4    0    0 -0.69895205755E+02  0.82126579579E+02  0.50044718866E+03  0.52064831936E+03  0.94853407700E+02 0.  0.
          2    1    3    3  502    0  0.37800076232E+01 -0.27971117493E+01  0.37764647982E+01  0.60310843255E+01  0.00000000000E+00 0. -1.
         -1    1    3    3    0  502 -0.34914873351E+03  0.18328297457E+02  0.98501178121E+02  0.36323992992E+03  0.00000000000E+00 0.  1.
         13    1    5    5    0    0  0.25509089154E+03 -0.52798106938E+02 -0.78619493488E+02  0.27210297279E+03  0.00000000000E+00 0. -1.
        -13    1    5    5    0    0  0.16017304009E+03 -0.44859658349E+02 -0.13104672812E+03  0.21175702272E+03  0.00000000000E+00 0.  1.
          3    1    6    6  503    0 -0.20202023313E+02  0.21298982277E+02  0.24421708601E+02  0.38186231065E+02  0.00000000000E+00 0. -1.
         -3    1    6    6    0  503 -0.49693182442E+02  0.60827597301E+02  0.47602548006E+03  0.48246208830E+03  0.00000000000E+00 0.  1.
<mgrwt>
<rscale>  0 0.13163490E+04</rscale>
<asrwt>0</asrwt>
<pdfrwt beam="1">  1        2 0.13591061E+00 0.13163490E+04</pdfrwt>
<pdfrwt beam="2">  1       -1 0.75440055E-01 0.13163490E+04</pdfrwt>
<totfact> 0.59408929E+01</totfact>
</mgrwt>
</event>
<event>
12    7  0.1661464E-007  0.1154805E+04  0.7818608E-02  0.9153362E-01
          2   -1    0    0  501    0  0.00000000000E+00  0.00000000000E+00  0.17958498546E+04  0.17958498546E+04  0.00000000000E+00 0. -1.
         -1   -1    0    0    0  501 -0.00000000000E+00 -0.00000000000E+00 -0.18564668330E+03  0.18564668330E+03  0.00000000000E+00 0.  1.
         24    2    1    2    0    0 -0.33122266059E+02 -0.12434739337E+03  0.62477174911E+03  0.64306613185E+03  0.81455219012E+02 0.  0.
        254    2    1    2    0    0  0.33122266059E+02  0.12434739337E+03  0.98543142220E+03  0.13384304061E+04  0.89652747044E+03 0.  0.
         23    2    4    4    0    0  0.22129789840E+03 -0.32442158392E+03  0.35755225427E+03  0.53869633276E+03  0.90155423802E+02 0.  0.
         23    2    4    4    0    0 -0.18817563234E+03  0.44876897729E+03  0.62787916793E+03  0.79973407330E+03  0.92404950581E+02 0.  0.
          2    1    3    3  502    0 -0.51521083125E+02 -0.67700719192E+02  0.26281353422E+03  0.27624040826E+03  0.00000000000E+00 0. -1.
         -1    1    3    3    0  502  0.18398817066E+02 -0.56646674177E+02  0.36195821489E+03  0.36682572359E+03  0.00000000000E+00 0.  1.
         13    1    5    5    0    0  0.19619712677E+03 -0.28083595752E+03  0.34637382410E+03  0.48717242698E+03  0.00000000000E+00 0. -1.
        -13    1    5    5    0    0  0.25100771635E+02 -0.43585626396E+02  0.11178430167E+02  0.51523905772E+02  0.00000000000E+00 0.  1.
          1    1    6    6  503    0 -0.13742119866E+03  0.34260307557E+03  0.53416683241E+03  0.64930397971E+03  0.00000000000E+00 0. -1.
         -1    1    6    6    0  503 -0.50754433686E+02  0.10616590172E+03  0.93712335525E+02  0.15043009359E+03  0.00000000000E+00 0.  1.
<mgrwt>
<rscale>  0 0.11548049E+04</rscale>
<asrwt>0</asrwt>
<pdfrwt beam="1">  1        2 0.27628458E+00 0.11548049E+04</pdfrwt>
<pdfrwt beam="2">  1       -1 0.28561029E-01 0.11548049E+04</pdfrwt>
<totfact> 0.10880210E+02</totfact>
</mgrwt>
</event>
<event>
12    7  0.1661464E-007  0.2298260E+04  0.7818608E-02  0.8478608E-01
          2   -1    0    0  501    0  0.00000000000E+00  0.00000000000E+00  0.15980171838E+04  0.15980171838E+04  0.00000000000E+00 0. -1.
         -1   -1    0    0    0  501 -0.00000000000E+00 -0.00000000000E+00 -0.82633608326E+03  0.82633608326E+03  0.00000000000E+00 0.  1.
         24    2    1    2    0    0 -0.58267383639E+03  0.33638308160E+03  0.10658620848E+04  0.12629015306E+04  0.78714134925E+02 0.  0.
        254    2    1    2    0    0  0.58267383639E+03 -0.33638308160E+03 -0.29418098427E+03  0.11614517364E+04  0.89986960574E+03 0.  0.
         23    2    4    4    0    0 -0.90216573570E+02  0.20209786753E+03 -0.14934619108E+03  0.28287235048E+03  0.93433953531E+02 0.  0.
         23    2    4    4    0    0  0.67289040996E+03 -0.53848094913E+03 -0.14483479320E+03  0.87857938594E+03  0.90451001592E+02 0.  0.
          4    1    3    3  502    0 -0.12039294660E+03  0.67574455391E+02  0.16354954156E+03  0.21403088833E+03  0.00000000000E+00 0. -1.
         -3    1    3    3    0  502 -0.46228088979E+03  0.26880862620E+03  0.90231254323E+03  0.10488706423E+04  0.00000000000E+00 0.  1.
         13    1    5    5    0    0 -0.55042946950E+01  0.11158971103E+03 -0.98275615247E+02  0.14879737034E+03  0.00000000000E+00 0.  1.
        -13    1    5    5    0    0 -0.84712278875E+02  0.90508156504E+02 -0.51070575830E+02  0.13407498015E+03  0.00000000000E+00 0. -1.
          3    1    6    6  503    0  0.43516496062E+03 -0.32211817055E+03 -0.12995239640E+03  0.55679105963E+03  0.00000000000E+00 0. -1.
         -3    1    6    6    0  503  0.23772544934E+03 -0.21636277858E+03 -0.14882396801E+02  0.32178832631E+03  0.00000000000E+00 0.  1.
<mgrwt>
<rscale>  0 0.22982596E+04</rscale>
<asrwt>0</asrwt>
<pdfrwt beam="1">  1        2 0.24584880E+00 0.22982596E+04</pdfrwt>
<pdfrwt beam="2">  1       -1 0.12712863E+00 0.22982596E+04</pdfrwt>
<totfact> 0.61944912E+00</totfact>
</mgrwt>
</event>
<event>
12    7  0.1661464E-007  0.1368389E+04  0.7818608E-02  0.8977023E-01
         -1   -1    0    0    0  501 -0.00000000000E+00  0.00000000000E+00  0.55148429656E+03  0.55148429656E+03  0.00000000000E+00 0.  1.
          2   -1    0    0  501    0  0.00000000000E+00 -0.00000000000E+00 -0.84884073044E+03  0.84884073044E+03  0.00000000000E+00 0. -1.
         24    2    1    2    0    0  0.19105925135E+02 -0.31313967646E+03  0.12390631138E+03  0.34634347191E+03  0.78610006918E+02 0.  0.
        254    2    1    2    0    0 -0.19105925135E+02  0.31313967646E+03 -0.42126274526E+03  0.10539815551E+04  0.91377969149E+03 0.  0.
         23    2    4    4    0    0 -0.15846830706E+03  0.40713197318E+02 -0.63949947270E+03  0.66711924386E+03  0.96533627142E+02 0.  0.
         23    2    4    4    0    0  0.13936238192E+03  0.27242647914E+03  0.21823672744E+03  0.38686231123E+03  0.91635793313E+02 0.  0.
          2    1    3    3  502    0 -0.28894567192E+02 -0.78972058326E+02  0.38757900100E+02  0.92594043165E+02  0.00000000000E+00 0. -1.
         -1    1    3    3    0  502  0.48000492326E+02 -0.23416761814E+03  0.85148411282E+02  0.25374942875E+03  0.00000000000E+00 0.  1.
         13    1    5    5    0    0 -0.15401613907E+03  0.49833416077E+02 -0.46585966987E+03  0.49318310237E+03  0.00000000000E+00 0.  1.
        -13    1    5    5    0    0 -0.44521679871E+01 -0.91202187600E+01 -0.17363980283E+03  0.17393614149E+03  0.00000000000E+00 0. -1.
          2    1    6    6  503    0  0.72458275950E+02  0.93834481099E+02  0.38100776276E+02  0.12452622515E+03  0.00000000000E+00 0. -1.
         -2    1    6    6    0  503  0.66904105974E+02  0.17859199804E+03  0.18013595116E+03  0.26233608608E+03  0.00000000000E+00 0.  1.
<mgrwt>
<rscale>  0 0.13683893E+04</rscale>
<asrwt>0</asrwt>
<pdfrwt beam="1">  1        2 0.13059088E+00 0.13683893E+04</pdfrwt>
<pdfrwt beam="2">  1       -1 0.84843738E-01 0.13683893E+04</pdfrwt>
<totfact> 0.48689734E+01</totfact>
</mgrwt>
</event>
<event>
12    7  0.1661464E-007  0.1783693E+04  0.7818608E-02  0.8715020E-01
          2   -1    0    0  501    0  0.00000000000E+00  0.00000000000E+00  0.25206575537E+04  0.25206575537E+04  0.00000000000E+00 0. -1.
         -1   -1    0    0    0  501 -0.00000000000E+00 -0.00000000000E+00 -0.31554862249E+03  0.31554862249E+03  0.00000000000E+00 0.  1.
         24    2    1    2    0    0 -0.87069587554E+02  0.40235799865E+03 -0.22234296689E+00  0.41929781494E+03  0.79608642865E+02 0.  0.
        254    2    1    2    0    0  0.87069587554E+02 -0.40235799865E+03  0.22053312742E+04  0.24169083613E+04  0.89915901023E+03 0.  0.
         23    2    4    4    0    0  0.46706331728E+03 -0.25842394463E+03  0.93729548584E+03  0.10825690811E+04  0.92205802269E+02 0.  0.
         23    2    4    4    0    0 -0.37999372973E+03 -0.14393405402E+03  0.12680357884E+04  0.13343392802E+04  0.86222431163E+02 0.  0.
          4    1    3    3  502    0  0.13083312520E+02  0.81651446855E+02 -0.91532716984E+01  0.83198042182E+02  0.00000000000E+00 0. -1.
         -3    1    3    3    0  502 -0.10015290007E+03  0.32070655180E+03  0.89309287315E+01  0.33609977276E+03  0.00000000000E+00 0.  1.
         13    1    5    5    0    0  0.46291330972E+03 -0.25122081949E+03  0.88695875424E+03  0.10315505146E+04  0.00000000000E+00 0.  1.
        -13    1    5    5    0    0  0.41500075661E+01 -0.72031251427E+01  0.50336731599E+02  0.51018566451E+02  0.00000000000E+00 0. -1.
          1    1    6    6  503    0 -0.32484805355E+02 -0.18914639263E+02  0.21878162625E+03  0.22198744591E+03  0.00000000000E+00 0. -1.
         -1    1    6    6    0  503 -0.34750892437E+03 -0.12501941476E+03  0.10492541621E+04  0.11123518343E+04  0.00000000000E+00 0.  1.
<mgrwt>
<rscale>  0 0.17836928E+04</rscale>
<asrwt>0</asrwt>
<pdfrwt beam="1">  1        2 0.38779346E+00 0.17836928E+04</pdfrwt>
<pdfrwt beam="2">  1       -1 0.48545943E-01 0.17836928E+04</pdfrwt>
<totfact> 0.15494536E+01</totfact>
</mgrwt>
</event>
<event>
12    7  0.1661464E-007  0.1030721E+04  0.7818608E-02  0.9275477E-01
          2   -1    0    0  501    0  0.00000000000E+00  0.00000000000E+00  0.18848204325E+04  0.18848204325E+04  0.00000000000E+00 0. -1.
         -1   -1    0    0    0  501 -0.00000000000E+00 -0.00000000000E+00 -0.14091349577E+03  0.14091349577E+03  0.00000000000E+00 0.  1.
         24    2    1    2    0    0 -0.41134596696E+02  0.29838469752E+02  0.40280677437E+03  0.41388846196E+03  0.80423703857E+02 0.  0.
        254    2    1    2    0    0  0.41134596696E+02 -0.29838469752E+02  0.13411001624E+04  0.16118454663E+04  0.89270027021E+03 0.  0.
         23    2    4    4    0    0  0.18159069806E+03  0.35463799008E+03  0.96602510795E+03  0.10489065845E+04  0.90869291373E+02 0.  0.
         23    2    4    4    0    0 -0.14045610136E+03 -0.38447645983E+03  0.37507505440E+03  0.56293888183E+03  0.93106517828E+02 0.  0.
          2    1    3    3  502    0  0.24557821986E+01  0.13195623488E+02  0.30730368133E+03  0.30759666432E+03  0.00000000000E+00 0. -1.
         -1    1    3    3    0  502 -0.43590378894E+02  0.16642846264E+02  0.95503093042E+02  0.10629179764E+03  0.00000000000E+00 0.  1.
         13    1    5    5    0    0  0.19174417763E+03  0.34403921974E+03  0.93571621168E+03  0.10152308325E+04  0.00000000000E+00 0.  1.
        -13    1    5    5    0    0 -0.10153479569E+02  0.10598770341E+02  0.30308896264E+02  0.33675752002E+02  0.00000000000E+00 0. -1.
          3    1    6    6  503    0  0.78534350314E+01 -0.80375131848E+02  0.59938902041E+02  0.10057092144E+03  0.00000000000E+00 0. -1.
         -3    1    6    6    0  503 -0.14830953639E+03 -0.30410132799E+03  0.31513615236E+03  0.46236796039E+03  0.00000000000E+00 0.  1.
<mgrwt>
<rscale>  0 0.10307214E+04</rscale>
<asrwt>0</asrwt>
<pdfrwt beam="1">  1        2 0.28997236E+00 0.10307214E+04</pdfrwt>
<pdfrwt beam="2">  1       -1 0.21679001E-01 0.10307214E+04</pdfrwt>
<totfact> 0.15729368E+02</totfact>
</mgrwt>
</event>
<event>
12    7  0.1661464E-007  0.1265724E+04  0.7818608E-02  0.9057197E-01
         -1   -1    0    0    0  501 -0.00000000000E+00  0.00000000000E+00  0.10619977679E+04  0.10619977679E+04  0.00000000000E+00 0.  1.
          2   -1    0    0  501    0  0.00000000000E+00 -0.00000000000E+00 -0.37713282425E+03  0.37713282425E+03  0.00000000000E+00 0. -1.
         24    2    1    2    0    0  0.17742324663E+03  0.10560653178E+03 -0.83524270421E+02  0.23472043947E+03  0.74065058947E+02 0.  0.
        254    2    1    2    0    0 -0.17742324663E+03 -0.10560653178E+03  0.76838921403E+03  0.12044101526E+04  0.90418476182E+03 0.  0.
         23    2    4    4    0    0 -0.19403570913E+03 -0.33500816279E+03  0.40398500345E+00  0.39767498431E+03  0.90911519541E+02 0.  0.
         23    2    4    4    0    0  0.16612462500E+02  0.22940163101E+03  0.76798522903E+03  0.80673516832E+03  0.90106812064E+02 0.  0.
          2    1    3    3  502    0  0.16680631806E+03  0.11209301064E+03 -0.90554651982E+02  0.22042988857E+03  0.00000000000E+00 0. -1.
         -1    1    3    3    0  502  0.10616928569E+02 -0.64864788575E+01  0.70303815606E+01  0.14290550903E+02  0.00000000000E+00 0.  1.
         13    1    5    5    0    0 -0.18876512419E+03 -0.28851511273E+03  0.23332067581E+02  0.34556855726E+03  0.00000000000E+00 0. -1.
        -13    1    5    5    0    0 -0.52705849381E+01 -0.46493050059E+02 -0.22928082577E+02  0.52106427051E+02  0.00000000000E+00 0.  1.
          3    1    6    6  503    0 -0.50240314325E+01  0.19812609403E+03  0.53224584417E+03  0.56794791017E+03  0.00000000000E+00 0. -1.
         -3    1    6    6    0  503  0.21636493932E+02  0.31275536977E+02  0.23573938485E+03  0.23878725815E+03  0.00000000000E+00 0.  1.
<mgrwt>
<rscale>  0 0.12657239E+04</rscale>
<asrwt>0</asrwt>
<pdfrwt beam="1">  1        2 0.58020435E-01 0.12657239E+04</pdfrwt>
<pdfrwt beam="2">  1       -1 0.16338427E+00 0.12657239E+04</pdfrwt>
<totfact> 0.26332862E+01</totfact>
</mgrwt>
</event>
<event>
12    7  0.1661464E-007  0.3207806E+04  0.7818608E-02  0.8186759E-01
         -1   -1    0    0    0  501 -0.00000000000E+00  0.00000000000E+00  0.10310864474E+04  0.10310864474E+04  0.00000000000E+00 0.  1.
          2   -1    0    0  501    0  0.00000000000E+00 -0.00000000000E+00 -0.24949454566E+04  0.24949454566E+04  0.00000000000E+00 0. -1.
         24    2    1    2    0    0 -0.60295320373E+03 -0.13406952403E+04 -0.56705959479E+03  0.15779061464E+04  0.84940743014E+02 0.  0.
        254    2    1    2    0    0  0.60295320373E+03  0.13406952403E+04 -0.89679941438E+03  0.19481257576E+04  0.91100410791E+03 0.  0.
         23    2    4    4    0    0  0.80806014911E+03  0.11646101009E+04 -0.61786807216E+03  0.15490465759E+04  0.92230407146E+02 0.  0.
         23    2    4    4    0    0 -0.20510694538E+03  0.17608513938E+03 -0.27893134222E+03  0.39907918171E+03  0.91578732530E+02 0.  0.
          2    1    3    3  502    0 -0.15444857356E+03 -0.26934182590E+03 -0.10192013893E+03  0.32678294903E+03  0.00000000000E+00 0. -1.
         -3    1    3    3    0  502 -0.44850463018E+03 -0.10713534144E+04 -0.46513945585E+03  0.12511231974E+04  0.00000000000E+00 0.  1.
         13    1    5    5    0    0  0.36430236671E+03  0.60524600271E+03 -0.31386485541E+03  0.77301363872E+03  0.00000000000E+00 0. -1.
        -13    1    5    5    0    0  0.44375778241E+03  0.55936409817E+03 -0.30400321675E+03  0.77603293716E+03  0.00000000000E+00 0.  1.
          3    1    6    6  503    0 -0.74302771643E+02  0.14921381273E+02 -0.54296607608E+02  0.93229132199E+02  0.00000000000E+00 0. -1.
         -3    1    6    6    0  503 -0.13080417374E+03  0.16116375810E+03 -0.22463473462E+03  0.30585004952E+03  0.00000000000E+00 0.  1.
<mgrwt>
<rscale>  0 0.32078058E+04</rscale>
<asrwt>0</asrwt>
<pdfrwt beam="1">  1        2 0.38383776E+00 0.32078058E+04</pdfrwt>
<pdfrwt beam="2">  1       -1 0.15862868E+00 0.32078058E+04</pdfrwt>
<totfact> 0.10031115E+00</totfact>
</mgrwt>
</event>
<event>
12    7  0.1661464E-007  0.2845262E+04  0.7818608E-02  0.8289352E-01
          2   -1    0    0  501    0  0.00000000000E+00  0.00000000000E+00  0.94510324473E+03  0.94510324473E+03  0.00000000000E+00 0. -1.
         -1   -1    0    0    0  501 -0.00000000000E+00 -0.00000000000E+00 -0.21414375748E+04  0.21414375748E+04  0.00000000000E+00 0.  1.
         24    2    1    2    0    0  0.12045223457E+04 -0.42092749937E+03 -0.65795145451E+03  0.14378045532E+04  0.79547317439E+02 0.  0.
        254    2    1    2    0    0 -0.12045223457E+04  0.42092749937E+03 -0.53838287559E+03  0.16487362663E+04  0.89466256996E+03 0.  0.
         23    2    4    4    0    0 -0.23856201866E+03  0.41852171565E+03 -0.46528638063E+03  0.67583485061E+03  0.90493458749E+02 0.  0.
         23    2    4    4    0    0 -0.96596032707E+03  0.24057837128E+01 -0.73096494959E+02  0.97290141572E+03  0.90049574444E+02 0.  0.
          2    1    3    3  502    0  0.33426023748E+03 -0.14610646054E+03 -0.21390639494E+03  0.42288645044E+03  0.00000000000E+00 0. -1.
         -1    1    3    3    0  502  0.87026210825E+03 -0.27482103883E+03 -0.44404505958E+03  0.10149181028E+04  0.00000000000E+00 0.  1.
         13    1    5    5    0    0 -0.26929717800E+02  0.86780214369E+01 -0.19491140498E+02  0.34357274554E+02  0.00000000000E+00 0.  1.
        -13    1    5    5    0    0 -0.21163230086E+03  0.40984369422E+03 -0.44579524013E+03  0.64147757605E+03  0.00000000000E+00 0. -1.
          2    1    6    6  503    0 -0.80587249545E+03 -0.28415559619E+02 -0.46447595732E+02  0.80770991210E+03  0.00000000000E+00 0. -1.
         -2    1    6    6    0  503 -0.16008783162E+03  0.30821343332E+02 -0.26648899228E+02  0.16519150362E+03  0.00000000000E+00 0.  1.
<mgrwt>
<rscale>  0 0.28452624E+04</rscale>
<asrwt>0</asrwt>
<pdfrwt beam="1">  1        2 0.14540050E+00 0.28452624E+04</pdfrwt>
<pdfrwt beam="2">  1       -1 0.32945193E+00 0.28452624E+04</pdfrwt>
<totfact> 0.57368778E-01</totfact>
</mgrwt>
</event>
<event>
12    7  0.1661464E-007  0.1326019E+04  0.7818608E-02  0.9009183E-01
          2   -1    0    0  501    0  0.00000000000E+00  0.00000000000E+00  0.50626245323E+03  0.50626245323E+03  0.00000000000E+00 0. -1.
         -1   -1    0    0    0  501 -0.00000000000E+00 -0.00000000000E+00 -0.86828734053E+03  0.86828734053E+03  0.00000000000E+00 0.  1.
         24    2    1    2    0    0  0.65501350163E+02  0.10535627994E+03  0.24057909095E+03  0.28322890667E+03  0.83366311989E+02 0.  0.
        254    2    1    2    0    0 -0.65501350163E+02 -0.10535627994E+03 -0.60260397825E+03  0.10913208871E+04  0.90136527079E+03 0.  0.
         23    2    4    4    0    0  0.28461609887E+03 -0.32508497092E+03 -0.47842266122E+03  0.65055087492E+03  0.87416451743E+02 0.  0.
         23    2    4    4    0    0 -0.35011744903E+03  0.21972869097E+03 -0.12418131703E+03  0.44077001217E+03  0.89410728516E+02 0.  0.
          2    1    3    3  502    0  0.67702317903E+02  0.84230474314E+02  0.12292632151E+03  0.16367424102E+03  0.00000000000E+00 0. -1.
         -1    1    3    3    0  502 -0.22009677402E+01  0.21125805627E+02  0.11765276944E+03  0.11955466565E+03  0.00000000000E+00 0.  1.
         13    1    5    5    0    0  0.20299717333E+03 -0.25581048819E+03 -0.40717056921E+03  0.52195280503E+03  0.00000000000E+00 0.  1.
        -13    1    5    5    0    0  0.81618925537E+02 -0.69274482728E+02 -0.71252092014E+02  0.12859806989E+03  0.00000000000E+00 0. -1.
          2    1    6    6  503    0 -0.56829198484E+02  0.64395942514E+00 -0.16556803444E+02  0.59195440909E+02  0.00000000000E+00 0. -1.
         -2    1    6    6    0  503 -0.29328825055E+03  0.21908473155E+03 -0.10762451358E+03  0.38157457126E+03  0.00000000000E+00 0.  1.
<mgrwt>
<rscale>  0 0.13260185E+04</rscale>
<asrwt>0</asrwt>
<pdfrwt beam="1">  1        2 0.77886532E-01 0.13260185E+04</pdfrwt>
<pdfrwt beam="2">  1       -1 0.13358267E+00 0.13260185E+04</pdfrwt>
<totfact> 0.32143351E+01</totfact>
</mgrwt>
</event>
<event>
12    7  0.1661464E-007  0.1957965E+04  0.7818608E-02  0.8626529E-01
         -1   -1    0    0    0  501 -0.00000000000E+00  0.00000000000E+00  0.45901569911E+03  0.45901569911E+03  0.00000000000E+00 0.  1.
          2   -1    0    0  501    0  0.00000000000E+00 -0.00000000000E+00 -0.20879611599E+04  0.20879611599E+04  0.00000000000E+00 0. -1.
         24    2    1    2    0    0 -0.35054021802E+02 -0.69002487785E+03 -0.10441801542E+04  0.12545738690E+04  0.79248229550E+02 0.  0.
        254    2    1    2    0    0  0.35054021802E+02  0.69002487785E+03 -0.58476530661E+03  0.12924029900E+04  0.92249222669E+03 0.  0.
         23    2    4    4    0    0 -0.35935256878E+03  0.57171891017E+02 -0.32801003330E+03  0.49846886476E+03  0.92074607698E+02 0.  0.
         23    2    4    4    0    0  0.39440659058E+03  0.63285298683E+03 -0.25675527332E+03  0.79393412526E+03  0.91371019752E+02 0.  0.
          2    1    3    3  502    0 -0.30656183382E+02 -0.64749362736E+03 -0.93878135994E+03  0.11408322580E+04  0.00000000000E+00 0. -1.
         -1    1    3    3    0  502 -0.43978384201E+01 -0.42531250483E+02 -0.10539879426E+03  0.11374161104E+03  0.00000000000E+00 0.  1.
         13    1    5    5    0    0 -0.13671279055E+03 -0.55048101639E+01 -0.76426548665E+02  0.15672175145E+03  0.00000000000E+00 0. -1.
        -13    1    5    5    0    0 -0.22263977822E+03  0.62676701180E+02 -0.25158348463E+03  0.34174711331E+03  0.00000000000E+00 0.  1.
          3    1    6    6  503    0  0.28963203952E+02  0.66572596075E+02  0.34243043132E+00  0.72600929677E+02  0.00000000000E+00 0.  1.
         -3    1    6    6    0  503  0.36544338663E+03  0.56628039075E+03 -0.25709770375E+03  0.72133319559E+03  0.00000000000E+00 0. -1.
<mgrwt>
<rscale>  0 0.19579652E+04</rscale>
<asrwt>0</asrwt>
<pdfrwt beam="1">  1        2 0.32122479E+00 0.19579652E+04</pdfrwt>
<pdfrwt beam="2">  1       -1 0.70617800E-01 0.19579652E+04</pdfrwt>
<totfact> 0.12833981E+01</totfact>
</mgrwt>
</event>
<event>
12    7  0.1661464E-007  0.1008658E+04  0.7818608E-02  0.9299099E-01
         -1   -1    0    0    0  501 -0.00000000000E+00  0.00000000000E+00  0.25666854396E+03  0.25666854396E+03  0.00000000000E+00 0.  1.
          2   -1    0    0  501    0  0.00000000000E+00 -0.00000000000E+00 -0.99095843684E+03  0.99095843684E+03  0.00000000000E+00 0. -1.
         24    2    1    2    0    0  0.81595989626E+02 -0.45935512573E+02 -0.26043674186E+02  0.12465142017E+03  0.78049514719E+02 0.  0.
        254    2    1    2    0    0 -0.81595989626E+02  0.45935512573E+02 -0.70824621870E+03  0.11229755606E+04  0.86642566134E+03 0.  0.
         23    2    4    4    0    0 -0.23683897243E+03 -0.13767876719E+02 -0.84909031263E+03  0.88630542858E+03  0.91108179873E+02 0.  0.
         23    2    4    4    0    0  0.15524298280E+03  0.59703389293E+02  0.14084409393E+03  0.23667013205E+03  0.92254074205E+02 0.  0.
          2    1    3    3  502    0  0.53982849127E+02  0.16306879024E+00 -0.42220940064E+02  0.68533075016E+02  0.00000000000E+00 0. -1.
         -1    1    3    3    0  502  0.27613140498E+02 -0.46098581364E+02  0.16177265878E+02  0.56118345157E+02  0.00000000000E+00 0.  1.
         13    1    5    5    0    0 -0.13423988368E+03 -0.27305975736E+01 -0.31636805397E+03  0.34368088121E+03  0.00000000000E+00 0. -1.
        -13    1    5    5    0    0 -0.10259908875E+03 -0.11037279146E+02 -0.53272225865E+03  0.54262454737E+03  0.00000000000E+00 0.  1.
          3    1    6    6  503    0  0.30560674718E+02 -0.27675508641E+01 -0.89932055658E+01  0.31976427621E+02  0.00000000000E+00 0. -1.
         -3    1    6    6    0  503  0.12468230808E+03  0.62470940157E+02  0.14983729949E+03  0.20469370443E+03  0.00000000000E+00 0.  1.
<mgrwt>
<rscale>  0 0.10086582E+04</rscale>
<asrwt>0</asrwt>
<pdfrwt beam="1">  1        2 0.15245514E+00 0.10086582E+04</pdfrwt>
<pdfrwt beam="2">  1       -1 0.39487468E-01 0.10086582E+04</pdfrwt>
<totfact> 0.18099031E+02</totfact>
</mgrwt>
</event>
<event>
12    7  0.1661464E-007  0.1533864E+04  0.7818608E-02  0.8862241E-01
          2   -1    0    0  501    0  0.00000000000E+00  0.00000000000E+00  0.58566112046E+03  0.58566112046E+03  0.00000000000E+00 0. -1.
         -1   -1    0    0    0  501 -0.00000000000E+00 -0.00000000000E+00 -0.10043093514E+04  0.10043093514E+04  0.00000000000E+00 0.  1.
         24    2    1    2    0    0 -0.27357765905E+03 -0.41284821882E+03 -0.21905483245E+03  0.54757877972E+03  0.81050065176E+02 0.  0.
        254    2    1    2    0    0  0.27357765905E+03  0.41284821882E+03 -0.19959339845E+03  0.10423916921E+04  0.89523992746E+03 0.  0.
         23    2    4    4    0    0  0.19274671846E+03  0.67468978527E+03 -0.24881760372E+03  0.75014242253E+03  0.91901307560E+02 0.  0.
         23    2    4    4    0    0  0.80830940590E+02 -0.26184156645E+03  0.49224205276E+02  0.29224926956E+03  0.88836739555E+02 0.  0.
          2    1    3    3  502    0 -0.19163225130E+03 -0.26261854696E+03 -0.10384535517E+03  0.34128474730E+03  0.00000000000E+00 0. -1.
         -1    1    3    3    0  502 -0.81945407748E+02 -0.15022967186E+03 -0.11520947728E+03  0.20629403243E+03  0.00000000000E+00 0.  1.
         13    1    5    5    0    0  0.12249577672E+03  0.53429628270E+03 -0.16653863643E+03  0.57289863889E+03  0.00000000000E+00 0.  1.
        -13    1    5    5    0    0  0.70250941735E+02  0.14039350257E+03 -0.82278967295E+02  0.17724378364E+03  0.00000000000E+00 0. -1.
          4    1    6    6  503    0  0.60753346435E+01 -0.13225173539E+02  0.28265569265E+02  0.31792409661E+02  0.00000000000E+00 0. -1.
         -4    1    6    6    0  503  0.74755605947E+02 -0.24861639291E+03  0.20958636012E+02  0.26045685990E+03  0.00000000000E+00 0.  1.
<mgrwt>
<rscale>  0 0.15338643E+04</rscale>
<asrwt>0</asrwt>
<pdfrwt beam="1">  1        2 0.90101711E-01 0.15338643E+04</pdfrwt>
<pdfrwt beam="2">  1       -1 0.15450913E+00 0.15338643E+04</pdfrwt>
<totfact> 0.18104652E+01</totfact>
</mgrwt>
</event>
<event>
12    7  0.1661464E-007  0.1393386E+04  0.7818608E-02  0.8958620E-01
          2   -1    0    0  501    0  0.00000000000E+00  0.00000000000E+00  0.11485195432E+04  0.11485195432E+04  0.00000000000E+00 0. -1.
         -1   -1    0    0    0  501 -0.00000000000E+00 -0.00000000000E+00 -0.42261440354E+03  0.42261440354E+03  0.00000000000E+00 0.  1.
         24    2    1    2    0    0  0.29975998870E+03 -0.13433532391E+03  0.13421480894E+03  0.36400413087E+03  0.81137921320E+02 0.  0.
        254    2    1    2    0    0 -0.29975998870E+03  0.13433532391E+03  0.59169033075E+03  0.12071298159E+04  0.99958136981E+03 0.  0.
         23    2    4    4    0    0  0.97425830170E+02 -0.23060926375E+03  0.60443474652E+03  0.66062016318E+03  0.91679944824E+02 0.  0.
         23    2    4    4    0    0 -0.39718581887E+03  0.36494458766E+03 -0.12744415774E+02  0.54650965273E+03  0.87001457547E+02 0.  0.
          2    1    3    3  502    0  0.68743553830E+02  0.11063096703E+00  0.10761336264E+02  0.69580850747E+02  0.00000000000E+00 0. -1.
         -1    1    3    3    0  502  0.23101643487E+03 -0.13444595488E+03  0.12345347268E+03  0.29442328012E+03  0.00000000000E+00 0.  1.
         13    1    5    5    0    0  0.29438113924E+01 -0.29567552393E+02  0.17116111786E+03  0.17372113990E+03  0.00000000000E+00 0. -1.
        -13    1    5    5    0    0  0.94482018778E+02 -0.20104171136E+03  0.43327362866E+03  0.48689902328E+03  0.00000000000E+00 0.  1.
          4    1    6    6  503    0 -0.14710884394E+03  0.97773769107E+02 -0.34258166188E+02  0.17992871878E+03  0.00000000000E+00 0. -1.
         -4    1    6    6    0  503 -0.25007697493E+03  0.26717081856E+03  0.21513750414E+02  0.36658093395E+03  0.00000000000E+00 0.  1.
<mgrwt>
<rscale>  0 0.13933857E+04</rscale>
<asrwt>0</asrwt>
<pdfrwt beam="1">  1        2 0.17669531E+00 0.13933857E+04</pdfrwt>
<pdfrwt beam="2">  1       -1 0.65017601E-01 0.13933857E+04</pdfrwt>
<totfact> 0.54185811E+01</totfact>
</mgrwt>
</event>
<event>
12    7  0.1661464E-007  0.1227009E+04  0.7818608E-02  0.9089538E-01
         -1   -1    0    0    0  501 -0.00000000000E+00  0.00000000000E+00  0.24302824447E+03  0.24302824447E+03  0.00000000000E+00 0.  1.
          2   -1    0    0  501    0  0.00000000000E+00 -0.00000000000E+00 -0.15487416598E+04  0.15487416598E+04  0.00000000000E+00 0. -1.
         24    2    1    2    0    0 -0.22641605798E+03  0.12488657889E+03 -0.38608203744E+03  0.47332635440E+03  0.90097775978E+02 0.  0.
        254    2    1    2    0    0  0.22641605798E+03 -0.12488657889E+03 -0.91963137785E+03  0.13184435498E+04  0.90868621320E+03 0.  0.
         23    2    4    4    0    0  0.93103624708E+02 -0.31551778040E+03  0.25871733567E+02  0.34016675459E+03  0.82609440403E+02 0.  0.
         23    2    4    4    0    0  0.13331243327E+03  0.19063120151E+03 -0.94550311142E+03  0.97827679524E+03  0.94535149807E+02 0.  0.
          4    1    3    3  502    0 -0.10008045942E+03  0.27317582629E+02 -0.21855494555E+03  0.24192687512E+03  0.00000000000E+00 0. -1.
         -3    1    3    3    0  502 -0.12633559857E+03  0.97568996260E+02 -0.16752709188E+03  0.23139947928E+03  0.00000000000E+00 0.  1.
         13    1    5    5    0    0  0.24667491639E+02 -0.21290973291E+03  0.31839158005E+02  0.21668588208E+03  0.00000000000E+00 0. -1.
        -13    1    5    5    0    0  0.68436133069E+02 -0.10260804749E+03 -0.59674244374E+01  0.12348087250E+03  0.00000000000E+00 0.  1.
          3    1    6    6  503    0  0.85589141722E+02  0.18345503695E+03 -0.74083597982E+03  0.76799687549E+03  0.00000000000E+00 0. -1.
         -3    1    6    6    0  503  0.47723291551E+02  0.71761645597E+01 -0.20466713160E+03  0.21027991975E+03  0.00000000000E+00 0.  1.
<mgrwt>
<rscale>  0 0.12270093E+04</rscale>
<asrwt>0</asrwt>
<pdfrwt beam="1">  1        2 0.23826794E+00 0.12270093E+04</pdfrwt>
<pdfrwt beam="2">  1       -1 0.37388963E-01 0.12270093E+04</pdfrwt>
<totfact> 0.92080989E+01</totfact>
</mgrwt>
</event>
<event>
12    7  0.1661464E-007  0.1351706E+04  0.7818608E-02  0.8989538E-01
          2   -1    0    0  501    0  0.00000000000E+00  0.00000000000E+00  0.67744379800E+03  0.67744379800E+03  0.00000000000E+00 0. -1.
         -1   -1    0    0    0  501 -0.00000000000E+00 -0.00000000000E+00 -0.67426559630E+03  0.67426559630E+03  0.00000000000E+00 0.  1.
         24    2    1    2    0    0 -0.27775725933E+03 -0.11291812675E+03  0.20991603090E+03  0.37466869243E+03  0.80076779403E+02 0.  0.
        254    2    1    2    0    0  0.27775725933E+03  0.11291812675E+03 -0.20673782920E+03  0.97704070187E+03  0.90662473197E+03 0.  0.
         23    2    4    4    0    0  0.44196283296E+03 -0.18898605301E+03  0.10959806288E+03  0.50128669775E+03  0.90717936523E+02 0.  0.
         23    2    4    4    0    0 -0.16420557363E+03  0.30190417975E+03 -0.31633589208E+03  0.47575400411E+03  0.90354145711E+02 0.  0.
          2    1    3    3  502    0 -0.13759689956E+03 -0.73915452496E+02  0.64552743668E+02  0.16900727085E+03  0.00000000000E+00 0. -1.
         -1    1    3    3    0  502 -0.14016035977E+03 -0.39002674249E+02  0.14536328724E+03  0.20566142158E+03  0.00000000000E+00 0.  1.
         13    1    5    5    0    0  0.12349203860E+03 -0.52040644644E+02 -0.10465925598E+02  0.13441743894E+03  0.00000000000E+00 0. -1.
        -13    1    5    5    0    0  0.31847079436E+03 -0.13694540837E+03  0.12006398848E+03  0.36686925881E+03  0.00000000000E+00 0.  1.
          4    1    6    6  503    0 -0.57692596236E+02  0.19015927968E+03 -0.20432941692E+03  0.28502543383E+03  0.00000000000E+00 0.  1.
         -4    1    6    6    0  503 -0.10651297739E+03  0.11174490008E+03 -0.11200647516E+03  0.19072857029E+03  0.00000000000E+00 0. -1.
<mgrwt>
<rscale>  0 0.13517057E+04</rscale>
<asrwt>0</asrwt>
<pdfrwt beam="1">  1        2 0.10422212E+00 0.13517057E+04</pdfrwt>
<pdfrwt beam="2">  1       -1 0.10373317E+00 0.13517057E+04</pdfrwt>
<totfact> 0.41742695E+01</totfact>
</mgrwt>
</event>
<event>
12    7  0.1661464E-007  0.2002131E+04  0.7818608E-02  0.8605625E-01
         -3   -1    0    0    0  501 -0.00000000000E+00  0.00000000000E+00  0.20890085517E+04  0.20890085517E+04  0.00000000000E+00 0.  1.
          4   -1    0    0  501    0  0.00000000000E+00 -0.00000000000E+00 -0.47971681223E+03  0.47971681223E+03  0.00000000000E+00 0. -1.
         24    2    1    2    0    0 -0.15867172177E+03  0.37235362342E+03  0.15225016792E+04  0.15775173418E+04  0.82010147698E+02 0.  0.
        254    2    1    2    0    0  0.15867172177E+03 -0.37235362342E+03  0.86790060196E+02  0.99120802206E+03  0.90063138536E+03 0.  0.
         23    2    4    4    0    0  0.28971981240E+03 -0.52809927750E+03  0.30385118418E+03  0.68110761575E+03  0.93571499490E+02 0.  0.
         23    2    4    4    0    0 -0.13104809063E+03  0.15574565408E+03 -0.21706112398E+03  0.31010040631E+03  0.87272101072E+02 0.  0.
          2    1    3    3  502    0 -0.61767544344E+02  0.88316976042E+02  0.52033867756E+03  0.53138259019E+03  0.00000000000E+00 0. -1.
         -1    1    3    3    0  502 -0.96904177422E+02  0.28403664737E+03  0.10021630017E+04  0.10461347516E+04  0.00000000000E+00 0.  1.
         13    1    5    5    0    0  0.12915330596E+03 -0.15120300041E+03  0.11819975269E+03  0.23133115940E+03  0.00000000000E+00 0. -1.
        -13    1    5    5    0    0  0.16056650644E+03 -0.37689627709E+03  0.18565143149E+03  0.44977645635E+03  0.00000000000E+00 0.  1.
          4    1    6    6  503    0 -0.70468677068E+02  0.60267144112E+02 -0.15629719818E+03  0.18173270830E+03  0.00000000000E+00 0. -1.
         -4    1    6    6    0  503 -0.60579413566E+02  0.95478509971E+02 -0.60763925807E+02  0.12836769801E+03  0.00000000000E+00 0.  1.
<mgrwt>
<rscale>  0 0.20021314E+04</rscale>
<asrwt>0</asrwt>
<pdfrwt beam="1">  1        4 0.73802588E-01 0.20021314E+04</pdfrwt>
<pdfrwt beam="2">  1       -3 0.32138593E+00 0.20021314E+04</pdfrwt>
<totfact> 0.10237377E-01</totfact>
</mgrwt>
</event>
<event>
12    7  0.1661464E-007  0.2050274E+04  0.7818608E-02  0.8583470E-01
          2   -1    0    0  501    0  0.00000000000E+00  0.00000000000E+00  0.12621360280E+04  0.12621360280E+04  0.00000000000E+00 0. -1.
         -1   -1    0    0    0  501 -0.00000000000E+00 -0.00000000000E+00 -0.83264105808E+03  0.83264105808E+03  0.00000000000E+00 0.  1.
         24    2    1    2    0    0  0.50734321411E+03  0.10274729592E+03 -0.48985431172E+03  0.71740798306E+03  0.82236389332E+02 0.  0.
        254    2    1    2    0    0 -0.50734321411E+03 -0.10274729592E+03  0.91934928163E+03  0.13773691030E+04  0.88543119473E+03 0.  0.
         23    2    4    4    0    0 -0.33407524520E+03 -0.27652913638E+03  0.24159460448E+02  0.44453749061E+03  0.94632279381E+02 0.  0.
         23    2    4    4    0    0 -0.17326796891E+03  0.17378184047E+03  0.89518982118E+03  0.93283161242E+03  0.92671916152E+02 0.  0.
          2    1    3    3  502    0  0.33228958507E+03  0.50750014586E+02 -0.26692606957E+03  0.42923357154E+03  0.00000000000E+00 0. -1.
         -1    1    3    3    0  502  0.17505362905E+03  0.51997281330E+02 -0.22292824214E+03  0.28817441152E+03  0.00000000000E+00 0.  1.
         13    1    5    5    0    0 -0.14184648861E+03 -0.14173740334E+03 -0.32191321964E+02  0.20309160260E+03  0.00000000000E+00 0. -1.
        -13    1    5    5    0    0 -0.19222875659E+03 -0.13479173304E+03  0.56350782411E+02  0.24144588800E+03  0.00000000000E+00 0.  1.
          2    1    6    6  503    0 -0.42443679942E+00 -0.53500441392E+01  0.22063107694E+01  0.58026654305E+01  0.00000000000E+00 0. -1.
         -2    1    6    6    0  503 -0.17284353211E+03  0.17913188461E+03  0.89298351042E+03  0.92702894699E+03  0.00000000000E+00 0.  1.
<mgrwt>
<rscale>  0 0.20502744E+04</rscale>
<asrwt>0</asrwt>
<pdfrwt beam="1">  1        2 0.19417477E+00 0.20502744E+04</pdfrwt>
<pdfrwt beam="2">  1       -1 0.12809862E+00 0.20502744E+04</pdfrwt>
<totfact> 0.96601014E+00</totfact>
</mgrwt>
</event>
<event>
12    7  0.1661464E-007  0.1492323E+04  0.7818608E-02  0.8889574E-01
          2   -1    0    0  501    0  0.00000000000E+00  0.00000000000E+00  0.23406192498E+04  0.23406192498E+04  0.00000000000E+00 0. -1.
         -1   -1    0    0    0  501 -0.00000000000E+00 -0.00000000000E+00 -0.23786729431E+03  0.23786729431E+03  0.00000000000E+00 0.  1.
         24    2    1    2    0    0 -0.35519684793E+03  0.78656171173E+02  0.11828763411E+04  0.12401693444E+04  0.80448556836E+02 0.  0.
        254    2    1    2    0    0  0.35519684793E+03 -0.78656171173E+02  0.91987561435E+03  0.13383171997E+04  0.90142675084E+03 0.  0.
         23    2    4    4    0    0 -0.22288382851E+03 -0.17056863836E+03  0.59147496743E+03  0.66096809150E+03  0.90913802486E+02 0.  0.
         23    2    4    4    0    0  0.57808067644E+03  0.91912467183E+02  0.32840064692E+03  0.67734910821E+03  0.91266967720E+02 0.  0.
          2    1    3    3  502    0 -0.27721796109E+03  0.62237834743E+02  0.10201937288E+04  0.10590177479E+04  0.00000000000E+00 0. -1.
         -1    1    3    3    0  502 -0.77978886832E+02  0.16418336430E+02  0.16268261232E+03  0.18115159650E+03  0.00000000000E+00 0.  1.
         13    1    5    5    0    0 -0.56398456027E+02 -0.25271235478E+02  0.22213716313E+03  0.23057393701E+03  0.00000000000E+00 0.  1.
        -13    1    5    5    0    0 -0.16648537249E+03 -0.14529740288E+03  0.36933780431E+03  0.43039415450E+03  0.00000000000E+00 0. -1.
          1    1    6    6  503    0  0.40436893104E+03  0.88323007380E+02  0.26940983095E+03  0.49385913278E+03  0.00000000000E+00 0. -1.
         -1    1    6    6    0  503  0.17371174541E+03  0.35894598031E+01  0.58990815966E+02  0.18348997543E+03  0.00000000000E+00 0.  1.
<mgrwt>
<rscale>  0 0.14923227E+04</rscale>
<asrwt>0</asrwt>
<pdfrwt beam="1">  1        2 0.36009525E+00 0.14923227E+04</pdfrwt>
<pdfrwt beam="2">  1       -1 0.36594970E-01 0.14923227E+04</pdfrwt>
<totfact> 0.33957258E+01</totfact>
</mgrwt>
</event>
<event>
12    7  0.1661464E-007  0.1870554E+04  0.7818608E-02  0.8669654E-01
         -1   -1    0    0    0  501 -0.00000000000E+00  0.00000000000E+00  0.47447128897E+03  0.47447128897E+03  0.00000000000E+00 0.  1.
          2   -1    0    0  501    0  0.00000000000E+00 -0.00000000000E+00 -0.18436168325E+04  0.18436168325E+04  0.00000000000E+00 0. -1.
         24    2    1    2    0    0 -0.11600417461E+03  0.66396365002E+03 -0.22766755734E+03  0.71593623727E+03  0.80171579149E+02 0.  0.
        254    2    1    2    0    0  0.11600417461E+03 -0.66396365002E+03 -0.11414779862E+04  0.16021518842E+04  0.89978551336E+03 0.  0.
         23    2    4    4    0    0  0.45296257377E+03 -0.50255554621E+03 -0.46989051939E+03  0.82838968302E+03  0.87722268935E+02 0.  0.
         23    2    4    4    0    0 -0.33695839916E+03 -0.16140810381E+03 -0.67158746684E+03  0.77376220122E+03  0.89914846816E+02 0.  0.
          2    1    3    3  502    0 -0.74951233659E+01  0.51492789295E+02  0.39926790040E+01  0.52188367566E+02  0.00000000000E+00 0. -1.
         -1    1    3    3    0  502 -0.10850905124E+03  0.61247086072E+03 -0.23166023634E+03  0.66374786970E+03  0.00000000000E+00 0.  1.
         13    1    5    5    0    0  0.32580512672E+01 -0.28933057979E+02 -0.20214409459E+02  0.35445156113E+02  0.00000000000E+00 0. -1.
        -13    1    5    5    0    0  0.44970452250E+03 -0.47362248823E+03 -0.44967610994E+03  0.79294452691E+03  0.00000000000E+00 0.  1.
          4    1    6    6  503    0 -0.12813543336E+02  0.27686174980E+01 -0.67959068665E+02  0.69211900346E+02  0.00000000000E+00 0. -1.
         -4    1    6    6    0  503 -0.32414485582E+03 -0.16417672130E+03 -0.60362839818E+03  0.70455030087E+03  0.00000000000E+00 0.  1.
<mgrwt>
<rscale>  0 0.18705542E+04</rscale>
<asrwt>0</asrwt>
<pdfrwt beam="1">  1        2 0.28363336E+00 0.18705542E+04</pdfrwt>
<pdfrwt beam="2">  1       -1 0.72995584E-01 0.18705542E+04</pdfrwt>
<totfact> 0.16506141E+01</totfact>
</mgrwt>
</event>
<event>
12    7  0.1661464E-007  0.2006858E+04  0.7818608E-02  0.8603421E-01
         -1   -1    0    0    0  501 -0.00000000000E+00  0.00000000000E+00  0.79149732839E+03  0.79149732839E+03  0.00000000000E+00 0.  1.
          2   -1    0    0  501    0  0.00000000000E+00 -0.00000000000E+00 -0.12721075521E+04  0.12721075521E+04  0.00000000000E+00 0. -1.
         24    2    1    2    0    0  0.27265032528E+03 -0.44381829476E+02 -0.96215479167E+03  0.10042202855E+04  0.80053682569E+02 0.  0.
        254    2    1    2    0    0 -0.27265032528E+03  0.44381829476E+02  0.48154456791E+03  0.10593845950E+04  0.90227634490E+03 0.  0.
         23    2    4    4    0    0 -0.59271366502E+03 -0.19831503037E+02  0.25883468103E+03  0.65328195298E+03  0.89884040707E+02 0.  0.
         23    2    4    4    0    0  0.32006333974E+03  0.64213332513E+02  0.22270988688E+03  0.40610264201E+03  0.93572264148E+02 0.  0.
          2    1    3    3  502    0  0.21250435698E+03 -0.66782077634E+02 -0.71707448644E+03  0.75087533368E+03  0.00000000000E+00 0. -1.
         -1    1    3    3    0  502  0.60145968302E+02  0.22400248158E+02 -0.24508030523E+03  0.25334495186E+03  0.00000000000E+00 0.  1.
         13    1    5    5    0    0 -0.52337597265E+03 -0.40297281384E+02  0.20672628015E+03  0.56416490014E+03  0.00000000000E+00 0.  1.
        -13    1    5    5    0    0 -0.69337692362E+02  0.20465778348E+02  0.52108400879E+02  0.89117052844E+02  0.00000000000E+00 0. -1.
          4    1    6    6  503    0  0.28706340349E+03  0.51422327128E+02  0.22817841976E+03  0.37029048677E+03  0.00000000000E+00 0.  1.
         -4    1    6    6    0  503  0.32999936249E+02  0.12791005385E+02 -0.54685328764E+01  0.35812155241E+02  0.00000000000E+00 0. -1.
<mgrwt>
<rscale>  0 0.20068580E+04</rscale>
<asrwt>0</asrwt>
<pdfrwt beam="1">  1        2 0.19570885E+00 0.20068580E+04</pdfrwt>
<pdfrwt beam="2">  1       -1 0.12176882E+00 0.20068580E+04</pdfrwt>
<totfact> 0.10851301E+01</totfact>
</mgrwt>
</event>
<event>
12    7  0.1661464E-007  0.2124646E+04  0.7818608E-02  0.8550463E-01
         -1   -1    0    0    0  501 -0.00000000000E+00  0.00000000000E+00  0.42039656972E+03  0.42039656972E+03  0.00000000000E+00 0.  1.
          2   -1    0    0  501    0  0.00000000000E+00 -0.00000000000E+00 -0.26844428948E+04  0.26844428948E+04  0.00000000000E+00 0. -1.
         24    2    1    2    0    0  0.48958620968E+03 -0.14128256253E+03 -0.19825376698E+04  0.20485361367E+04  0.79932922032E+02 0.  0.
        254    2    1    2    0    0 -0.48958620968E+03  0.14128256253E+03 -0.28150865529E+03  0.10563033278E+04  0.88140466199E+03 0.  0.
         23    2    4    4    0    0 -0.53658794452E+02 -0.32173959614E+03 -0.23528842407E+03  0.41229454607E+03  0.90722192857E+02 0.  0.
         23    2    4    4    0    0 -0.43592741523E+03  0.46302215866E+03 -0.46220231229E+02  0.64400878175E+03  0.90491825239E+02 0.  0.
          2    1    3    3  502    0  0.40157560646E+03 -0.10196617914E+03 -0.14832891675E+04  0.15400671492E+04  0.00000000000E+00 0. -1.
         -1    1    3    3    0  502  0.88010603219E+02 -0.39316383382E+02 -0.49924850224E+03  0.50846898752E+03  0.00000000000E+00 0.  1.
         13    1    5    5    0    0 -0.12393332710E+02 -0.43539823940E+02  0.52367210103E+00  0.45272344725E+02  0.00000000000E+00 0. -1.
        -13    1    5    5    0    0 -0.41265461742E+02 -0.27819977220E+03 -0.23581209617E+03  0.36702220135E+03  0.00000000000E+00 0.  1.
          3    1    6    6  503    0 -0.36473540582E+02  0.84365766117E+02 -0.88675430692E+01  0.92339238546E+02  0.00000000000E+00 0. -1.
         -3    1    6    6    0  503 -0.39945387465E+03  0.37865639255E+03 -0.37352688160E+02  0.55166954321E+03  0.00000000000E+00 0.  1.
<mgrwt>
<rscale>  0 0.21246464E+04</rscale>
<asrwt>0</asrwt>
<pdfrwt beam="1">  1        2 0.41299122E+00 0.21246464E+04</pdfrwt>
<pdfrwt beam="2">  1       -1 0.64676394E-01 0.21246464E+04</pdfrwt>
<totfact> 0.68869856E+00</totfact>
</mgrwt>
</event>
<event>
12    7  0.1661464E-007  0.1377529E+04  0.7818608E-02  0.8970247E-01
          2   -1    0    0  501    0  0.00000000000E+00  0.00000000000E+00  0.57058175530E+03  0.57058175530E+03  0.00000000000E+00 0. -1.
         -1   -1    0    0    0  501 -0.00000000000E+00 -0.00000000000E+00 -0.83142589919E+03  0.83142589919E+03  0.00000000000E+00 0.  1.
         24    2    1    2    0    0 -0.34662958443E+03  0.18129947470E+03 -0.62140574298E+02  0.40208298640E+03  0.69193270273E+02 0.  0.
        254    2    1    2    0    0  0.34662958443E+03 -0.18129947470E+03 -0.19870356959E+03  0.99992466809E+03  0.89852360290E+03 0.  0.
         23    2    4    4    0    0 -0.58222256860E+02 -0.40233415855E+03  0.11685374763E+03  0.43214644825E+03  0.88505073692E+02 0.  0.
         23    2    4    4    0    0  0.40485184129E+03  0.22103468386E+03 -0.31555731723E+03  0.56777821984E+03  0.10017156086E+03 0.  0.
          2    1    3    3  502    0 -0.34693334708E+03  0.17926479166E+03 -0.54651352125E+02  0.39431634906E+03  0.00000000000E+00 0. -1.
         -1    1    3    3    0  502  0.30376265282E+00  0.20346830339E+01 -0.74892221731E+01  0.77666373390E+01  0.00000000000E+00 0.  1.
         13    1    5    5    0    0  0.10889352577E+02 -0.89500371236E+02 -0.26704523631E+01  0.90199921102E+02  0.00000000000E+00 0.  1.
        -13    1    5    5    0    0 -0.69111609436E+02 -0.31283378732E+03  0.11952420000E+03  0.34194652715E+03  0.00000000000E+00 0. -1.
          1    1    6    6  503    0  0.35863510132E+03  0.20921445118E+03 -0.24341708171E+03  0.48129169757E+03  0.00000000000E+00 0. -1.
         -1    1    6    6    0  503  0.46216739966E+02  0.11820232675E+02 -0.72140235512E+02  0.86486522264E+02  0.00000000000E+00 0.  1.
<mgrwt>
<rscale>  0 0.13775289E+04</rscale>
<asrwt>0</asrwt>
<pdfrwt beam="1">  1        2 0.87781809E-01 0.13775289E+04</pdfrwt>
<pdfrwt beam="2">  1       -1 0.12791168E+00 0.13775289E+04</pdfrwt>
<totfact> 0.31026333E+01</totfact>
</mgrwt>
</event>
<event>
12    7  0.1661464E-007  0.1209823E+04  0.7818608E-02  0.9104302E-01
          2   -1    0    0  501    0  0.00000000000E+00  0.00000000000E+00  0.24771964482E+04  0.24771964482E+04  0.00000000000E+00 0. -1.
         -1   -1    0    0    0  501 -0.00000000000E+00 -0.00000000000E+00 -0.14771450973E+03  0.14771450973E+03  0.00000000000E+00 0.  1.
         24    2    1    2    0    0 -0.77254656580E+02 -0.24456291696E+03  0.66055898813E+03  0.71301256949E+03  0.79179827843E+02 0.  0.
        254    2    1    2    0    0  0.77254656580E+02  0.24456291696E+03  0.16689229503E+04  0.19118983884E+04  0.89681231662E+03 0.  0.
         23    2    4    4    0    0  0.33036391294E+03  0.33120693801E+03  0.43245099019E+03  0.64338996279E+03  0.89991302589E+02 0.  0.
         23    2    4    4    0    0 -0.25310925636E+03 -0.86644021055E+02  0.12364719601E+04  0.12685084256E+04  0.93162415610E+02 0.  0.
          4    1    3    3  502    0  0.47478497454E+01 -0.61575817954E+02  0.22833858054E+03  0.23654308444E+03  0.00000000000E+00 0. -1.
         -3    1    3    3    0  502 -0.82002506325E+02 -0.18298709900E+03  0.43222040759E+03  0.47646948505E+03  0.00000000000E+00 0.  1.
         13    1    5    5    0    0  0.35591382711E+01  0.40921010734E+01  0.29697513667E+02  0.30188658043E+02  0.00000000000E+00 0.  1.
        -13    1    5    5    0    0  0.32680477467E+03  0.32711483694E+03  0.40275347653E+03  0.61320130475E+03  0.00000000000E+00 0. -1.
          1    1    6    6  503    0 -0.65074484726E+02 -0.64936598338E+02  0.47920658673E+03  0.48794508209E+03  0.00000000000E+00 0. -1.
         -1    1    6    6    0  503 -0.18803477163E+03 -0.21707422718E+02  0.75726537340E+03  0.78056334355E+03  0.00000000000E+00 0.  1.
<mgrwt>
<rscale>  0 0.12098229E+04</rscale>
<asrwt>0</asrwt>
<pdfrwt beam="1">  1        2 0.38110712E+00 0.12098229E+04</pdfrwt>
<pdfrwt beam="2">  1       -1 0.22725311E-01 0.12098229E+04</pdfrwt>
<totfact> 0.66850638E+01</totfact>
</mgrwt>
</event>
<event>
12    7  0.1661464E-007  0.2755490E+04  0.7818608E-02  0.8317222E-01
         -1   -1    0    0    0  501 -0.00000000000E+00  0.00000000000E+00  0.14871019534E+04  0.14871019534E+04  0.00000000000E+00 0.  1.
          2   -1    0    0  501    0  0.00000000000E+00 -0.00000000000E+00 -0.12764294701E+04  0.12764294701E+04  0.00000000000E+00 0. -1.
         24    2    1    2    0    0  0.67260118588E+03 -0.10056484162E+04 -0.13295399322E+03  0.12197281812E+04  0.79617708217E+02 0.  0.
        254    2    1    2    0    0 -0.67260118588E+03  0.10056484162E+04  0.34362647652E+03  0.15438032422E+04  0.89528107499E+03 0.  0.
         23    2    4    4    0    0 -0.18096214910E+03  0.94129972381E+03  0.58132417841E+02  0.96466144949E+03  0.91650775628E+02 0.  0.
         23    2    4    4    0    0 -0.49163903678E+03  0.64348692338E+02  0.28549405868E+03  0.57914179275E+03  0.89714334825E+02 0.  0.
          4    1    3    3  502    0  0.39968407776E+02 -0.49876118160E+02 -0.24425974829E+02  0.68423161496E+02  0.00000000000E+00 0. -1.
         -3    1    3    3    0  502  0.63263277810E+03 -0.95577229799E+03 -0.10852801839E+03  0.11513050197E+04  0.00000000000E+00 0.  1.
         13    1    5    5    0    0 -0.16738059784E+03  0.65245538978E+03  0.32566059476E+02  0.67436996406E+03  0.00000000000E+00 0.  1.
        -13    1    5    5    0    0 -0.13581551253E+02  0.28884433403E+03  0.25566358365E+02  0.29029148543E+03  0.00000000000E+00 0. -1.
          1    1    6    6  503    0 -0.42041496193E+03  0.86579221438E+02  0.24084331682E+03  0.49218919640E+03  0.00000000000E+00 0. -1.
         -1    1    6    6    0  503 -0.71224074858E+02 -0.22230529099E+02  0.44650741867E+02  0.86952596354E+02  0.00000000000E+00 0.  1.
<mgrwt>
<rscale>  0 0.27554896E+04</rscale>
<asrwt>0</asrwt>
<pdfrwt beam="1">  1        2 0.19637377E+00 0.27554896E+04</pdfrwt>
<pdfrwt beam="2">  1       -1 0.22878492E+00 0.27554896E+04</pdfrwt>
<totfact> 0.16327700E+00</totfact>
</mgrwt>
</event>
<event>
12    7  0.1661464E-007  0.1871454E+04  0.7818608E-02  0.8669197E-01
          2   -1    0    0  501    0  0.00000000000E+00  0.00000000000E+00  0.13950994992E+04  0.13950994992E+04  0.00000000000E+00 0. -1.
         -1   -1    0    0    0  501 -0.00000000000E+00 -0.00000000000E+00 -0.62761484807E+03  0.62761484807E+03  0.00000000000E+00 0.  1.
         24    2    1    2    0    0 -0.83642011601E+02  0.43212668355E+02 -0.47231620007E+03  0.48809258180E+03  0.79299777715E+02 0.  0.
        254    2    1    2    0    0  0.83642011601E+02 -0.43212668355E+02  0.12398008512E+04  0.15346217655E+04  0.89949679909E+03 0.  0.
         23    2    4    4    0    0 -0.15768100093E+03 -0.37385733163E+03  0.91146567120E+03  0.10017542838E+04  0.90052056548E+02 0.  0.
         23    2    4    4    0    0  0.24132301253E+03  0.33064466327E+03  0.32833518000E+03  0.53286748165E+03  0.92634080357E+02 0.  0.
          4    1    3    3  502    0 -0.28942015209E+02  0.34289626362E+02 -0.78695658877E+02  0.90589323027E+02  0.00000000000E+00 0. -1.
         -3    1    3    3    0  502 -0.54699996392E+02  0.89230419932E+01 -0.39362054120E+03  0.39750325877E+03  0.00000000000E+00 0.  1.
         13    1    5    5    0    0  0.58755497152E+01 -0.54573381427E+02  0.90710416879E+02  0.10602431691E+03  0.00000000000E+00 0. -1.
        -13    1    5    5    0    0 -0.16355655065E+03 -0.31928395020E+03  0.82075525433E+03  0.89572996691E+03  0.00000000000E+00 0.  1.
          4    1    6    6  503    0  0.38407268796E+02  0.28394882141E+02  0.76563059937E+02  0.90240178275E+02  0.00000000000E+00 0. -1.
         -4    1    6    6    0  503  0.20291574374E+03  0.30224978113E+03  0.25177212006E+03  0.44262730337E+03  0.00000000000E+00 0.  1.
<mgrwt>
<rscale>  0 0.18714542E+04</rscale>
<asrwt>0</asrwt>
<pdfrwt beam="1">  1        2 0.21463069E+00 0.18714542E+04</pdfrwt>
<pdfrwt beam="2">  1       -1 0.96556131E-01 0.18714542E+04</pdfrwt>
<totfact> 0.16084495E+01</totfact>
</mgrwt>
</event>
<event>
12    7  0.1661464E-007  0.1451865E+04  0.7818608E-02  0.8917109E-01
         -1   -1    0    0    0  501 -0.00000000000E+00  0.00000000000E+00  0.98588302078E+03  0.98588302078E+03  0.00000000000E+00 0.  1.
          2   -1    0    0  501    0  0.00000000000E+00 -0.00000000000E+00 -0.53452381562E+03  0.53452381562E+03  0.00000000000E+00 0. -1.
         24    2    1    2    0    0  0.67166112138E+02 -0.13146643223E+03  0.57620383198E+03  0.60044379595E+03  0.82019428722E+02 0.  0.
        254    2    1    2    0    0 -0.67166112138E+02  0.13146643223E+03 -0.12484462683E+03  0.91996304044E+03  0.89941709207E+03 0.  0.
         23    2    4    4    0    0  0.26892001367E+03 -0.25959960329E+03 -0.14776626132E+02  0.38520864739E+03  0.91964262411E+02 0.  0.
         23    2    4    4    0    0 -0.33608612581E+03  0.39106603552E+03 -0.11006800070E+03  0.53475439305E+03  0.89223136103E+02 0.  0.
          4    1    3    3  502    0 -0.16967993330E+02 -0.12700715973E+02  0.46402999008E+02  0.51014304864E+02  0.00000000000E+00 0. -1.
         -3    1    3    3    0  502  0.84134105468E+02 -0.11876571625E+03  0.52980083297E+03  0.54942949109E+03  0.00000000000E+00 0.  1.
         13    1    5    5    0    0  0.18843043398E+03 -0.22637854731E+03 -0.32566655829E+02  0.29633403822E+03  0.00000000000E+00 0.  1.
        -13    1    5    5    0    0  0.80489579685E+02 -0.33221055979E+02  0.17790029696E+02  0.88874609168E+02  0.00000000000E+00 0. -1.
          1    1    6    6  503    0 -0.32543174099E+02  0.15025611671E+02  0.91661661596E+01  0.36997916003E+02  0.00000000000E+00 0. -1.
         -1    1    6    6    0  503 -0.30354295171E+03  0.37604042385E+03 -0.11923416686E+03  0.49775647705E+03  0.00000000000E+00 0.  1.
<mgrwt>
<rscale>  0 0.14518649E+04</rscale>
<asrwt>0</asrwt>
<pdfrwt beam="1">  1        2 0.82234433E-01 0.14518649E+04</pdfrwt>
<pdfrwt beam="2">  1       -1 0.15167431E+00 0.14518649E+04</pdfrwt>
<totfact> 0.21371123E+01</totfact>
</mgrwt>
</event>
<event>
12    7  0.1661464E-007  0.2179405E+04  0.7818608E-02  0.8527049E-01
         -1   -1    0    0    0  501 -0.00000000000E+00  0.00000000000E+00  0.64959354045E+03  0.64959354045E+03  0.00000000000E+00 0.  1.
          2   -1    0    0  501    0  0.00000000000E+00 -0.00000000000E+00 -0.18279921180E+04  0.18279921180E+04  0.00000000000E+00 0. -1.
         24    2    1    2    0    0 -0.29358650275E+03 -0.78704095061E+03 -0.11865799734E+03  0.85241832285E+03  0.83131126938E+02 0.  0.
        254    2    1    2    0    0  0.29358650275E+03  0.78704095061E+03 -0.10597405802E+04  0.16251673356E+04  0.90138353593E+03 0.  0.
         23    2    4    4    0    0  0.62358705795E+01  0.18131464972E+02  0.14020543158E+03  0.16845016528E+03  0.91379751777E+02 0.  0.
         23    2    4    4    0    0  0.28735063217E+03  0.76890948563E+03 -0.11999460118E+04  0.14567171703E+04  0.91445613312E+02 0.  0.
          4    1    3    3  502    0 -0.21405744072E+03 -0.56405326284E+03 -0.12262001434E+03  0.61563978036E+03  0.00000000000E+00 0. -1.
         -3    1    3    3    0  502 -0.79529062032E+02 -0.22298768777E+03  0.39620170022E+01  0.23677854248E+03  0.00000000000E+00 0.  1.
         13    1    5    5    0    0  0.12691749534E+01  0.16608697135E+02  0.15338340234E+03  0.15428521556E+03  0.00000000000E+00 0. -1.
        -13    1    5    5    0    0  0.49666956261E+01  0.15227678369E+01 -0.13177970761E+02  0.14164949725E+02  0.00000000000E+00 0.  1.
          3    1    6    6  503    0  0.28191724072E+03  0.67780095458E+03 -0.10835102152E+04  0.13087726507E+04  0.00000000000E+00 0. -1.
         -3    1    6    6    0  503  0.54333914505E+01  0.91108531054E+02 -0.11643579657E+03  0.14794451966E+03  0.00000000000E+00 0.  1.
<mgrwt>
<rscale>  0 0.21794053E+04</rscale>
<asrwt>0</asrwt>
<pdfrwt beam="1">  1        2 0.28122955E+00 0.21794053E+04</pdfrwt>
<pdfrwt beam="2">  1       -1 0.99937469E-01 0.21794053E+04</pdfrwt>
<totfact> 0.82834311E+00</totfact>
</mgrwt>
</event>
<event>
12    7  0.1661464E-007  0.1686604E+04  0.7818608E-02  0.8769042E-01
         -1   -1    0    0    0  501 -0.00000000000E+00  0.00000000000E+00  0.20245567140E+04  0.20245567140E+04  0.00000000000E+00 0.  1.
          2   -1    0    0  501    0  0.00000000000E+00 -0.00000000000E+00 -0.35126617540E+03  0.35126617540E+03  0.00000000000E+00 0. -1.
         24    2    1    2    0    0  0.18299668284E+03  0.50383320245E+03  0.21673443801E+03  0.58390672729E+03  0.81471269401E+02 0.  0.
        254    2    1    2    0    0 -0.18299668284E+03 -0.50383320245E+03  0.14565561006E+04  0.17919161621E+04  0.89558482347E+03 0.  0.
         23    2    4    4    0    0  0.32507664316E+03 -0.19148860268E+03  0.31179440986E+03  0.49804057123E+03  0.92119203659E+02 0.  0.
         23    2    4    4    0    0 -0.50807332600E+03 -0.31234459977E+03  0.11447616907E+04  0.12938755909E+04  0.89090193079E+02 0.  0.
          2    1    3    3  502    0  0.18877101933E+03  0.50169662258E+03  0.21436605363E+03  0.57730997202E+03  0.00000000000E+00 0. -1.
         -1    1    3    3    0  502 -0.57743364951E+01  0.21365798670E+01  0.23683843744E+01  0.65967552654E+01  0.00000000000E+00 0.  1.
         13    1    5    5    0    0  0.64056428806E+02 -0.52130521790E+00  0.64555911767E+02  0.90944838087E+02  0.00000000000E+00 0.  1.
        -13    1    5    5    0    0  0.26102021436E+03 -0.19096729746E+03  0.24723849809E+03  0.40709573314E+03  0.00000000000E+00 0. -1.
          3    1    6    6  503    0 -0.46753278517E+03 -0.26115790104E+03  0.98255373224E+03  0.11190184052E+04  0.00000000000E+00 0. -1.
         -3    1    6    6    0  503 -0.40540540831E+02 -0.51186698733E+02  0.16220795849E+03  0.17485718565E+03  0.00000000000E+00 0.  1.
<mgrwt>
<rscale>  0 0.16866040E+04</rscale>
<asrwt>0</asrwt>
<pdfrwt beam="1">  1        2 0.54040951E-01 0.16866040E+04</pdfrwt>
<pdfrwt beam="2">  1       -1 0.31147026E+00 0.16866040E+04</pdfrwt>
<totfact> 0.27954892E+00</totfact>
</mgrwt>
</event>
<event>
12    7  0.1661464E-007  0.1416684E+04  0.7818608E-02  0.8941829E-01
          2   -1    0    0  501    0  0.00000000000E+00  0.00000000000E+00  0.17710738041E+04  0.17710738041E+04  0.00000000000E+00 0. -1.
         -1   -1    0    0    0  501 -0.00000000000E+00 -0.00000000000E+00 -0.28330197762E+03  0.28330197762E+03  0.00000000000E+00 0.  1.
         24    2    1    2    0    0  0.19393402916E+03 -0.32840433537E+03  0.69352523636E+03  0.79544335761E+03  0.79328850578E+02 0.  0.
        254    2    1    2    0    0 -0.19393402916E+03  0.32840433537E+03  0.79424659010E+03  0.12589324241E+04  0.89923489001E+03 0.  0.
         23    2    4    4    0    0 -0.71436158001E+02 -0.38581502786E+02  0.84985409337E+03  0.85839991400E+03  0.89480586198E+02 0.  0.
         23    2    4    4    0    0 -0.12249787116E+03  0.36698583815E+03 -0.55607503269E+02  0.40053251011E+03  0.87462925789E+02 0.  0.
          4    1    3    3  502    0  0.10264448141E+03 -0.20722426101E+03  0.48764329469E+03  0.53969784766E+03  0.00000000000E+00 0. -1.
         -3    1    3    3    0  502  0.91289547752E+02 -0.12118007436E+03  0.20588194168E+03  0.25574550995E+03  0.00000000000E+00 0.  1.
         13    1    5    5    0    0 -0.10929796364E+02  0.14020535539E+02  0.46219943531E+03  0.46254119153E+03  0.00000000000E+00 0. -1.
        -13    1    5    5    0    0 -0.60506361637E+02 -0.52602038326E+02  0.38765465806E+03  0.39585872247E+03  0.00000000000E+00 0.  1.
          3    1    6    6  503    0 -0.95744349462E+02  0.15171666103E+03 -0.17084589470E+02  0.18021323172E+03  0.00000000000E+00 0. -1.
         -3    1    6    6    0  503 -0.26753521696E+02  0.21526917712E+03 -0.38522913799E+02  0.22031927839E+03  0.00000000000E+00 0.  1.
<mgrwt>
<rscale>  0 0.14166845E+04</rscale>
<asrwt>0</asrwt>
<pdfrwt beam="1">  1        2 0.27247289E+00 0.14166845E+04</pdfrwt>
<pdfrwt beam="2">  1       -1 0.43584921E-01 0.14166845E+04</pdfrwt>
<totfact> 0.51548054E+01</totfact>
</mgrwt>
</event>
<event>
12    7  0.1661464E-007  0.1752860E+04  0.7818608E-02  0.8731777E-01
          2   -1    0    0  501    0  0.00000000000E+00  0.00000000000E+00  0.94537620927E+03  0.94537620927E+03  0.00000000000E+00 0. -1.
         -1   -1    0    0    0  501 -0.00000000000E+00 -0.00000000000E+00 -0.81251239382E+03  0.81251239382E+03  0.00000000000E+00 0.  1.
         24    2    1    2    0    0 -0.25088926397E+03  0.30340490624E+03 -0.45524682611E+03  0.60707556407E+03  0.79316504582E+02 0.  0.
        254    2    1    2    0    0  0.25088926397E+03 -0.30340490624E+03  0.58811064156E+03  0.11508130390E+04  0.90746711464E+03 0.  0.
         23    2    4    4    0    0  0.23220376913E+03 -0.69631603851E+02 -0.19734588841E+03  0.32576718545E+03  0.91715368335E+02 0.  0.
         23    2    4    4    0    0  0.18685494837E+02 -0.23377330239E+03  0.78545652998E+03  0.82504585357E+03  0.93592710085E+02 0.  0.
          4    1    3    3  502    0 -0.10199956492E+03  0.10670913914E+03 -0.22832366493E+03  0.27188682864E+03  0.00000000000E+00 0. -1.
         -3    1    3    3    0  502 -0.14888969906E+03  0.19669576710E+03 -0.22692316118E+03  0.33518873543E+03  0.00000000000E+00 0.  1.
         13    1    5    5    0    0  0.56285933895E+02 -0.57574600951E+02 -0.42228394991E+02  0.90918526014E+02  0.00000000000E+00 0. -1.
        -13    1    5    5    0    0  0.17591783524E+03 -0.12057002900E+02 -0.15511749342E+03  0.23484865944E+03  0.00000000000E+00 0.  1.
          3    1    6    6  503    0  0.14155225772E+02 -0.23396707864E+01  0.11206545411E+03  0.11298013312E+03  0.00000000000E+00 0. -1.
         -3    1    6    6    0  503  0.45302690653E+01 -0.23143363160E+03  0.67339107587E+03  0.71206572044E+03  0.00000000000E+00 0.  1.
<mgrwt>
<rscale>  0 0.17528604E+04</rscale>
<asrwt>0</asrwt>
<pdfrwt beam="1">  1        2 0.14544249E+00 0.17528604E+04</pdfrwt>
<pdfrwt beam="2">  1       -1 0.12500191E+00 0.17528604E+04</pdfrwt>
<totfact> 0.16546551E+01</totfact>
</mgrwt>
</event>
<event>
12    7  0.1661464E-007  0.1560048E+04  0.7818608E-02  0.8845475E-01
          2   -1    0    0  501    0  0.00000000000E+00  0.00000000000E+00  0.19145466804E+04  0.19145466804E+04  0.00000000000E+00 0. -1.
         -1   -1    0    0    0  501 -0.00000000000E+00 -0.00000000000E+00 -0.31779693066E+03  0.31779693066E+03  0.00000000000E+00 0.  1.
         24    2    1    2    0    0 -0.43743171986E+03 -0.11813384712E+03  0.90486252818E+03  0.10151698657E+04  0.80570130385E+02 0.  0.
        254    2    1    2    0    0  0.43743171986E+03  0.11813384712E+03  0.69188722161E+03  0.12171737454E+04  0.89302960967E+03 0.  0.
         23    2    4    4    0    0  0.26928763106E+03  0.49072027488E+03  0.49967989169E+03  0.75605079891E+03  0.92793318489E+02 0.  0.
         23    2    4    4    0    0  0.16814408880E+03 -0.37258642776E+03  0.19220732992E+03  0.46112294651E+03  0.92723424072E+02 0.  0.
          4    1    3    3  502    0 -0.33889201755E+03 -0.60823429701E+02  0.63791832346E+03  0.72490487415E+03  0.00000000000E+00 0. -1.
         -3    1    3    3    0  502 -0.98539702312E+02 -0.57310417419E+02  0.26694420472E+03  0.29026499153E+03  0.00000000000E+00 0.  1.
         13    1    5    5    0    0  0.44171200556E+02  0.13076057533E+03  0.16715581351E+03  0.21677289731E+03  0.00000000000E+00 0. -1.
        -13    1    5    5    0    0  0.22511643050E+03  0.35995969955E+03  0.33252407818E+03  0.53927790160E+03  0.00000000000E+00 0.  1.
          2    1    6    6  503    0  0.48151091801E+02 -0.13977750176E+03  0.11726538746E+03  0.18869936072E+03  0.00000000000E+00 0.  1.
         -2    1    6    6    0  503  0.11999299700E+03 -0.23280892600E+03  0.74941942458E+02  0.27242358579E+03  0.00000000000E+00 0. -1.
<mgrwt>
<rscale>  0 0.15600475E+04</rscale>
<asrwt>0</asrwt>
<pdfrwt beam="1">  1        2 0.29454564E+00 0.15600475E+04</pdfrwt>
<pdfrwt beam="2">  1       -1 0.48891836E-01 0.15600475E+04</pdfrwt>
<totfact> 0.34211166E+01</totfact>
</mgrwt>
</event>
<event>
12    7  0.1661464E-007  0.1821695E+04  0.7818608E-02  0.8694847E-01
          2   -1    0    0  501    0  0.00000000000E+00  0.00000000000E+00  0.23385010120E+04  0.23385010120E+04  0.00000000000E+00 0. -1.
         -1   -1    0    0    0  501 -0.00000000000E+00 -0.00000000000E+00 -0.35477561193E+03  0.35477561193E+03  0.00000000000E+00 0.  1.
         24    2    1    2    0    0  0.55071832337E+03 -0.14406400344E+03  0.18749521893E+03  0.60472713022E+03  0.80593648125E+02 0.  0.
        254    2    1    2    0    0 -0.55071832337E+03  0.14406400344E+03  0.17962301812E+04  0.20885494937E+04  0.90086126305E+03 0.  0.
         23    2    4    4    0    0 -0.21764444545E+03 -0.13400029544E+03  0.36092148674E+02  0.27347415447E+03  0.90334302194E+02 0.  0.
         23    2    4    4    0    0 -0.33307387792E+03  0.27806429888E+03  0.17601380325E+04  0.18150753393E+04  0.90302997313E+02 0.  0.
          4    1    3    3  502    0  0.20710917340E+02  0.54225879649E+01  0.19574938429E+02  0.29009046379E+02  0.00000000000E+00 0. -1.
         -3    1    3    3    0  502  0.53000740603E+03 -0.14948659141E+03  0.16792028050E+03  0.57571808384E+03  0.00000000000E+00 0.  1.
         13    1    5    5    0    0 -0.27435980500E+02 -0.39095709376E+02 -0.22759489960E+02  0.52907484356E+02  0.00000000000E+00 0. -1.
        -13    1    5    5    0    0 -0.19020846495E+03 -0.94904586066E+02  0.58851638634E+02  0.22056667011E+03  0.00000000000E+00 0.  1.
          1    1    6    6  503    0 -0.47451087427E+02  0.14587586981E+02  0.30170394738E+03  0.30576081380E+03  0.00000000000E+00 0. -1.
         -1    1    6    6    0  503 -0.28562279050E+03  0.26347671190E+03  0.14584340851E+04  0.15093145255E+04  0.00000000000E+00 0.  1.
<mgrwt>
<rscale>  0 0.18216950E+04</rscale>
<asrwt>0</asrwt>
<pdfrwt beam="1">  1        2 0.35976938E+00 0.18216950E+04</pdfrwt>
<pdfrwt beam="2">  1       -1 0.54580865E-01 0.18216950E+04</pdfrwt>
<totfact> 0.15695256E+01</totfact>
</mgrwt>
</event>
<event>
12    7  0.1661464E-007  0.1579102E+04  0.7818608E-02  0.8833491E-01
          2   -1    0    0  501    0  0.00000000000E+00  0.00000000000E+00  0.12530085422E+04  0.12530085422E+04  0.00000000000E+00 0. -1.
         -1   -1    0    0    0  501 -0.00000000000E+00 -0.00000000000E+00 -0.49751492828E+03  0.49751492828E+03  0.00000000000E+00 0.  1.
         24    2    1    2    0    0  0.39932401083E+02  0.48020026040E+02 -0.32518620980E+03  0.34109638231E+03  0.81854452693E+02 0.  0.
        254    2    1    2    0    0 -0.39932401083E+02 -0.48020026040E+02  0.10806798237E+04  0.14094270881E+04  0.90261581854E+03 0.  0.
         23    2    4    4    0    0  0.55174809615E+02  0.25161408371E+03  0.10452772048E+04  0.10803894173E+04  0.91010721381E+02 0.  0.
         23    2    4    4    0    0 -0.95107210698E+02 -0.29963410975E+03  0.35402618852E+02  0.32903767079E+03  0.90479070105E+02 0.  0.
          4    1    3    3  502    0  0.33799045481E+02  0.35662134079E+00 -0.42244895661E+02  0.54102993111E+02  0.00000000000E+00 0. -1.
         -3    1    3    3    0  502  0.61333556020E+01  0.47663404699E+02 -0.28294131414E+03  0.28699338920E+03  0.00000000000E+00 0.  1.
         13    1    5    5    0    0  0.33500361296E+02  0.20850201804E+03  0.68269111204E+03  0.71460654922E+03  0.00000000000E+00 0.  1.
        -13    1    5    5    0    0  0.21674448319E+02  0.43112065668E+02  0.36258609280E+03  0.36578286811E+03  0.00000000000E+00 0. -1.
          4    1    6    6  503    0 -0.58235384637E+02 -0.58141895285E+02  0.69902719399E+00  0.82294159272E+02  0.00000000000E+00 0. -1.
         -4    1    6    6    0  503 -0.36871826061E+02 -0.24149221447E+03  0.34703591658E+02  0.24674351152E+03  0.00000000000E+00 0.  1.
<mgrwt>
<rscale>  0 0.15791016E+04</rscale>
<asrwt>0</asrwt>
<pdfrwt beam="1">  1        2 0.19277054E+00 0.15791016E+04</pdfrwt>
<pdfrwt beam="2">  1       -1 0.76540758E-01 0.15791016E+04</pdfrwt>
<totfact> 0.33048108E+01</totfact>
</mgrwt>
</event>
<event>
12    7  0.1661464E-007  0.3288028E+04  0.7818608E-02  0.8165948E-01
         -3   -1    0    0    0  501 -0.00000000000E+00  0.00000000000E+00  0.10957098798E+04  0.10957098798E+04  0.00000000000E+00 0.  1.
          4   -1    0    0  501    0  0.00000000000E+00 -0.00000000000E+00 -0.24666952711E+04  0.24666952711E+04  0.00000000000E+00 0. -1.
         24    2    1    2    0    0  0.17400868848E+03 -0.11481199181E+04  0.42786461481E+03  0.12401612271E+04  0.80457258904E+02 0.  0.
        254    2    1    2    0    0 -0.17400868848E+03  0.11481199181E+04 -0.17988500061E+04  0.23222439237E+04  0.89916468288E+03 0.  0.
         23    2    4    4    0    0  0.13450120220E+03  0.48923905931E+03 -0.18168459679E+03  0.54651788039E+03  0.90703199099E+02 0.  0.
         23    2    4    4    0    0 -0.30850989068E+03  0.65888085882E+03 -0.16171654093E+04  0.17757260434E+04  0.93148705313E+02 0.  0.
          2    1    3    3  502    0  0.34317596742E+00  0.12941338563E+01 -0.27181804897E+00  0.13661761360E+01  0.00000000000E+00 0. -1.
         -1    1    3    3    0  502  0.17366551251E+03 -0.11494140520E+04  0.42813643285E+03  0.12387950510E+04  0.00000000000E+00 0.  1.
         13    1    5    5    0    0  0.37870533367E+02  0.12006664072E+03 -0.50161541403E+01  0.12599737027E+03  0.00000000000E+00 0.  1.
        -13    1    5    5    0    0  0.96630668837E+02  0.36917241858E+03 -0.17666844265E+03  0.42052051012E+03  0.00000000000E+00 0. -1.
          1    1    6    6  503    0 -0.28578087009E+03  0.64307256217E+03 -0.15258714328E+04  0.16803263538E+04  0.00000000000E+00 0. -1.
         -1    1    6    6    0  503 -0.22729020591E+02  0.15808296647E+02 -0.91293976503E+02  0.95399689547E+02  0.00000000000E+00 0.  1.
<mgrwt>
<rscale>  0 0.32880282E+04</rscale>
<asrwt>0</asrwt>
<pdfrwt beam="1">  1        4 0.37949158E+00 0.32880282E+04</pdfrwt>
<pdfrwt beam="2">  1       -3 0.16857075E+00 0.32880282E+04</pdfrwt>
<totfact> 0.42036827E-03</totfact>
</mgrwt>
</event>
<event>
12    7  0.1661464E-007  0.2483271E+04  0.7818608E-02  0.8408969E-01
         -1   -1    0    0    0  501 -0.00000000000E+00  0.00000000000E+00  0.14084887777E+04  0.14084887777E+04  0.00000000000E+00 0.  1.
          2   -1    0    0  501    0  0.00000000000E+00 -0.00000000000E+00 -0.10945484837E+04  0.10945484837E+04  0.00000000000E+00 0. -1.
         24    2    1    2    0    0  0.10437826644E+04 -0.72698024467E+02 -0.11962502464E+03  0.10561090060E+04  0.79302160898E+02 0.  0.
        254    2    1    2    0    0 -0.10437826644E+04  0.72698024467E+02  0.43356531861E+03  0.14469282553E+04  0.90047500639E+03 0.  0.
         23    2    4    4    0    0 -0.68165616809E+03 -0.18836072131E+03  0.63040088538E+03  0.95073083563E+03  0.79680315622E+02 0.  0.
         23    2    4    4    0    0 -0.36212649636E+03  0.26105874578E+03 -0.19683556676E+03  0.49619741968E+03  0.90445402515E+02 0.  0.
          2    1    3    3  502    0  0.29591433316E+03 -0.43733235127E+02 -0.66595378157E+01  0.29920267022E+03  0.00000000000E+00 0. -1.
         -1    1    3    3    0  502  0.74786833129E+03 -0.28964789340E+02 -0.11296548682E+03  0.75690633581E+03  0.00000000000E+00 0.  1.
         13    1    5    5    0    0 -0.60842323796E+03 -0.15037443803E+03  0.53002907520E+03  0.82080578011E+03  0.00000000000E+00 0. -1.
        -13    1    5    5    0    0 -0.73232930132E+02 -0.37986283289E+02  0.10037181017E+03  0.12992505552E+03  0.00000000000E+00 0.  1.
          3    1    6    6  503    0 -0.21848821462E+03  0.16172877059E+03 -0.16698837186E+03  0.31902728959E+03  0.00000000000E+00 0. -1.
         -3    1    6    6    0  503 -0.14363828173E+03  0.99329975190E+02 -0.29847194902E+02  0.17717013009E+03  0.00000000000E+00 0.  1.
<mgrwt>
<rscale>  0 0.24832714E+04</rscale>
<asrwt>0</asrwt>
<pdfrwt beam="1">  1        2 0.16839207E+00 0.24832714E+04</pdfrwt>
<pdfrwt beam="2">  1       -1 0.21669058E+00 0.24832714E+04</pdfrwt>
<totfact> 0.25891302E+00</totfact>
</mgrwt>
</event>
<event>
12    7  0.1661464E-007  0.1176373E+04  0.7818608E-02  0.9133793E-01
         -1   -1    0    0    0  501 -0.00000000000E+00  0.00000000000E+00  0.15709594397E+03  0.15709594397E+03  0.00000000000E+00 0.  1.
          2   -1    0    0  501    0  0.00000000000E+00 -0.00000000000E+00 -0.22022414058E+04  0.22022414058E+04  0.00000000000E+00 0. -1.
         24    2    1    2    0    0  0.38843408872E+02 -0.17593292516E+01 -0.87861595347E+03  0.88253540016E+03  0.73422293533E+02 0.  0.
        254    2    1    2    0    0 -0.38843408872E+02  0.17593292516E+01 -0.11665295083E+04  0.14768019496E+04  0.90478781979E+03 0.  0.
         23    2    4    4    0    0  0.59911633677E+02 -0.39779037681E+03 -0.86664782350E+03  0.95967936524E+03  0.89885740547E+02 0.  0.
         23    2    4    4    0    0 -0.98755042549E+02  0.39954970606E+03 -0.29988168485E+03  0.51712258436E+03  0.89967862600E+02 0.  0.
          4    1    3    3  502    0  0.47075018019E+02  0.88926489800E+01 -0.84452505156E+03  0.84588279285E+03  0.00000000000E+00 0. -1.
         -3    1    3    3    0  502 -0.82316091470E+01 -0.10651978232E+02 -0.34090901904E+02  0.36652607302E+02  0.00000000000E+00 0.  1.
         13    1    5    5    0    0  0.43557448562E+02 -0.25288358815E+03 -0.44703098004E+03  0.51544549430E+03  0.00000000000E+00 0. -1.
        -13    1    5    5    0    0  0.16354185115E+02 -0.14490678866E+03 -0.41961684346E+03  0.44423387094E+03  0.00000000000E+00 0.  1.
          3    1    6    6  503    0 -0.89742953522E+02  0.40098230615E+03 -0.29852861522E+03  0.50789757005E+03  0.00000000000E+00 0. -1.
         -3    1    6    6    0  503 -0.90120890270E+01 -0.14326000839E+01 -0.13530696212E+01  0.92250143106E+01  0.00000000000E+00 0.  1.
<mgrwt>
<rscale>  0 0.11763727E+04</rscale>
<asrwt>0</asrwt>
<pdfrwt beam="1">  1        2 0.33880634E+00 0.11763727E+04</pdfrwt>
<pdfrwt beam="2">  1       -1 0.24168609E-01 0.11763727E+04</pdfrwt>
<totfact> 0.86316448E+01</totfact>
</mgrwt>
</event>
<event>
12    7  0.1661464E-007  0.1757212E+04  0.7818608E-02  0.8729391E-01
          2   -1    0    0  501    0  0.00000000000E+00  0.00000000000E+00  0.77999726228E+03  0.77999726228E+03  0.00000000000E+00 0. -1.
         -1   -1    0    0    0  501 -0.00000000000E+00 -0.00000000000E+00 -0.98968084306E+03  0.98968084306E+03  0.00000000000E+00 0.  1.
         24    2    1    2    0    0 -0.90189344782E+02 -0.47435651121E+03  0.35304254572E+03  0.60340197756E+03  0.79414669884E+02 0.  0.
        254    2    1    2    0    0  0.90189344782E+02  0.47435651121E+03 -0.56272612650E+03  0.11662761278E+04  0.90021724886E+03 0.  0.
         23    2    4    4    0    0  0.43990368929E+03  0.46835329759E+03 -0.27411577948E+03  0.70478038385E+03  0.93305207179E+02 0.  0.
         23    2    4    4    0    0 -0.34971434451E+03  0.60032136188E+01 -0.28861034702E+03  0.46149574393E+03  0.85710138987E+02 0.  0.
          4    1    3    3  502    0 -0.41727840206E+02 -0.27969967175E+03  0.15958287220E+03  0.32471497059E+03  0.00000000000E+00 0. -1.
         -3    1    3    3    0  502 -0.48461504576E+02 -0.19465683946E+03  0.19345967353E+03  0.27868700697E+03  0.00000000000E+00 0.  1.
         13    1    5    5    0    0  0.17774343655E+03  0.12504284111E+03 -0.90205221357E+02  0.23529858331E+03  0.00000000000E+00 0. -1.
        -13    1    5    5    0    0  0.26216025274E+03  0.34331045648E+03 -0.18391055812E+03  0.46948180053E+03  0.00000000000E+00 0.  1.
          3    1    6    6  503    0 -0.30511580108E+02  0.24207965056E+02 -0.19316349945E+02  0.43475320217E+02  0.00000000000E+00 0. -1.
         -3    1    6    6    0  503 -0.31920276440E+03 -0.18204751437E+02 -0.26929399708E+03  0.41802042371E+03  0.00000000000E+00 0.  1.
<mgrwt>
<rscale>  0 0.17572118E+04</rscale>
<asrwt>0</asrwt>
<pdfrwt beam="1">  1        2 0.11999958E+00 0.17572118E+04</pdfrwt>
<pdfrwt beam="2">  1       -1 0.15225859E+00 0.17572118E+04</pdfrwt>
<totfact> 0.12908170E+01</totfact>
</mgrwt>
</event>
<event>
12    7  0.1661464E-007  0.2184025E+04  0.7818608E-02  0.8525107E-01
          2   -1    0    0  501    0  0.00000000000E+00  0.00000000000E+00  0.48336442973E+03  0.48336442973E+03  0.00000000000E+00 0. -1.
         -1   -1    0    0    0  501 -0.00000000000E+00 -0.00000000000E+00 -0.24670635667E+04  0.24670635667E+04  0.00000000000E+00 0.  1.
         24    2    1    2    0    0 -0.37619133505E+03  0.34840831000E+03  0.18089386021E+03  0.54942041011E+03  0.78942557202E+02 0.  0.
        254    2    1    2    0    0  0.37619133505E+03 -0.34840831000E+03 -0.21645929972E+04  0.24010075863E+04  0.90358525613E+03 0.  0.
         23    2    4    4    0    0  0.51200902737E+03 -0.44946881821E+03 -0.96063089655E+03  0.11811331048E+04  0.89934582723E+02 0.  0.
         23    2    4    4    0    0 -0.13581769232E+03  0.10106050820E+03 -0.12039621006E+04  0.12198744815E+04  0.99545663333E+02 0.  0.
          2    1    3    3  502    0 -0.30763408996E+03  0.27202747218E+03  0.17567023990E+03  0.44665166754E+03  0.00000000000E+00 0. -1.
         -1    1    3    3    0  502 -0.68557245095E+02  0.76380837819E+02  0.52236203053E+01  0.10276874257E+03  0.00000000000E+00 0.  1.
         13    1    5    5    0    0  0.10505541761E+03 -0.10863744375E+03 -0.15616154089E+03  0.21731351041E+03  0.00000000000E+00 0. -1.
        -13    1    5    5    0    0  0.40695360976E+03 -0.34083137446E+03 -0.80446935565E+03  0.96381959437E+03  0.00000000000E+00 0.  1.
          1    1    6    6  503    0  0.62020814063E+01  0.39159487475E+02 -0.18485770752E+03  0.18906163890E+03  0.00000000000E+00 0. -1.
         -1    1    6    6    0  503 -0.14201977373E+03  0.61901020729E+02 -0.10191043931E+04  0.10308128426E+04  0.00000000000E+00 0.  1.
<mgrwt>
<rscale>  0 0.21840245E+04</rscale>
<asrwt>0</asrwt>
<pdfrwt beam="1">  1        2 0.74363759E-01 0.21840245E+04</pdfrwt>
<pdfrwt beam="2">  1       -1 0.37954824E+00 0.21840245E+04</pdfrwt>
<totfact> 0.66033603E-01</totfact>
</mgrwt>
</event>
<event>
12    7  0.1661464E-007  0.1514624E+04  0.7818608E-02  0.8874786E-01
         -1   -1    0    0    0  501 -0.00000000000E+00  0.00000000000E+00  0.14404392577E+04  0.14404392577E+04  0.00000000000E+00 0.  1.
          2   -1    0    0  501    0  0.00000000000E+00 -0.00000000000E+00 -0.39815718062E+03  0.39815718062E+03  0.00000000000E+00 0. -1.
         24    2    1    2    0    0 -0.11566317069E+02 -0.40200447214E+03  0.71259339953E+03  0.82230106952E+03  0.81537234232E+02 0.  0.
        254    2    1    2    0    0  0.11566317069E+02  0.40200447214E+03  0.32968867756E+03  0.10162953688E+04  0.87316680951E+03 0.  0.
         23    2    4    4    0    0 -0.24569852934E+02  0.95304524324E+02  0.58763400502E+03  0.60348681089E+03  0.95895656999E+02 0.  0.
         23    2    4    4    0    0  0.36136170003E+02  0.30669994781E+03 -0.25794532746E+03  0.41280855791E+03  0.92219481423E+02 0.  0.
          4    1    3    3  502    0  0.21782736425E+01 -0.27018838884E+03  0.54792755079E+03  0.61092643686E+03  0.00000000000E+00 0. -1.
         -3    1    3    3    0  502 -0.13744590711E+02 -0.13181608330E+03  0.16466584874E+03  0.21137463266E+03  0.00000000000E+00 0.  1.
         13    1    5    5    0    0 -0.35331822515E+02  0.56962659964E+02  0.15308736878E+03  0.16711919337E+03  0.00000000000E+00 0. -1.
        -13    1    5    5    0    0  0.10761969582E+02  0.38341864360E+02  0.43454663624E+03  0.43636761752E+03  0.00000000000E+00 0.  1.
          1    1    6    6  503    0 -0.26320135598E+02  0.13865017705E+03 -0.91631868792E+02  0.16826473342E+03  0.00000000000E+00 0. -1.
         -1    1    6    6    0  503  0.62456305601E+02  0.16804977076E+03 -0.16631345867E+03  0.24454382449E+03  0.00000000000E+00 0.  1.
<mgrwt>
<rscale>  0 0.15146237E+04</rscale>
<asrwt>0</asrwt>
<pdfrwt beam="1">  1        2 0.61254951E-01 0.15146237E+04</pdfrwt>
<pdfrwt beam="2">  1       -1 0.22160604E+00 0.15146237E+04</pdfrwt>
<totfact> 0.94755641E+00</totfact>
</mgrwt>
</event>
<event>
12    7  0.1661464E-007  0.2863409E+04  0.7818608E-02  0.8283848E-01
         -1   -1    0    0    0  501 -0.00000000000E+00  0.00000000000E+00  0.80906425320E+03  0.80906425320E+03  0.00000000000E+00 0.  1.
          2   -1    0    0  501    0  0.00000000000E+00 -0.00000000000E+00 -0.25335161602E+04  0.25335161602E+04  0.00000000000E+00 0. -1.
         24    2    1    2    0    0 -0.11953888505E+04  0.43982705729E+03 -0.51794093483E+03  0.13772964987E+04  0.79249536360E+02 0.  0.
        254    2    1    2    0    0  0.11953888505E+04 -0.43982705729E+03 -0.12065109721E+04  0.19652839147E+04  0.88559008297E+03 0.  0.
         23    2    4    4    0    0  0.56756185870E+03  0.17425858018E+03 -0.78106058253E+03  0.98533859895E+03  0.91345524182E+02 0.  0.
         23    2    4    4    0    0  0.62782699184E+03 -0.61408563747E+03 -0.42545038961E+03  0.97994531572E+03  0.89537064652E+02 0.  0.
          4    1    3    3  502    0 -0.11806053872E+04  0.42451728122E+03 -0.50529836229E+03  0.13525422128E+04  0.00000000000E+00 0. -1.
         -3    1    3    3    0  502 -0.14783463322E+02  0.15309776076E+02 -0.12642572539E+02  0.24754285925E+02  0.00000000000E+00 0.  1.
         13    1    5    5    0    0  0.39174911804E+03  0.76420795269E+02 -0.53525740176E+03  0.66768854683E+03  0.00000000000E+00 0.  1.
        -13    1    5    5    0    0  0.17581274067E+03  0.97837784912E+02 -0.24580318077E+03  0.31765005212E+03  0.00000000000E+00 0. -1.
          3    1    6    6  503    0  0.20416781242E+03 -0.15302866343E+03 -0.14913991320E+03  0.29554184335E+03  0.00000000000E+00 0. -1.
         -3    1    6    6    0  503  0.42365917942E+03 -0.46105697404E+03 -0.27631047641E+03  0.68440347237E+03  0.00000000000E+00 0.  1.
<mgrwt>
<rscale>  0 0.28634087E+04</rscale>
<asrwt>0</asrwt>
<pdfrwt beam="1">  1        2 0.38977171E+00 0.28634087E+04</pdfrwt>
<pdfrwt beam="2">  1       -1 0.12447142E+00 0.28634087E+04</pdfrwt>
<totfact> 0.18518665E+00</totfact>
</mgrwt>
</event>
<event>
12    7  0.1661464E-007  0.2656042E+04  0.7818608E-02  0.8349410E-01
         -1   -1    0    0    0  501 -0.00000000000E+00  0.00000000000E+00  0.14485489277E+04  0.14485489277E+04  0.00000000000E+00 0.  1.
          2   -1    0    0  501    0  0.00000000000E+00 -0.00000000000E+00 -0.12175213654E+04  0.12175213654E+04  0.00000000000E+00 0. -1.
         24    2    1    2    0    0 -0.10258932020E+03 -0.11129314161E+04  0.47724411385E+03  0.12179047796E+04  0.79932485930E+02 0.  0.
        254    2    1    2    0    0  0.10258932020E+03  0.11129314161E+04 -0.24621655148E+03  0.14481655135E+04  0.88736681187E+03 0.  0.
         23    2    4    4    0    0  0.10079075415E+03  0.17501752104E+03  0.28926499208E+03  0.36445888999E+03  0.91466595293E+02 0.  0.
         23    2    4    4    0    0  0.17985660528E+01  0.93791389505E+03 -0.53548154355E+03  0.10837066235E+04  0.89408350070E+02 0.  0.
          2    1    3    3  502    0 -0.22202665265E+02 -0.20098117390E+03  0.53839337794E+02  0.20924881099E+03  0.00000000000E+00 0. -1.
         -1    1    3    3    0  502 -0.80386654940E+02 -0.91195024219E+03  0.42340477606E+03  0.10086559686E+04  0.00000000000E+00 0.  1.
         13    1    5    5    0    0 -0.10183460874E+02  0.47415866992E+02  0.38116438810E+02  0.61683305890E+02  0.00000000000E+00 0. -1.
        -13    1    5    5    0    0  0.11097421503E+03  0.12760165405E+03  0.25114855327E+03  0.30277558410E+03  0.00000000000E+00 0.  1.
          1    1    6    6  503    0 -0.42914695077E+02  0.36589055800E+03 -0.20997646248E+03  0.42403736426E+03  0.00000000000E+00 0. -1.
         -1    1    6    6    0  503  0.44713261130E+02  0.57202333705E+03 -0.32550508107E+03  0.65966925929E+03  0.00000000000E+00 0.  1.
<mgrwt>
<rscale>  0 0.26560416E+04</rscale>
<asrwt>0</asrwt>
<pdfrwt beam="1">  1        2 0.18731098E+00 0.26560416E+04</pdfrwt>
<pdfrwt beam="2">  1       -1 0.22285368E+00 0.26560416E+04</pdfrwt>
<totfact> 0.19536949E+00</totfact>
</mgrwt>
</event>
<event>
12    7  0.1661464E-007  0.2947816E+04  0.7818608E-02  0.8258791E-01
         -1   -1    0    0    0  501 -0.00000000000E+00  0.00000000000E+00  0.15194872302E+04  0.15194872302E+04  0.00000000000E+00 0.  1.
          2   -1    0    0  501    0  0.00000000000E+00 -0.00000000000E+00 -0.14296958751E+04  0.14296958751E+04  0.00000000000E+00 0. -1.
         24    2    1    2    0    0 -0.10288809635E+04 -0.78464094808E+02 -0.80573572707E+03  0.13115323432E+04  0.78449818243E+02 0.  0.
        254    2    1    2    0    0  0.10288809635E+04  0.78464094808E+02  0.89552708224E+03  0.16376507621E+04  0.90287242305E+03 0.  0.
         23    2    4    4    0    0  0.69699662945E+03  0.24051078690E+03  0.92904782934E+02  0.74947302320E+03  0.97101872965E+02 0.  0.
         23    2    4    4    0    0  0.33188433409E+03 -0.16204669209E+03  0.80262229931E+03  0.88817773891E+03  0.90833908421E+02 0.  0.
          2    1    3    3  502    0 -0.10289352100E+03 -0.29904583058E+02 -0.72131222818E+02  0.12916762000E+03  0.00000000000E+00 0. -1.
         -1    1    3    3    0  502 -0.92598744254E+03 -0.48559511750E+02 -0.73360450425E+03  0.11823647232E+04  0.00000000000E+00 0.  1.
         13    1    5    5    0    0  0.69584813821E+03  0.23342935881E+03  0.98280293829E+02  0.74050855036E+03  0.00000000000E+00 0. -1.
        -13    1    5    5    0    0  0.11484912425E+01  0.70814280891E+01 -0.53755108952E+01  0.89644728401E+01  0.00000000000E+00 0.  1.
          1    1    6    6  503    0  0.30085590078E+03 -0.13486614180E+03  0.76206653569E+03  0.83033038850E+03  0.00000000000E+00 0. -1.
         -1    1    6    6    0  503  0.31028433309E+02 -0.27180550288E+02  0.40555763618E+02  0.57847350416E+02  0.00000000000E+00 0.  1.
<mgrwt>
<rscale>  0 0.29478159E+04</rscale>
<asrwt>0</asrwt>
<pdfrwt beam="1">  1        2 0.21995321E+00 0.29478159E+04</pdfrwt>
<pdfrwt beam="2">  1       -1 0.23376726E+00 0.29478159E+04</pdfrwt>
<totfact> 0.12141897E+00</totfact>
</mgrwt>
</event>
<event>
12    7  0.1661464E-007  0.1407342E+04  0.7818608E-02  0.8948521E-01
          2   -1    0    0  501    0  0.00000000000E+00  0.00000000000E+00  0.13877594223E+04  0.13877594223E+04  0.00000000000E+00 0. -1.
         -1   -1    0    0    0  501 -0.00000000000E+00 -0.00000000000E+00 -0.35680000338E+03  0.35680000338E+03  0.00000000000E+00 0.  1.
         24    2    1    2    0    0  0.15438861157E+03 -0.96994473141E+02 -0.19223695922E+03  0.27713359277E+03  0.81266281743E+02 0.  0.
        254    2    1    2    0    0 -0.15438861157E+03  0.96994473141E+02  0.12231963781E+04  0.14674258329E+04  0.78986418096E+03 0.  0.
         23    2    4    4    0    0  0.26671782430E+03 -0.11846468293E+03  0.65268000915E+03  0.72071415735E+03  0.90914373768E+02 0.  0.
         23    2    4    4    0    0 -0.42110643587E+03  0.21545915608E+03  0.57051636896E+03  0.74671167553E+03  0.91302359480E+02 0.  0.
          4    1    3    3  502    0  0.55779568883E+02 -0.68336708837E+02 -0.49052954579E+02  0.10093294027E+03  0.00000000000E+00 0. -1.
         -3    1    3    3    0  502  0.98609042686E+02 -0.28657764305E+02 -0.14318400464E+03  0.17620065250E+03  0.00000000000E+00 0.  1.
         13    1    5    5    0    0  0.67726613546E+02  0.83585751300E+01  0.11866340503E+03  0.13688595127E+03  0.00000000000E+00 0.  1.
        -13    1    5    5    0    0  0.19899121076E+03 -0.12682325806E+03  0.53401660411E+03  0.58382820608E+03  0.00000000000E+00 0. -1.
          2    1    6    6  503    0 -0.25385332576E+03  0.16950928490E+03  0.32238562987E+03  0.44396779502E+03  0.00000000000E+00 0. -1.
         -2    1    6    6    0  503 -0.16725311011E+03  0.45949871174E+02  0.24813073910E+03  0.30274388051E+03  0.00000000000E+00 0.  1.
<mgrwt>
<rscale>  0 0.14073416E+04</rscale>
<asrwt>0</asrwt>
<pdfrwt beam="1">  1        2 0.21350145E+00 0.14073416E+04</pdfrwt>
<pdfrwt beam="2">  1       -1 0.54892309E-01 0.14073416E+04</pdfrwt>
<totfact> 0.54678953E+01</totfact>
</mgrwt>
</event>
<event>
12    7  0.1661464E-007  0.1927774E+04  0.7818608E-02  0.8641154E-01
         -1   -1    0    0    0  501 -0.00000000000E+00  0.00000000000E+00  0.60528261842E+03  0.60528261842E+03  0.00000000000E+00 0.  1.
          2   -1    0    0  501    0  0.00000000000E+00 -0.00000000000E+00 -0.15349495093E+04  0.15349495093E+04  0.00000000000E+00 0. -1.
         24    2    1    2    0    0  0.50586017938E+02  0.17135255830E+03 -0.11763106500E+04  0.11923870447E+04  0.78482320184E+02 0.  0.
        254    2    1    2    0    0 -0.50586017938E+02 -0.17135255830E+03  0.24664375916E+03  0.94784508299E+03  0.89758370806E+03 0.  0.
         23    2    4    4    0    0 -0.18767926907E+03 -0.28910397871E+03 -0.23441771661E+03  0.42628895541E+03  0.89252389849E+02 0.  0.
         23    2    4    4    0    0  0.13709325113E+03  0.11775142042E+03  0.48106147577E+03  0.52155612759E+03  0.89110573090E+02 0.  0.
          4    1    3    3  502    0  0.13529498737E+02  0.96785496820E+02 -0.85083253578E+03  0.85642657810E+03  0.00000000000E+00 0. -1.
         -3    1    3    3    0  502  0.37056519201E+02  0.74567061478E+02 -0.32547811422E+03  0.33596046659E+03  0.00000000000E+00 0.  1.
         13    1    5    5    0    0 -0.18899977941E+03 -0.29054433747E+03 -0.21736895582E+03  0.40912857588E+03  0.00000000000E+00 0.  1.
        -13    1    5    5    0    0  0.13205103403E+01  0.14403587509E+01 -0.17048760790E+02  0.17160379523E+02  0.00000000000E+00 0. -1.
          2    1    6    6  503    0  0.29556951258E+02 -0.97633401964E+01  0.11752827104E+03  0.12158055219E+03  0.00000000000E+00 0. -1.
         -2    1    6    6    0  503  0.10753629988E+03  0.12751476061E+03  0.36353320474E+03  0.39997557539E+03  0.00000000000E+00 0.  1.
<mgrwt>
<rscale>  0 0.19277741E+04</rscale>
<asrwt>0</asrwt>
<pdfrwt beam="1">  1        2 0.23614608E+00 0.19277741E+04</pdfrwt>
<pdfrwt beam="2">  1       -1 0.93120404E-01 0.19277741E+04</pdfrwt>
<totfact> 0.14462580E+01</totfact>
</mgrwt>
</event>
<event>
12    7  0.1661464E-007  0.2535939E+04  0.7818608E-02  0.8390293E-01
          2   -1    0    0  501    0  0.00000000000E+00  0.00000000000E+00  0.13119261621E+04  0.13119261621E+04  0.00000000000E+00 0. -1.
         -1   -1    0    0    0  501 -0.00000000000E+00 -0.00000000000E+00 -0.12254857614E+04  0.12254857614E+04  0.00000000000E+00 0.  1.
         24    2    1    2    0    0 -0.11095256132E+03  0.64749123407E+03  0.91492796446E+03  0.11290837884E+04  0.78623482931E+02 0.  0.
        254    2    1    2    0    0  0.11095256132E+03 -0.64749123407E+03 -0.82848756377E+03  0.14083281350E+04  0.93029088114E+03 0.  0.
         23    2    4    4    0    0 -0.35856408302E+03 -0.49548251454E+02 -0.25402813126E+03  0.45112941628E+03  0.89242522980E+02 0.  0.
         23    2    4    4    0    0  0.46951664434E+03 -0.59794298261E+03 -0.57445943251E+03  0.95719871875E+03  0.90796794042E+02 0.  0.
          4    1    3    3  502    0 -0.10589571933E+03  0.61224908539E+03  0.82845079602E+03  0.10355643714E+04  0.00000000000E+00 0. -1.
         -3    1    3    3    0  502 -0.50568419960E+01  0.35242148673E+02  0.86477168442E+02  0.93519416999E+02  0.00000000000E+00 0.  1.
         13    1    5    5    0    0 -0.26278744418E+02 -0.10281454494E+02 -0.54989533541E+02  0.61807196294E+02  0.00000000000E+00 0.  1.
        -13    1    5    5    0    0 -0.33228533860E+03 -0.39266796960E+02 -0.19903859772E+03  0.38932221999E+03  0.00000000000E+00 0. -1.
          1    1    6    6  503    0  0.27925421859E+03 -0.33344739348E+03 -0.38140198114E+03  0.57847865478E+03  0.00000000000E+00 0. -1.
         -1    1    6    6    0  503  0.19026242575E+03 -0.26449558914E+03 -0.19305745137E+03  0.37872006397E+03  0.00000000000E+00 0.  1.
<mgrwt>
<rscale>  0 0.25359391E+04</rscale>
<asrwt>0</asrwt>
<pdfrwt beam="1">  1        2 0.20183479E+00 0.25359391E+04</pdfrwt>
<pdfrwt beam="2">  1       -1 0.18853627E+00 0.25359391E+04</pdfrwt>
<totfact> 0.29826524E+00</totfact>
</mgrwt>
</event>
<event>
12    7  0.1661464E-007  0.1466019E+04  0.7818608E-02  0.8907370E-01
         -1   -1    0    0    0  501 -0.00000000000E+00  0.00000000000E+00  0.22454771468E+03  0.22454771468E+03  0.00000000000E+00 0.  1.
          2   -1    0    0  501    0  0.00000000000E+00 -0.00000000000E+00 -0.23928219620E+04  0.23928219620E+04  0.00000000000E+00 0. -1.
         24    2    1    2    0    0  0.10156621569E+03  0.25087864503E+03 -0.12824614385E+04  0.13141950147E+04  0.95631608639E+02 0.  0.
        254    2    1    2    0    0 -0.10156621569E+03 -0.25087864503E+03 -0.88581280875E+03  0.13031746620E+04  0.91670282902E+03 0.  0.
         23    2    4    4    0    0  0.23815878293E+02  0.29504474920E+03 -0.58192976593E+03  0.65931102941E+03  0.91816016806E+02 0.  0.
         23    2    4    4    0    0 -0.12538209398E+03 -0.54592339424E+03 -0.30388304283E+03  0.64386363255E+03  0.91991585129E+02 0.  0.
          2    1    3    3  502    0  0.10504378812E+03  0.24668265729E+03 -0.12807049044E+04  0.13084691754E+04  0.00000000000E+00 0. -1.
         -1    1    3    3    0  502 -0.34775724279E+01  0.41959877452E+01 -0.17565341262E+01  0.57258392648E+01  0.00000000000E+00 0.  1.
         13    1    5    5    0    0 -0.29580689563E+01  0.97638997940E+02 -0.11031801330E+03  0.14735056210E+03  0.00000000000E+00 0. -1.
        -13    1    5    5    0    0  0.26773947250E+02  0.19740575126E+03 -0.47161175262E+03  0.51196046732E+03  0.00000000000E+00 0.  1.
          1    1    6    6  503    0 -0.39971947841E+02 -0.18265134862E+03 -0.15199420248E+03  0.24095955958E+03  0.00000000000E+00 0. -1.
         -1    1    6    6    0  503 -0.85410146139E+02 -0.36327204562E+03 -0.15188884035E+03  0.40290407297E+03  0.00000000000E+00 0.  1.
<mgrwt>
<rscale>  0 0.14660187E+04</rscale>
<asrwt>0</asrwt>
<pdfrwt beam="1">  1        2 0.36812645E+00 0.14660187E+04</pdfrwt>
<pdfrwt beam="2">  1       -1 0.34545802E-01 0.14660187E+04</pdfrwt>
<totfact> 0.35252605E+01</totfact>
</mgrwt>
</event>
<event>
12    7  0.1661464E-007  0.1578156E+04  0.7818608E-02  0.8834081E-01
          2   -1    0    0  501    0  0.00000000000E+00  0.00000000000E+00  0.13701587616E+04  0.13701587616E+04  0.00000000000E+00 0. -1.
         -1   -1    0    0    0  501 -0.00000000000E+00 -0.00000000000E+00 -0.45443233784E+03  0.45443233784E+03  0.00000000000E+00 0.  1.
         24    2    1    2    0    0  0.48889398872E+03  0.12830668019E+03  0.18128962109E+03  0.54313099245E+03  0.81519395544E+02 0.  0.
        254    2    1    2    0    0 -0.48889398872E+03 -0.12830668019E+03  0.73443680266E+03  0.12814601070E+04  0.92046871337E+03 0.  0.
         23    2    4    4    0    0  0.23823946480E+03 -0.63884201407E+02  0.38750322571E+03  0.46808064507E+03  0.90008369486E+02 0.  0.
         23    2    4    4    0    0 -0.72713345353E+03 -0.64422478779E+02  0.34693357695E+03  0.81337946191E+03  0.91377936220E+02 0.  0.
          4    1    3    3  502    0  0.16828349470E+02 -0.79614466179E+01  0.16548492859E+02  0.24908444232E+02  0.00000000000E+00 0. -1.
         -3    1    3    3    0  502  0.47206563926E+03  0.13626812680E+03  0.16474112823E+03  0.51822254821E+03  0.00000000000E+00 0.  1.
         13    1    5    5    0    0  0.22108076689E+02 -0.27398906074E+02  0.10354141581E+03  0.10936311946E+03  0.00000000000E+00 0. -1.
        -13    1    5    5    0    0  0.21613138811E+03 -0.36485295333E+02  0.28396180990E+03  0.35871752561E+03  0.00000000000E+00 0.  1.
          4    1    6    6  503    0 -0.26509263938E+03  0.18377673973E+02  0.11038965687E+03  0.28774593428E+03  0.00000000000E+00 0. -1.
         -4    1    6    6    0  503 -0.46204081415E+03 -0.82800152752E+02  0.23654392008E+03  0.52563352762E+03  0.00000000000E+00 0.  1.
<mgrwt>
<rscale>  0 0.15781565E+04</rscale>
<asrwt>0</asrwt>
<pdfrwt beam="1">  1        2 0.21079365E+00 0.15781565E+04</pdfrwt>
<pdfrwt beam="2">  1       -1 0.69912668E-01 0.15781565E+04</pdfrwt>
<totfact> 0.34090886E+01</totfact>
</mgrwt>
</event>
<event>
12    7  0.1661464E-007  0.1080365E+04  0.7818608E-02  0.9224544E-01
         -1   -1    0    0    0  501 -0.00000000000E+00  0.00000000000E+00  0.18889330718E+03  0.18889330718E+03  0.00000000000E+00 0.  1.
          2   -1    0    0  501    0  0.00000000000E+00 -0.00000000000E+00 -0.15447718351E+04  0.15447718351E+04  0.00000000000E+00 0. -1.
         24    2    1    2    0    0 -0.21301474558E+02  0.10882044213E+03 -0.63939223975E+02  0.15158871671E+03  0.81211287566E+02 0.  0.
        254    2    1    2    0    0  0.21301474558E+02 -0.10882044213E+03 -0.12919393040E+04  0.15820764256E+04  0.90640113076E+03 0.  0.
         23    2    4    4    0    0 -0.26567161771E+03  0.73951879875E+02 -0.11783738754E+04  0.12136179151E+04  0.90846929773E+02 0.  0.
         23    2    4    4    0    0  0.28697309227E+03 -0.18277232200E+03 -0.11356542860E+03  0.36845851051E+03  0.84292882375E+02 0.  0.
          4    1    3    3  502    0 -0.16343902710E+02  0.67946444058E+02 -0.81034962386E+02  0.10700704437E+03  0.00000000000E+00 0. -1.
         -3    1    3    3    0  502 -0.49575718483E+01  0.40873998072E+02  0.17095738411E+02  0.44581672342E+02  0.00000000000E+00 0.  1.
         13    1    5    5    0    0 -0.14344437286E+03  0.24609016676E+02 -0.43646417717E+03  0.46009006701E+03  0.00000000000E+00 0.  1.
        -13    1    5    5    0    0 -0.12222724485E+03  0.49342863198E+02 -0.74190969823E+03  0.75352784810E+03  0.00000000000E+00 0. -1.
          3    1    6    6  503    0  0.26583951466E+03 -0.17610052634E+03 -0.80889110334E+02  0.32897582146E+03  0.00000000000E+00 0. -1.
         -3    1    6    6    0  503  0.21133577604E+02 -0.66717956662E+01 -0.32676318261E+02  0.39482689053E+02  0.00000000000E+00 0.  1.
<mgrwt>
<rscale>  0 0.10803649E+04</rscale>
<asrwt>0</asrwt>
<pdfrwt beam="1">  1        2 0.23765721E+00 0.10803649E+04</pdfrwt>
<pdfrwt beam="2">  1       -1 0.29060508E-01 0.10803649E+04</pdfrwt>
<totfact> 0.14625950E+02</totfact>
</mgrwt>
</event>
<event>
12    7  0.1661464E-007  0.2696984E+04  0.7818608E-02  0.8335984E-01
         -1   -1    0    0    0  501 -0.00000000000E+00  0.00000000000E+00  0.88627048864E+03  0.88627048864E+03  0.00000000000E+00 0.  1.
          2   -1    0    0  501    0  0.00000000000E+00 -0.00000000000E+00 -0.20517778364E+04  0.20517778364E+04  0.00000000000E+00 0. -1.
         24    2    1    2    0    0  0.12173679578E+03  0.69235658359E+03 -0.15795958310E+04  0.17316283278E+04  0.96105098795E+02 0.  0.
        254    2    1    2    0    0 -0.12173679578E+03 -0.69235658359E+03  0.41408848334E+03  0.12064199971E+04  0.88870830490E+03 0.  0.
         23    2    4    4    0    0  0.30019470382E+03 -0.27662248465E+01  0.16372556541E+03  0.35477107278E+03  0.94508947282E+02 0.  0.
         23    2    4    4    0    0 -0.42193149960E+03 -0.68959035875E+03  0.25036291793E+03  0.85164892437E+03  0.95201084397E+02 0.  0.
          4    1    3    3  502    0  0.11603251708E+03  0.68847977398E+03 -0.15762591666E+04  0.17239666193E+04  0.00000000000E+00 0. -1.
         -3    1    3    3    0  502  0.57042786957E+01  0.38768096104E+01 -0.33366644843E+01  0.76617085610E+01  0.00000000000E+00 0.  1.
         13    1    5    5    0    0  0.10023000729E+03 -0.30169754873E+02  0.18927918757E+02  0.10636980107E+03  0.00000000000E+00 0. -1.
        -13    1    5    5    0    0  0.19996469652E+03  0.27403530027E+02  0.14479764665E+03  0.24840127171E+03  0.00000000000E+00 0.  1.
          3    1    6    6  503    0 -0.10890775013E+03 -0.15290531709E+03  0.98761277153E+02  0.21211959809E+03  0.00000000000E+00 0. -1.
         -3    1    6    6    0  503 -0.31302374947E+03 -0.53668504166E+03  0.15160164078E+03  0.63952932627E+03  0.00000000000E+00 0.  1.
<mgrwt>
<rscale>  0 0.26969836E+04</rscale>
<asrwt>0</asrwt>
<pdfrwt beam="1">  1        2 0.31565813E+00 0.26969836E+04</pdfrwt>
<pdfrwt beam="2">  1       -1 0.13634931E+00 0.26969836E+04</pdfrwt>
<totfact> 0.28020686E+00</totfact>
</mgrwt>
</event>
<event>
12    7  0.1661464E-007  0.1896073E+04  0.7818608E-02  0.8656813E-01
         -1   -1    0    0    0  501 -0.00000000000E+00  0.00000000000E+00  0.12804657669E+04  0.12804657669E+04  0.00000000000E+00 0.  1.
          2   -1    0    0  501    0  0.00000000000E+00 -0.00000000000E+00 -0.70191125954E+03  0.70191125954E+03  0.00000000000E+00 0. -1.
         24    2    1    2    0    0  0.17947434081E+02 -0.38670668109E+03 -0.43096574706E+03  0.58487069138E+03  0.80486538674E+02 0.  0.
        254    2    1    2    0    0 -0.17947434081E+02  0.38670668109E+03  0.10095202544E+04  0.13975063350E+04  0.88545392022E+03 0.  0.
         23    2    4    4    0    0  0.35769948404E+03 -0.34063642995E+02  0.25111526160E+03  0.44792403264E+03  0.92020713721E+02 0.  0.
         23    2    4    4    0    0 -0.37564691812E+03  0.42077032408E+03  0.75840499277E+03  0.94958230237E+03  0.91488486702E+02 0.  0.
          2    1    3    3  502    0  0.28509872607E+02 -0.33370622031E+03 -0.40305004605E+03  0.52404388550E+03  0.00000000000E+00 0. -1.
         -1    1    3    3    0  502 -0.10562438526E+02 -0.53000460778E+02 -0.27915701003E+02  0.60826805874E+02  0.00000000000E+00 0.  1.
         13    1    5    5    0    0  0.15977177512E+03 -0.16350934963E+02  0.57807151714E+02  0.17069282349E+03  0.00000000000E+00 0. -1.
        -13    1    5    5    0    0  0.19792770892E+03 -0.17712708032E+02  0.19330810989E+03  0.27723120916E+03  0.00000000000E+00 0.  1.
          3    1    6    6  503    0 -0.58581119630E+02  0.66516942006E+02  0.18178475398E+03  0.20224230005E+03  0.00000000000E+00 0. -1.
         -3    1    6    6    0  503 -0.31706579849E+03  0.35425338208E+03  0.57662023879E+03  0.74734000232E+03  0.00000000000E+00 0.  1.
<mgrwt>
<rscale>  0 0.18960731E+04</rscale>
<asrwt>0</asrwt>
<pdfrwt beam="1">  1        2 0.10798635E+00 0.18960731E+04</pdfrwt>
<pdfrwt beam="2">  1       -1 0.19699473E+00 0.18960731E+04</pdfrwt>
<totfact> 0.68948357E+00</totfact>
</mgrwt>
</event>
<event>
12    7  0.1661464E-007  0.1552576E+04  0.7818608E-02  0.8850224E-01
         -1   -1    0    0    0  501 -0.00000000000E+00  0.00000000000E+00  0.14451178682E+03  0.14451178682E+03  0.00000000000E+00 0.  1.
          2   -1    0    0  501    0  0.00000000000E+00 -0.00000000000E+00 -0.41700602666E+04  0.41700602666E+04  0.00000000000E+00 0. -1.
         24    2    1    2    0    0  0.22732466721E+03  0.44665583435E+03 -0.18779210107E+04  0.19453110566E+04  0.80435350914E+02 0.  0.
        254    2    1    2    0    0 -0.22732466721E+03 -0.44665583435E+03 -0.21476274690E+04  0.23692609968E+04  0.86597689724E+03 0.  0.
         23    2    4    4    0    0  0.23883240608E+02  0.15684530098E+03 -0.12029893281E+04  0.12168005385E+04  0.90826040016E+02 0.  0.
         23    2    4    4    0    0 -0.25120790782E+03 -0.60350113533E+03 -0.94463814100E+03  0.11524604583E+04  0.92221782640E+02 0.  0.
          2    1    3    3  502    0  0.18576314971E+03  0.28361344437E+03 -0.12861301688E+04  0.13300659175E+04  0.00000000000E+00 0. -1.
         -1    1    3    3    0  502  0.41561517506E+02  0.16304238998E+03 -0.59179084187E+03  0.61524513910E+03  0.00000000000E+00 0.  1.
         13    1    5    5    0    0 -0.20425821297E+01  0.12185212879E+03 -0.10686907273E+04  0.10756170248E+04  0.00000000000E+00 0.  1.
        -13    1    5    5    0    0  0.25925822738E+02  0.34993172194E+02 -0.13429860075E+03  0.14118351373E+03  0.00000000000E+00 0. -1.
          1    1    6    6  503    0  0.11558979645E+01 -0.38519579758E+02 -0.33463312786E+02  0.51038097804E+02  0.00000000000E+00 0. -1.
         -1    1    6    6    0  503 -0.25236380579E+03 -0.56498155557E+03 -0.91117482821E+03  0.11014223605E+04  0.00000000000E+00 0.  1.
<mgrwt>
<rscale>  0 0.15525757E+04</rscale>
<asrwt>0</asrwt>
<pdfrwt beam="1">  1        2 0.64154764E+00 0.15525757E+04</pdfrwt>
<pdfrwt beam="2">  1       -1 0.22232586E-01 0.15525757E+04</pdfrwt>
<totfact> 0.47466653E+00</totfact>
</mgrwt>
</event>
<event>
12    7  0.1661464E-007  0.1440655E+04  0.7818608E-02  0.8924905E-01
          2   -1    0    0  501    0  0.00000000000E+00  0.00000000000E+00  0.19973067596E+04  0.19973067596E+04  0.00000000000E+00 0. -1.
         -1   -1    0    0    0  501 -0.00000000000E+00 -0.00000000000E+00 -0.25978554357E+03  0.25978554357E+03  0.00000000000E+00 0.  1.
         24    2    1    2    0    0  0.15422087250E+03  0.68812377443E+01 -0.10236376900E+03  0.20159764007E+03  0.79572849192E+02 0.  0.
        254    2    1    2    0    0 -0.15422087250E+03 -0.68812377443E+01  0.18398849850E+04  0.20554946631E+04  0.90335492637E+03 0.  0.
         23    2    4    4    0    0 -0.47118863155E+03  0.16878497570E+03  0.13256637214E+04  0.14200055306E+04  0.92327190843E+02 0.  0.
         23    2    4    4    0    0  0.31696775905E+03 -0.17566621345E+03  0.51422126362E+03  0.63548913251E+03  0.89976389942E+02 0.  0.
          4    1    3    3  502    0  0.13678091631E+01  0.20691669895E+01 -0.33989211666E+02  0.34079596001E+02  0.00000000000E+00 0. -1.
         -3    1    3    3    0  502  0.15285306334E+03  0.48120707548E+01 -0.68374557334E+02  0.16751804406E+03  0.00000000000E+00 0.  1.
         13    1    5    5    0    0 -0.43299094558E+03  0.16192728451E+03  0.12747834580E+04  0.13560141847E+04  0.00000000000E+00 0.  1.
        -13    1    5    5    0    0 -0.38197685977E+02  0.68576911881E+01  0.50880263453E+02  0.63991345910E+02  0.00000000000E+00 0. -1.
          3    1    6    6  503    0  0.24819139794E+02 -0.47897939470E+02  0.87468505934E+02  0.10276644314E+03  0.00000000000E+00 0. -1.
         -3    1    6    6    0  503  0.29214861926E+03 -0.12776827398E+03  0.42675275769E+03  0.53272268937E+03  0.00000000000E+00 0.  1.
<mgrwt>
<rscale>  0 0.14406546E+04</rscale>
<asrwt>0</asrwt>
<pdfrwt beam="1">  1        2 0.30727795E+00 0.14406546E+04</pdfrwt>
<pdfrwt beam="2">  1       -1 0.39967008E-01 0.14406546E+04</pdfrwt>
<totfact> 0.45232321E+01</totfact>
</mgrwt>
</event>
<event>
12    7  0.1661464E-007  0.1356320E+04  0.7818608E-02  0.8986057E-01
          2   -1    0    0  501    0  0.00000000000E+00  0.00000000000E+00  0.17695305118E+03  0.17695305118E+03  0.00000000000E+00 0. -1.
         -1   -1    0    0    0  501 -0.00000000000E+00 -0.00000000000E+00 -0.25990018959E+04  0.25990018959E+04  0.00000000000E+00 0.  1.
         24    2    1    2    0    0  0.37054018194E+02 -0.20171079181E+03 -0.13164378374E+04  0.13354799873E+04  0.91858439299E+02 0.  0.
        254    2    1    2    0    0 -0.37054018194E+02  0.20171079181E+03 -0.11056110074E+04  0.14404749599E+04  0.90029559954E+03 0.  0.
         23    2    4    4    0    0  0.23373520004E+03  0.15974221192E+02  0.31410263906E+02  0.25357149963E+03  0.91785517743E+02 0.  0.
         23    2    4    4    0    0 -0.27078921823E+03  0.18573657062E+03 -0.11370212713E+04  0.11869034602E+04  0.89986544477E+02 0.  0.
          2    1    3    3  502    0  0.30036274970E+02 -0.79091779142E+02 -0.30174746078E+03  0.31338349897E+03  0.00000000000E+00 0. -1.
         -1    1    3    3    0  502  0.70177432237E+01 -0.12261901267E+03 -0.10146903766E+04  0.10220964883E+04  0.00000000000E+00 0.  1.
         13    1    5    5    0    0  0.30828479873E+02 -0.30509727779E+02  0.78712971027E+01  0.44081696638E+02  0.00000000000E+00 0. -1.
        -13    1    5    5    0    0  0.20290672016E+03  0.46483948971E+02  0.23538966804E+02  0.20948980299E+03  0.00000000000E+00 0.  1.
          3    1    6    6  503    0 -0.18835990881E+03  0.17250718175E+03 -0.90343894934E+03  0.93885042376E+03  0.00000000000E+00 0. -1.
         -3    1    6    6    0  503 -0.82429309417E+02  0.13229388873E+02 -0.23358232193E+03  0.24805303647E+03  0.00000000000E+00 0.  1.
<mgrwt>
<rscale>  0 0.13563205E+04</rscale>
<asrwt>0</asrwt>
<pdfrwt beam="1">  1        2 0.27223545E-01 0.13563205E+04</pdfrwt>
<pdfrwt beam="2">  1       -1 0.39984646E+00 0.13563205E+04</pdfrwt>
<totfact> 0.16140104E+00</totfact>
</mgrwt>
</event>
<event>
12    7  0.1661464E-007  0.2804871E+04  0.7818608E-02  0.8301758E-01
         -1   -1    0    0    0  501 -0.00000000000E+00  0.00000000000E+00  0.13959334073E+04  0.13959334073E+04  0.00000000000E+00 0.  1.
          2   -1    0    0  501    0  0.00000000000E+00 -0.00000000000E+00 -0.14089676342E+04  0.14089676342E+04  0.00000000000E+00 0. -1.
         24    2    1    2    0    0  0.61316032986E+03  0.10698237242E+04  0.23412389888E+03  0.12576673654E+04  0.80154918221E+02 0.  0.
        254    2    1    2    0    0 -0.61316032986E+03 -0.10698237242E+04 -0.24715812580E+03  0.15472336761E+04  0.90130822607E+03 0.  0.
         23    2    4    4    0    0 -0.74312703133E+03 -0.99994922671E+03 -0.43531904729E+01  0.12492757089E+04  0.92382931270E+02 0.  0.
         23    2    4    4    0    0  0.12996670146E+03 -0.69874497461E+02 -0.24280493532E+03  0.29795796716E+03  0.89726945182E+02 0.  0.
          2    1    3    3  502    0  0.30981038662E+03  0.55084433635E+03  0.16042258572E+03  0.65203325418E+03  0.00000000000E+00 0. -1.
         -1    1    3    3    0  502  0.30334994325E+03  0.51897938782E+03  0.73701313163E+02  0.60563411117E+03  0.00000000000E+00 0.  1.
         13    1    5    5    0    0 -0.10030726501E+02 -0.36914726190E+02  0.70926691757E+01  0.38905249516E+02  0.00000000000E+00 0. -1.
        -13    1    5    5    0    0 -0.73309630483E+03 -0.96303450052E+03 -0.11445859649E+02  0.12103704594E+04  0.00000000000E+00 0.  1.
          2    1    6    6  503    0  0.25547345691E+02 -0.10185886646E+02 -0.57262475597E+00  0.27509035929E+02  0.00000000000E+00 0. -1.
         -2    1    6    6    0  503  0.10441935577E+03 -0.59688610815E+02 -0.24223231057E+03  0.27044893123E+03  0.00000000000E+00 0.  1.
<mgrwt>
<rscale>  0 0.28048708E+04</rscale>
<asrwt>0</asrwt>
<pdfrwt beam="1">  1        2 0.21676425E+00 0.28048708E+04</pdfrwt>
<pdfrwt beam="2">  1       -1 0.21475899E+00 0.28048708E+04</pdfrwt>
<totfact> 0.16910426E+00</totfact>
</mgrwt>
</event>
<event>
12    7  0.1661464E-007  0.1691277E+04  0.7818608E-02  0.8766355E-01
          2   -1    0    0  501    0  0.00000000000E+00  0.00000000000E+00  0.87536716386E+03  0.87536716386E+03  0.00000000000E+00 0. -1.
         -1   -1    0    0    0  501 -0.00000000000E+00 -0.00000000000E+00 -0.81691931862E+03  0.81691931862E+03  0.00000000000E+00 0.  1.
         24    2    1    2    0    0 -0.81097261815E+02  0.73878882611E+02  0.60360601001E+03  0.61850963828E+03  0.78607265301E+02 0.  0.
        254    2    1    2    0    0  0.81097261815E+02 -0.73878882611E+02 -0.54515816477E+03  0.10737768442E+04  0.91856650896E+03 0.  0.
         23    2    4    4    0    0 -0.16624974204E+03 -0.42040643189E+03 -0.41308891182E+03  0.61869598467E+03  0.88100667852E+02 0.  0.
         23    2    4    4    0    0  0.24734700386E+03  0.34652754928E+03 -0.13206925294E+03  0.45508085954E+03  0.91621058812E+02 0.  0.
          4    1    3    3  502    0 -0.83284546706E+02  0.87636520284E+02  0.54905690217E+03  0.56220988717E+03  0.00000000000E+00 0. -1.
         -3    1    3    3    0  502  0.21872848913E+01 -0.13757637673E+02  0.54549107833E+02  0.56299751109E+02  0.00000000000E+00 0.  1.
         13    1    5    5    0    0 -0.45540879252E+02 -0.13419296210E+03 -0.18638876898E+03  0.23414204228E+03  0.00000000000E+00 0.  1.
        -13    1    5    5    0    0 -0.12070886279E+03 -0.28621346979E+03 -0.22670014284E+03  0.38455394239E+03  0.00000000000E+00 0. -1.
          4    1    6    6  503    0  0.22529812116E+01  0.34175847452E+02 -0.29025232326E+02  0.44894638711E+02  0.00000000000E+00 0.  1.
         -4    1    6    6    0  503  0.24509402265E+03  0.31235170182E+03 -0.10304402062E+03  0.41018622083E+03  0.00000000000E+00 0. -1.
<mgrwt>
<rscale>  0 0.16912769E+04</rscale>
<asrwt>0</asrwt>
<pdfrwt beam="1">  1        2 0.13467187E+00 0.16912769E+04</pdfrwt>
<pdfrwt beam="2">  1       -1 0.12567990E+00 0.16912769E+04</pdfrwt>
<totfact> 0.18291286E+01</totfact>
</mgrwt>
</event>
<event>
12    7  0.1661464E-007  0.1049060E+04  0.7818608E-02  0.9256315E-01
          2   -1    0    0  501    0  0.00000000000E+00  0.00000000000E+00  0.13508675771E+04  0.13508675771E+04  0.00000000000E+00 0. -1.
         -1   -1    0    0    0  501 -0.00000000000E+00 -0.00000000000E+00 -0.20367055656E+03  0.20367055656E+03  0.00000000000E+00 0.  1.
         24    2    1    2    0    0 -0.11270507425E+03  0.59590060898E+02  0.17219626820E+03  0.22873928240E+03  0.80104278358E+02 0.  0.
        254    2    1    2    0    0  0.11270507425E+03 -0.59590060898E+02  0.97500075233E+03  0.13257988512E+04  0.88930462599E+03 0.  0.
         23    2    4    4    0    0  0.17409169152E+03  0.21333139494E+03 -0.18231259311E+02  0.28989434755E+03  0.88815273479E+02 0.  0.
         23    2    4    4    0    0 -0.61386617270E+02 -0.27292145584E+03  0.99323201164E+03  0.10359045037E+04  0.91290054201E+02 0.  0.
          4    1    3    3  502    0 -0.47039615666E+02  0.92030060920E+01  0.12404303247E+03  0.13298155762E+03  0.00000000000E+00 0. -1.
         -3    1    3    3    0  502 -0.65665458582E+02  0.50387054807E+02  0.48153235723E+02  0.95757724772E+02  0.00000000000E+00 0.  1.
         13    1    5    5    0    0  0.15438529598E+03  0.19528085275E+03 -0.43971313656E+02  0.25279024405E+03  0.00000000000E+00 0. -1.
        -13    1    5    5    0    0  0.19706395541E+02  0.18050542188E+02  0.25740054344E+02  0.37104103495E+02  0.00000000000E+00 0.  1.
          4    1    6    6  503    0 -0.83066650643E+02 -0.17178047874E+03  0.64815472981E+03  0.67565757237E+03  0.00000000000E+00 0. -1.
         -4    1    6    6    0  503  0.21680033373E+02 -0.10114097710E+03  0.34507728183E+03  0.36024693133E+03  0.00000000000E+00 0.  1.
<mgrwt>
<rscale>  0 0.10490604E+04</rscale>
<asrwt>0</asrwt>
<pdfrwt beam="1">  1        2 0.20782578E+00 0.10490604E+04</pdfrwt>
<pdfrwt beam="2">  1       -1 0.31333933E-01 0.10490604E+04</pdfrwt>
<totfact> 0.16542937E+02</totfact>
</mgrwt>
</event>
<event>
12    7  0.1661464E-007  0.1994954E+04  0.7818608E-02  0.8608984E-01
          2   -1    0    0  501    0  0.00000000000E+00  0.00000000000E+00  0.48828398364E+03  0.48828398364E+03  0.00000000000E+00 0. -1.
         -1   -1    0    0    0  501 -0.00000000000E+00 -0.00000000000E+00 -0.20376668643E+04  0.20376668643E+04  0.00000000000E+00 0.  1.
         24    2    1    2    0    0 -0.29212442625E+03  0.34817862831E+03  0.19031112134E+03  0.49922944408E+03  0.80291203162E+02 0.  0.
        254    2    1    2    0    0  0.29212442625E+03 -0.34817862831E+03 -0.17396940020E+04  0.20267214039E+04  0.93514672146E+03 0.  0.
         23    2    4    4    0    0  0.48207451964E+03 -0.76136525484E+02 -0.38291377694E+03  0.62694573620E+03  0.90804088928E+02 0.  0.
         23    2    4    4    0    0 -0.18995009339E+03 -0.27204210283E+03 -0.13567802251E+04  0.13997756677E+04  0.91822638743E+02 0.  0.
          4    1    3    3  502    0 -0.24706840405E+03  0.33065838099E+03  0.17676218025E+03  0.44902408573E+03  0.00000000000E+00 0. -1.
         -3    1    3    3    0  502 -0.45056022196E+02  0.17520247327E+02  0.13548941090E+02  0.50205358351E+02  0.00000000000E+00 0.  1.
         13    1    5    5    0    0  0.35081062451E+03 -0.19527592037E+02 -0.24521504666E+03  0.42846218062E+03  0.00000000000E+00 0. -1.
        -13    1    5    5    0    0  0.13126389514E+03 -0.56608933446E+02 -0.13769873029E+03  0.19848355558E+03  0.00000000000E+00 0.  1.
          3    1    6    6  503    0 -0.69131058827E+02 -0.15260553751E+03 -0.53498799440E+03  0.56060655323E+03  0.00000000000E+00 0. -1.
         -3    1    6    6    0  503 -0.12081903457E+03 -0.11943656531E+03 -0.82179223066E+03  0.83916911444E+03  0.00000000000E+00 0.  1.
<mgrwt>
<rscale>  0 0.19949537E+04</rscale>
<asrwt>0</asrwt>
<pdfrwt beam="1">  1        2 0.75120613E-01 0.19949537E+04</pdfrwt>
<pdfrwt beam="2">  1       -1 0.31348721E+00 0.19949537E+04</pdfrwt>
<totfact> 0.18157680E+00</totfact>
</mgrwt>
</event>
<event>
12    7  0.1661464E-007  0.2372157E+04  0.7818608E-02  0.8450002E-01
          2   -1    0    0  501    0  0.00000000000E+00  0.00000000000E+00  0.29944325489E+04  0.29944325489E+04  0.00000000000E+00 0. -1.
         -1   -1    0    0    0  501 -0.00000000000E+00 -0.00000000000E+00 -0.46979940426E+03  0.46979940426E+03  0.00000000000E+00 0.  1.
         24    2    1    2    0    0 -0.38540884823E+03 -0.14019359641E+03  0.24255402615E+04  0.24612719287E+04  0.80123168049E+02 0.  0.
        254    2    1    2    0    0  0.38540884823E+03  0.14019359641E+03  0.99092883154E+02  0.10029600245E+04  0.90989844842E+03 0.  0.
         23    2    4    4    0    0 -0.27990767097E+02  0.29222790780E+03 -0.28041993701E+03  0.41491550934E+03  0.85667413143E+02 0.  0.
         23    2    4    4    0    0  0.41339961533E+03 -0.15203431139E+03  0.37951282017E+03  0.58804451514E+03  0.88049402752E+02 0.  0.
          4    1    3    3  502    0 -0.23419503639E+03 -0.11337692649E+03  0.13529116284E+04  0.13777051633E+04  0.00000000000E+00 0. -1.
         -3    1    3    3    0  502 -0.15121381185E+03 -0.26816669923E+02  0.10726286331E+04  0.10835667654E+04  0.00000000000E+00 0.  1.
         13    1    5    5    0    0  0.23968865407E+02  0.35270531094E+02 -0.28182526404E+02  0.51115278215E+02  0.00000000000E+00 0.  1.
        -13    1    5    5    0    0 -0.51959632504E+02  0.25695737670E+03 -0.25223741061E+03  0.36380023112E+03  0.00000000000E+00 0. -1.
          4    1    6    6  503    0  0.41160873056E+03 -0.15941184127E+03  0.37517099357E+03  0.57929884916E+03  0.00000000000E+00 0. -1.
         -4    1    6    6    0  503  0.17908847670E+01  0.73775298828E+01  0.43418265943E+01  0.87456659893E+01  0.00000000000E+00 0.  1.
<mgrwt>
<rscale>  0 0.23721574E+04</rscale>
<asrwt>0</asrwt>
<pdfrwt beam="1">  1        2 0.46068192E+00 0.23721574E+04</pdfrwt>
<pdfrwt beam="2">  1       -1 0.72276833E-01 0.23721574E+04</pdfrwt>
<totfact> 0.34770705E+00</totfact>
</mgrwt>
</event>
<event>
12    7  0.1661464E-007  0.1526698E+04  0.7818608E-02  0.8866891E-01
         -1   -1    0    0    0  501 -0.00000000000E+00  0.00000000000E+00  0.48339582908E+03  0.48339582908E+03  0.00000000000E+00 0.  1.
          2   -1    0    0  501    0  0.00000000000E+00 -0.00000000000E+00 -0.12054335375E+04  0.12054335375E+04  0.00000000000E+00 0. -1.
         24    2    1    2    0    0 -0.20621640096E+03 -0.42460712273E+03 -0.39546610530E+03  0.62097624854E+03  0.80010300038E+02 0.  0.
        254    2    1    2    0    0  0.20621640096E+03  0.42460712273E+03 -0.32657160308E+03  0.10678531180E+04  0.90046924267E+03 0.  0.
         23    2    4    4    0    0 -0.37653061982E+02  0.53160436003E+03  0.10647272960E+03  0.55118464227E+03  0.91908209918E+02 0.  0.
         23    2    4    4    0    0  0.24386946294E+03 -0.10699723729E+03 -0.43304433268E+03  0.51666847574E+03  0.92185660548E+02 0.  0.
          2    1    3    3  502    0 -0.31080253341E+02 -0.31842459971E+02 -0.64317565633E+02  0.78209166047E+02  0.00000000000E+00 0. -1.
         -1    1    3    3    0  502 -0.17513614762E+03 -0.39276466276E+03 -0.33114853966E+03  0.54276708249E+03  0.00000000000E+00 0.  1.
         13    1    5    5    0    0 -0.10835795316E+02  0.38801020408E+03  0.38495806011E+02  0.39006571243E+03  0.00000000000E+00 0.  1.
        -13    1    5    5    0    0 -0.26817266666E+02  0.14359415594E+03  0.67976923587E+02  0.16111892984E+03  0.00000000000E+00 0. -1.
          1    1    6    6  503    0  0.33964764334E+02 -0.54951479767E+02 -0.82511384476E+02  0.10479217009E+03  0.00000000000E+00 0. -1.
         -1    1    6    6    0  503  0.20990469861E+03 -0.52045757527E+02 -0.35053294820E+03  0.41187630564E+03  0.00000000000E+00 0.  1.
<mgrwt>
<rscale>  0 0.15266978E+04</rscale>
<asrwt>0</asrwt>
<pdfrwt beam="1">  1        2 0.18545131E+00 0.15266978E+04</pdfrwt>
<pdfrwt beam="2">  1       -1 0.74368590E-01 0.15266978E+04</pdfrwt>
<totfact> 0.37619028E+01</totfact>
</mgrwt>
</event>
<event>
12    7  0.1661464E-007  0.2473860E+04  0.7818608E-02  0.8412358E-01
         -1   -1    0    0    0  501 -0.00000000000E+00  0.00000000000E+00  0.17538517946E+04  0.17538517946E+04  0.00000000000E+00 0.  1.
          2   -1    0    0  501    0  0.00000000000E+00 -0.00000000000E+00 -0.87236311118E+03  0.87236311118E+03  0.00000000000E+00 0. -1.
         24    2    1    2    0    0  0.92006343303E+03 -0.35008943702E+03 -0.42268633536E+02  0.98857150142E+03  0.80047744081E+02 0.  0.
        254    2    1    2    0    0 -0.92006343303E+03  0.35008943702E+03  0.92375731698E+03  0.16376434044E+04  0.92707551179E+03 0.  0.
         23    2    4    4    0    0 -0.10706971153E+04  0.31469277926E+03  0.93388911424E+03  0.14579565616E+04  0.89803117052E+02 0.  0.
         23    2    4    4    0    0  0.15063368229E+03  0.35396657760E+02 -0.10131797258E+02  0.17968684276E+03  0.90781487787E+02 0.  0.
          2    1    3    3  502    0  0.26259838715E+03 -0.13564976323E+03  0.24428829563E+01  0.29557526770E+03  0.00000000000E+00 0. -1.
         -1    1    3    3    0  502  0.65746504588E+03 -0.21443967379E+03 -0.44711516493E+02  0.69299623372E+03  0.00000000000E+00 0.  1.
         13    1    5    5    0    0 -0.56450170414E+03  0.20227087450E+03  0.46415772716E+03  0.75829946350E+03  0.00000000000E+00 0. -1.
        -13    1    5    5    0    0 -0.50619541117E+03  0.11242190476E+03  0.46973138707E+03  0.69965709813E+03  0.00000000000E+00 0.  1.
          2    1    6    6  503    0  0.21251463580E+02  0.44659877077E+02  0.12579493276E+01  0.49474354583E+02  0.00000000000E+00 0.  1.
         -2    1    6    6    0  503  0.12938221871E+03 -0.92632193168E+01 -0.11389746585E+02  0.13021248818E+03  0.00000000000E+00 0. -1.
<mgrwt>
<rscale>  0 0.24738598E+04</rscale>
<asrwt>0</asrwt>
<pdfrwt beam="1">  1        2 0.13420971E+00 0.24738598E+04</pdfrwt>
<pdfrwt beam="2">  1       -1 0.26982335E+00 0.24738598E+04</pdfrwt>
<totfact> 0.16171400E+00</totfact>
</mgrwt>
</event>
<event>
12    7  0.1661464E-007  0.1868463E+04  0.7818608E-02  0.8670716E-01
         -1   -1    0    0    0  501 -0.00000000000E+00  0.00000000000E+00  0.31682250236E+03  0.31682250236E+03  0.00000000000E+00 0.  1.
          2   -1    0    0  501    0  0.00000000000E+00 -0.00000000000E+00 -0.27548174500E+04  0.27548174500E+04  0.00000000000E+00 0. -1.
         24    2    1    2    0    0 -0.37616217113E+03 -0.58664882901E+03 -0.11728761174E+04  0.13666486856E+04  0.80221042668E+02 0.  0.
        254    2    1    2    0    0  0.37616217113E+03  0.58664882901E+03 -0.12651188303E+04  0.17049912668E+04  0.90598826557E+03 0.  0.
         23    2    4    4    0    0  0.31574285229E+03  0.20510972684E+03 -0.12490049820E+04  0.13078245975E+04  0.92888017074E+02 0.  0.
         23    2    4    4    0    0  0.60419318846E+02  0.38153910217E+03 -0.16113848283E+02  0.39716666932E+03  0.90879736665E+02 0.  0.
          4    1    3    3  502    0 -0.19494281933E+03 -0.31385554503E+03 -0.54398223705E+03  0.65759005481E+03  0.00000000000E+00 0. -1.
         -3    1    3    3    0  502 -0.18121935181E+03 -0.27279328398E+03 -0.62889388030E+03  0.70905863081E+03  0.00000000000E+00 0.  1.
         13    1    5    5    0    0 -0.57743532984E+01  0.89141659512E+01 -0.47179890948E+02  0.48360599878E+02  0.00000000000E+00 0. -1.
        -13    1    5    5    0    0  0.32151720559E+03  0.19619556089E+03 -0.12018250911E+04  0.12594639976E+04  0.00000000000E+00 0.  1.
          1    1    6    6  503    0 -0.21170111230E+01  0.31040724531E+02 -0.26666193563E+02  0.40976751880E+02  0.00000000000E+00 0. -1.
         -1    1    6    6    0  503  0.62536329969E+02  0.35049837764E+03  0.10552345280E+02  0.35618991744E+03  0.00000000000E+00 0.  1.
<mgrwt>
<rscale>  0 0.18684626E+04</rscale>
<asrwt>0</asrwt>
<pdfrwt beam="1">  1        2 0.42381806E+00 0.18684626E+04</pdfrwt>
<pdfrwt beam="2">  1       -1 0.48741925E-01 0.18684626E+04</pdfrwt>
<totfact> 0.11110552E+01</totfact>
</mgrwt>
</event>
<event>
12    7  0.1847683E-007  0.1636760E+04  0.7818608E-02  0.8798278E-01
         -1   -1    0    0    0  501 -0.00000000000E+00  0.00000000000E+00  0.27341127315E+03  0.27341127315E+03  0.00000000000E+00 0.  1.
          2   -1    0    0  501    0  0.00000000000E+00 -0.00000000000E+00 -0.24495899066E+04  0.24495899066E+04  0.00000000000E+00 0. -1.
         24    2    1    2    0    0  0.98986061364E+01  0.56861662143E+02  0.17768698476E+03  0.20285205966E+03  0.79025708027E+02 0.  0.
        254    2    1    2    0    0 -0.98986061364E+01 -0.56861662143E+02 -0.23538656182E+04  0.25201491201E+04  0.89840804088E+03 0.  0.
         23    2    4    4    0    0  0.26126382259E+03  0.22645459333E+03 -0.17997062822E+04  0.18351400496E+04  0.96207233672E+02 0.  0.
         23    2    4    4    0    0 -0.27116242873E+03 -0.28331625547E+03 -0.55415933604E+03  0.68500907048E+03  0.91365713197E+02 0.  0.
          2    1    3    3  502    0  0.59455418392E+01 -0.18094635413E+02  0.17131845261E+02  0.25617677891E+02  0.00000000000E+00 0. -1.
         -1    1    3    3    0  502  0.39530642973E+01  0.74956297556E+02  0.16055513950E+03  0.17723438177E+03  0.00000000000E+00 0.  1.
         13    1    5    5    0    0  0.51400233876E+02  0.59468667683E+01 -0.19095009560E+03  0.19783651906E+03  0.00000000000E+00 0. -1.
        -13    1    5    5    0    0  0.20986358871E+03  0.22050772656E+03 -0.16087561866E+04  0.16373035306E+04  0.00000000000E+00 0.  1.
          2    1    6    6  503    0 -0.98503233688E+02 -0.51829473270E+02 -0.12099468399E+03  0.16440466812E+03  0.00000000000E+00 0. -1.
         -2    1    6    6    0  503 -0.17265919504E+03 -0.23148678220E+03 -0.43316465205E+03  0.52060440236E+03  0.00000000000E+00 0.  1.
<mgrwt>
<rscale>  0 0.16367596E+04</rscale>
<asrwt>0</asrwt>
<pdfrwt beam="1">  1        2 0.37685999E+00 0.16367596E+04</pdfrwt>
<pdfrwt beam="2">  1       -1 0.42063273E-01 0.16367596E+04</pdfrwt>
<totfact> 0.22546605E+01</totfact>
</mgrwt>
</event>
<event>
12    7  0.1661464E-007  0.1196971E+04  0.7818608E-02  0.9115512E-01
         -1   -1    0    0    0  501 -0.00000000000E+00  0.00000000000E+00  0.41584124428E+03  0.41584124428E+03  0.00000000000E+00 0.  1.
          2   -1    0    0  501    0  0.00000000000E+00 -0.00000000000E+00 -0.86134947956E+03  0.86134947956E+03  0.00000000000E+00 0. -1.
         24    2    1    2    0    0 -0.26827552927E+02 -0.18755965691E+03 -0.25852168551E+03  0.33097386385E+03  0.82534200018E+02 0.  0.
        254    2    1    2    0    0  0.26827552927E+02  0.18755965691E+03 -0.18698654976E+03  0.94621685999E+03  0.90800001864E+03 0.  0.
         23    2    4    4    0    0 -0.38940927239E+03 -0.10008767534E+03 -0.10614306896E+03  0.42688300426E+03  0.96465662602E+02 0.  0.
         23    2    4    4    0    0  0.41623682532E+03  0.28764733225E+03 -0.80843480791E+02  0.51933385573E+03  0.84722504835E+02 0.  0.
          4    1    3    3  502    0 -0.51367723805E+02 -0.16677034198E+03 -0.21840618031E+03  0.27955723852E+03  0.00000000000E+00 0. -1.
         -3    1    3    3    0  502  0.24540170879E+02 -0.20789314933E+02 -0.40115505200E+02  0.51416625323E+02  0.00000000000E+00 0.  1.
         13    1    5    5    0    0  0.53480668026E+00 -0.78372951961E+01  0.69855681021E+01  0.10512248850E+02  0.00000000000E+00 0.  1.
        -13    1    5    5    0    0 -0.38994407907E+03 -0.92250380142E+02 -0.11312863707E+03  0.41637075541E+03  0.00000000000E+00 0. -1.
          3    1    6    6  503    0  0.40819985216E+03  0.25981577666E+03 -0.79279202020E+02  0.49032290276E+03  0.00000000000E+00 0. -1.
         -3    1    6    6    0  503  0.80369731583E+01  0.27831555589E+02 -0.15642787704E+01  0.29010952969E+02  0.00000000000E+00 0.  1.
<mgrwt>
<rscale>  0 0.11969706E+04</rscale>
<asrwt>0</asrwt>
<pdfrwt beam="1">  1        2 0.13251530E+00 0.11969706E+04</pdfrwt>
<pdfrwt beam="2">  1       -1 0.63975576E-01 0.11969706E+04</pdfrwt>
<totfact> 0.86998468E+01</totfact>
</mgrwt>
</event>
<event>
12    7  0.1661464E-007  0.1476804E+04  0.7818608E-02  0.8900026E-01
          2   -1    0    0  501    0  0.00000000000E+00  0.00000000000E+00  0.25800940822E+04  0.25800940822E+04  0.00000000000E+00 0. -1.
         -1   -1    0    0    0  501 -0.00000000000E+00 -0.00000000000E+00 -0.21132459506E+03  0.21132459506E+03  0.00000000000E+00 0.  1.
         24    2    1    2    0    0  0.32687721003E+03 -0.88952469235E+02  0.16201454873E+03  0.38406303411E+03  0.80588137778E+02 0.  0.
        254    2    1    2    0    0 -0.32687721003E+03  0.88952469235E+02  0.22067549384E+04  0.24073556432E+04  0.90046242688E+03 0.  0.
         23    2    4    4    0    0 -0.16607804041E+03 -0.21601116415E+03  0.15914091039E+03  0.32888128875E+03  0.92705631891E+02 0.  0.
         23    2    4    4    0    0 -0.16079916962E+03  0.30496363339E+03  0.20476140280E+04  0.20784743544E+04  0.92050223003E+02 0.  0.
          2    1    3    3  502    0  0.31335249483E+03 -0.98833159090E+02  0.16394995732E+03  0.36720208041E+03  0.00000000000E+00 0. -1.
         -1    1    3    3    0  502  0.13524715204E+02  0.98806898552E+01 -0.19354085938E+01  0.16860953703E+02  0.00000000000E+00 0.  1.
         13    1    5    5    0    0 -0.11246649711E+03 -0.72372086215E+02  0.62287077403E+02  0.14753342620E+03  0.00000000000E+00 0. -1.
        -13    1    5    5    0    0 -0.53611543296E+02 -0.14363907794E+03  0.96853832986E+02  0.18134786254E+03  0.00000000000E+00 0.  1.
          4    1    6    6  503    0 -0.44804323787E+02  0.15307537932E+03  0.11271744498E+04  0.11384031533E+04  0.00000000000E+00 0. -1.
         -4    1    6    6    0  503 -0.11599484583E+03  0.15188825407E+03  0.92043957824E+03  0.94007120112E+03  0.00000000000E+00 0.  1.
<mgrwt>
<rscale>  0 0.14768038E+04</rscale>
<asrwt>0</asrwt>
<pdfrwt beam="1">  1        2 0.39693753E+00 0.14768038E+04</pdfrwt>
<pdfrwt beam="2">  1       -1 0.32511478E-01 0.14768038E+04</pdfrwt>
<totfact> 0.30613823E+01</totfact>
</mgrwt>
</event>
<event>
12    7  0.1661464E-007  0.1578599E+04  0.7818608E-02  0.8833804E-01
          2   -1    0    0  501    0  0.00000000000E+00  0.00000000000E+00  0.20483621347E+04  0.20483621347E+04  0.00000000000E+00 0. -1.
         -1   -1    0    0    0  501 -0.00000000000E+00 -0.00000000000E+00 -0.30414233556E+03  0.30414233556E+03  0.00000000000E+00 0.  1.
         24    2    1    2    0    0 -0.23109124575E+03 -0.33383310244E+03  0.99807668826E+02  0.42557591994E+03  0.79407737216E+02 0.  0.
        254    2    1    2    0    0  0.23109124575E+03  0.33383310244E+03  0.16444121304E+04  0.19269285504E+04  0.91875713851E+03 0.  0.
         23    2    4    4    0    0  0.72414820870E+02  0.16765549773E+03  0.16660798411E+04  0.16784533410E+04  0.89617569452E+02 0.  0.
         23    2    4    4    0    0  0.15867642488E+03  0.16617760470E+03 -0.21667710737E+02  0.24847520937E+03  0.92071905958E+02 0.  0.
          2    1    3    3  502    0 -0.18753130341E+01 -0.34994996210E+02 -0.30020937942E+01  0.35173557196E+02  0.00000000000E+00 0. -1.
         -1    1    3    3    0  502 -0.22921593272E+03 -0.29883810623E+03  0.10280976262E+03  0.39040236274E+03  0.00000000000E+00 0.  1.
         13    1    5    5    0    0  0.13727517695E+02  0.12840439557E+03  0.12207720147E+04  0.12275831725E+04  0.00000000000E+00 0. -1.
        -13    1    5    5    0    0  0.58687303176E+02  0.39251102164E+02  0.44530782640E+03  0.45087016848E+03  0.00000000000E+00 0.  1.
          2    1    6    6  503    0  0.17094467789E+03  0.15642254235E+03 -0.18219060578E+02  0.23242639442E+03  0.00000000000E+00 0. -1.
         -2    1    6    6    0  503 -0.12268253011E+02  0.97550623481E+01 -0.34486501594E+01  0.16048814950E+02  0.00000000000E+00 0.  1.
<mgrwt>
<rscale>  0 0.15785989E+04</rscale>
<asrwt>0</asrwt>
<pdfrwt beam="1">  1        2 0.31513263E+00 0.15785989E+04</pdfrwt>
<pdfrwt beam="2">  1       -1 0.46791130E-01 0.15785989E+04</pdfrwt>
<totfact> 0.31278639E+01</totfact>
</mgrwt>
</event>
<event>
12    7  0.1661464E-007  0.1494886E+04  0.7818608E-02  0.8887861E-01
         -1   -1    0    0    0  501 -0.00000000000E+00  0.00000000000E+00  0.30579293293E+03  0.30579293293E+03  0.00000000000E+00 0.  1.
          2   -1    0    0  501    0  0.00000000000E+00 -0.00000000000E+00 -0.18269591939E+04  0.18269591939E+04  0.00000000000E+00 0. -1.
         24    2    1    2    0    0 -0.11505417092E+03 -0.44517438711E+03 -0.30501178738E+03  0.55730133110E+03  0.78325513201E+02 0.  0.
        254    2    1    2    0    0  0.11505417092E+03  0.44517438711E+03 -0.12161544736E+04  0.15754507957E+04  0.88971670150E+03 0.  0.
         23    2    4    4    0    0 -0.36898153318E+03  0.29459669731E+03 -0.66889002852E+03  0.82393591841E+03  0.92314362320E+02 0.  0.
         23    2    4    4    0    0  0.48403570410E+03  0.15057768980E+03 -0.54726444505E+03  0.75151487730E+03  0.91170359681E+02 0.  0.
          2    1    3    3  502    0 -0.91606058251E+02 -0.37316597154E+03 -0.28662032659E+03  0.47937013240E+03  0.00000000000E+00 0. -1.
         -1    1    3    3    0  502 -0.23448112664E+02 -0.72008415577E+02 -0.18391460796E+02  0.77931198705E+02  0.00000000000E+00 0.  1.
         13    1    5    5    0    0 -0.37456875028E+03  0.29198549165E+03 -0.66065426837E+03  0.81364693716E+03  0.00000000000E+00 0. -1.
        -13    1    5    5    0    0  0.55872171033E+01  0.26112056618E+01 -0.82357601455E+01  0.10288981249E+02  0.00000000000E+00 0.  1.
          1    1    6    6  503    0  0.48167810674E+03  0.13780430925E+03 -0.52467249120E+03  0.72545506352E+03  0.00000000000E+00 0. -1.
         -1    1    6    6    0  503  0.23575973591E+01  0.12773380543E+02 -0.22591953844E+02  0.26059813781E+02  0.00000000000E+00 0.  1.
<mgrwt>
<rscale>  0 0.14948862E+04</rscale>
<asrwt>0</asrwt>
<pdfrwt beam="1">  1        2 0.28107065E+00 0.14948862E+04</pdfrwt>
<pdfrwt beam="2">  1       -1 0.47045066E-01 0.14948862E+04</pdfrwt>
<totfact> 0.41357304E+01</totfact>
</mgrwt>
</event>
<event>
12    7  0.1661464E-007  0.2206066E+04  0.7818608E-02  0.8515907E-01
          2   -1    0    0  501    0  0.00000000000E+00  0.00000000000E+00  0.25190246175E+04  0.25190246175E+04  0.00000000000E+00 0. -1.
         -1   -1    0    0    0  501 -0.00000000000E+00 -0.00000000000E+00 -0.48299729595E+03  0.48299729595E+03  0.00000000000E+00 0.  1.
         24    2    1    2    0    0  0.76874790420E+03  0.81551512701E+02  0.18103880077E+03  0.79804479969E+03  0.80476490347E+02 0.  0.
        254    2    1    2    0    0 -0.76874790420E+03 -0.81551512701E+02  0.18549885208E+04  0.22039771138E+04  0.90493575258E+03 0.  0.
         23    2    4    4    0    0 -0.18917674651E+03  0.36614809762E+03  0.92599061944E+03  0.10176794310E+04  0.91435913318E+02 0.  0.
         23    2    4    4    0    0 -0.57957115769E+03 -0.44769961032E+03  0.92899790137E+03  0.11862976827E+04  0.89036079403E+02 0.  0.
          4    1    3    3  502    0  0.88469154802E+02  0.27717077704E+02  0.28253766493E+01  0.92752415068E+02  0.00000000000E+00 0. -1.
         -3    1    3    3    0  502  0.68027874939E+03  0.53834434997E+02  0.17821342412E+03  0.70529238462E+03  0.00000000000E+00 0.  1.
         13    1    5    5    0    0 -0.14323350128E+03  0.27770941169E+03  0.78603701867E+03  0.84586792583E+03  0.00000000000E+00 0.  1.
        -13    1    5    5    0    0 -0.45943245230E+02  0.88438685928E+02  0.13995360077E+03  0.17181150520E+03  0.00000000000E+00 0. -1.
          4    1    6    6  503    0 -0.14618748291E+03 -0.68546482861E+02  0.18654115488E+03  0.24671238910E+03  0.00000000000E+00 0.  1.
         -4    1    6    6    0  503 -0.43338367478E+03 -0.37915312746E+03  0.74245674648E+03  0.93958529364E+03  0.00000000000E+00 0. -1.
<mgrwt>
<rscale>  0 0.22060663E+04</rscale>
<asrwt>0</asrwt>
<pdfrwt beam="1">  1        2 0.38754224E+00 0.22060663E+04</pdfrwt>
<pdfrwt beam="2">  1       -1 0.74307278E-01 0.22060663E+04</pdfrwt>
<totfact> 0.64323265E+00</totfact>
</mgrwt>
</event>
<event>
12    7  0.1661464E-007  0.1908581E+04  0.7818608E-02  0.8650597E-01
         -1   -1    0    0    0  501 -0.00000000000E+00  0.00000000000E+00  0.73306546947E+03  0.73306546947E+03  0.00000000000E+00 0.  1.
          2   -1    0    0  501    0  0.00000000000E+00 -0.00000000000E+00 -0.12422772461E+04  0.12422772461E+04  0.00000000000E+00 0. -1.
         24    2    1    2    0    0  0.50751745985E+03 -0.34880626115E+03 -0.62855607166E+03  0.88349493064E+03  0.78998590968E+02 0.  0.
        254    2    1    2    0    0 -0.50751745985E+03  0.34880626115E+03  0.11934429505E+03  0.10918477849E+04  0.89367149714E+03 0.  0.
         23    2    4    4    0    0 -0.75279665402E+03  0.31073276778E+03  0.67084030647E+02  0.82218103086E+03  0.90684756459E+02 0.  0.
         23    2    4    4    0    0  0.24527919417E+03  0.38073493364E+02  0.52260264401E+02  0.26966675406E+03  0.91528951806E+02 0.  0.
          2    1    3    3  502    0  0.17295769034E+03 -0.13868708902E+03 -0.27580150839E+03  0.35385723581E+03  0.00000000000E+00 0. -1.
         -1    1    3    3    0  502  0.33455976951E+03 -0.21011917213E+03 -0.35275456327E+03  0.52963769483E+03  0.00000000000E+00 0.  1.
         13    1    5    5    0    0 -0.31468374320E+03  0.89482417952E+02  0.27339126213E+01  0.32717034651E+03  0.00000000000E+00 0. -1.
        -13    1    5    5    0    0 -0.43811291082E+03  0.22125034983E+03  0.64350118025E+02  0.49501068435E+03  0.00000000000E+00 0.  1.
          1    1    6    6  503    0  0.16158630213E+03  0.41421728884E+02  0.74968981070E+02  0.18288313422E+03  0.00000000000E+00 0. -1.
         -1    1    6    6    0  503  0.83692892039E+02 -0.33482355200E+01 -0.22708716669E+02  0.86783619835E+02  0.00000000000E+00 0.  1.
<mgrwt>
<rscale>  0 0.19085812E+04</rscale>
<asrwt>0</asrwt>
<pdfrwt beam="1">  1        2 0.19111958E+00 0.19085812E+04</pdfrwt>
<pdfrwt beam="2">  1       -1 0.11277930E+00 0.19085812E+04</pdfrwt>
<totfact> 0.13718818E+01</totfact>
</mgrwt>
</event>
<event>
12    7  0.1661464E-007  0.1949757E+04  0.7818608E-02  0.8630478E-01
          2   -1    0    0  501    0  0.00000000000E+00  0.00000000000E+00  0.53861241170E+03  0.53861241170E+03  0.00000000000E+00 0. -1.
         -1   -1    0    0    0  501 -0.00000000000E+00 -0.00000000000E+00 -0.17645121024E+04  0.17645121024E+04  0.00000000000E+00 0.  1.
         24    2    1    2    0    0 -0.19101057058E+03 -0.36683673263E+03 -0.12596257382E+04  0.13282811708E+04  0.81361180587E+02 0.  0.
        254    2    1    2    0    0  0.19101057058E+03  0.36683673263E+03  0.33726047559E+02  0.97484334331E+03  0.88211556569E+03 0.  0.
         23    2    4    4    0    0  0.17746005354E+03  0.38936469087E+03  0.40193510594E+03  0.59440172231E+03  0.93084074896E+02 0.  0.
         23    2    4    4    0    0  0.13550517039E+02 -0.22527958242E+02 -0.36820905838E+03  0.38044162100E+03  0.92015166657E+02 0.  0.
          4    1    3    3  502    0 -0.11473759647E+03 -0.15143097821E+03 -0.49372793772E+03  0.52902110893E+03  0.00000000000E+00 0. -1.
         -3    1    3    3    0  502 -0.76272974113E+02 -0.21540575442E+03 -0.76589780050E+03  0.79926006182E+03  0.00000000000E+00 0.  1.
         13    1    5    5    0    0  0.18787152006E+03  0.35115665707E+03  0.36812591806E+03  0.54233144607E+03  0.00000000000E+00 0.  1.
        -13    1    5    5    0    0 -0.10411466522E+02  0.38208033803E+02  0.33809187883E+02  0.52070276238E+02  0.00000000000E+00 0. -1.
          4    1    6    6  503    0 -0.41976078029E+01 -0.14030870943E+02 -0.33129685148E+01  0.15015359173E+02  0.00000000000E+00 0. -1.
         -4    1    6    6    0  503  0.17748124842E+02 -0.84970872988E+01 -0.36489608987E+03  0.36542626182E+03  0.00000000000E+00 0.  1.
<mgrwt>
<rscale>  0 0.19497570E+04</rscale>
<asrwt>0</asrwt>
<pdfrwt beam="1">  1        2 0.82863448E-01 0.19497570E+04</pdfrwt>
<pdfrwt beam="2">  1       -1 0.27146340E+00 0.19497570E+04</pdfrwt>
<totfact> 0.30407333E+00</totfact>
</mgrwt>
</event>
<event>
12    7  0.1661464E-007  0.4221292E+04  0.7818608E-02  0.7961334E-01
         -1   -1    0    0    0  501 -0.00000000000E+00  0.00000000000E+00  0.83844352320E+03  0.83844352320E+03  0.00000000000E+00 0.  1.
          2   -1    0    0  501    0  0.00000000000E+00 -0.00000000000E+00 -0.53132093847E+04  0.53132093847E+04  0.00000000000E+00 0. -1.
         24    2    1    2    0    0  0.50311154589E+03  0.19404579017E+04 -0.21025508715E+04  0.29061244743E+04  0.79631633135E+02 0.  0.
        254    2    1    2    0    0 -0.50311154589E+03 -0.19404579017E+04 -0.23722149900E+04  0.32455284335E+04  0.94210018486E+03 0.  0.
         23    2    4    4    0    0  0.53895893827E+02 -0.10491783382E+04 -0.16825242690E+04  0.19852062973E+04  0.80474680147E+02 0.  0.
         23    2    4    4    0    0 -0.55700743972E+03 -0.89127956349E+03 -0.68969072094E+03  0.12603221362E+04  0.90011379092E+02 0.  0.
          4    1    3    3  502    0  0.36958065402E+03  0.14979757561E+04 -0.15764538571E+04  0.22058395203E+04  0.00000000000E+00 0. -1.
         -3    1    3    3    0  502  0.13353089188E+03  0.44248214564E+03 -0.52609701441E+03  0.70028495405E+03  0.00000000000E+00 0.  1.
         13    1    5    5    0    0  0.47904316447E+02 -0.42903858502E+03 -0.74755893595E+03  0.86325737396E+03  0.00000000000E+00 0. -1.
        -13    1    5    5    0    0  0.59915773800E+01 -0.62013975322E+03 -0.93496533309E+03  0.11219489233E+04  0.00000000000E+00 0.  1.
          2    1    6    6  503    0 -0.29798331914E+03 -0.55412835782E+03 -0.43114156545E+03  0.76271576940E+03  0.00000000000E+00 0. -1.
         -2    1    6    6    0  503 -0.25902412058E+03 -0.33715120567E+03 -0.25854915548E+03  0.49760636684E+03  0.00000000000E+00 0.  1.
<mgrwt>
<rscale>  0 0.42212917E+04</rscale>
<asrwt>0</asrwt>
<pdfrwt beam="1">  1        2 0.81741683E+00 0.42212917E+04</pdfrwt>
<pdfrwt beam="2">  1       -1 0.12899131E+00 0.42212917E+04</pdfrwt>
<totfact> 0.55504844E-03</totfact>
</mgrwt>
</event>
<event>
12    7  0.1661464E-007  0.2415451E+04  0.7818608E-02  0.8433741E-01
         -1   -1    0    0    0  501 -0.00000000000E+00  0.00000000000E+00  0.12947493307E+04  0.12947493307E+04  0.00000000000E+00 0.  1.
          2   -1    0    0  501    0  0.00000000000E+00 -0.00000000000E+00 -0.11265509875E+04  0.11265509875E+04  0.00000000000E+00 0. -1.
         24    2    1    2    0    0  0.33109947088E+03 -0.98633950914E+03  0.39023558609E+02  0.10442811183E+04  0.80670496906E+02 0.  0.
        254    2    1    2    0    0 -0.33109947088E+03  0.98633950914E+03  0.12917478460E+03  0.13770191999E+04  0.89275039346E+03 0.  0.
         23    2    4    4    0    0  0.40395951750E+02  0.85982277715E+03 -0.16107582769E+03  0.88033757615E+03  0.90120944862E+02 0.  0.
         23    2    4    4    0    0 -0.37149542263E+03  0.12651673199E+03  0.29025061229E+03  0.49668162375E+03  0.91825295676E+02 0.  0.
          2    1    3    3  502    0  0.13650817022E+03 -0.38563997482E+03  0.54231031751E+02  0.41266654277E+03  0.00000000000E+00 0. -1.
         -1    1    3    3    0  502  0.19459130066E+03 -0.60069953431E+03 -0.15207473142E+02  0.63161457556E+03  0.00000000000E+00 0.  1.
         13    1    5    5    0    0  0.44012091606E+02  0.20539582459E+03 -0.21255599787E+02  0.21113102446E+03  0.00000000000E+00 0. -1.
        -13    1    5    5    0    0 -0.36161398564E+01  0.65442695255E+03 -0.13982022790E+03  0.66920655169E+03  0.00000000000E+00 0.  1.
          1    1    6    6  503    0 -0.28521470729E+02  0.13043122221E+02  0.61655253280E+02  0.69173460133E+02  0.00000000000E+00 0. -1.
         -1    1    6    6    0  503 -0.34297395190E+03  0.11347360977E+03  0.22859535901E+03  0.42750816362E+03  0.00000000000E+00 0.  1.
<mgrwt>
<rscale>  0 0.24154512E+04</rscale>
<asrwt>0</asrwt>
<pdfrwt beam="1">  1        2 0.17331554E+00 0.24154512E+04</pdfrwt>
<pdfrwt beam="2">  1       -1 0.19919220E+00 0.24154512E+04</pdfrwt>
<totfact> 0.32747472E+00</totfact>
</mgrwt>
</event>
<event>
12    7  0.1661464E-007  0.1411610E+04  0.7818608E-02  0.8945457E-01
         -1   -1    0    0    0  501 -0.00000000000E+00  0.00000000000E+00  0.13041378098E+03  0.13041378098E+03  0.00000000000E+00 0.  1.
          2   -1    0    0  501    0  0.00000000000E+00 -0.00000000000E+00 -0.38198464078E+04  0.38198464078E+04  0.00000000000E+00 0. -1.
         24    2    1    2    0    0 -0.37844193401E+03  0.40496328645E+02 -0.73644021326E+03  0.83272237134E+03  0.78893028627E+02 0.  0.
        254    2    1    2    0    0  0.37844193401E+03 -0.40496328645E+02 -0.29529924135E+04  0.31175378174E+04  0.92413180800E+03 0.  0.
         23    2    4    4    0    0  0.29653238712E+03 -0.44378551060E+03 -0.12333716711E+04  0.13470518364E+04  0.92010515025E+02 0.  0.
         23    2    4    4    0    0  0.81909546889E+02  0.40328918196E+03 -0.17196207424E+04  0.17704859810E+04  0.90408920808E+02 0.  0.
          2    1    3    3  502    0 -0.34905128569E+02  0.20711082489E+02 -0.46428808469E+02  0.61668072729E+02  0.00000000000E+00 0. -1.
         -1    1    3    3    0  502 -0.34353680544E+03  0.19785246155E+02 -0.69001140479E+03  0.77105429861E+03  0.00000000000E+00 0.  1.
         13    1    5    5    0    0  0.28476757843E+03 -0.37165257952E+03 -0.10505296633E+04  0.11501438114E+04  0.00000000000E+00 0. -1.
        -13    1    5    5    0    0  0.11764808690E+02 -0.72132931082E+02 -0.18284200780E+03  0.19690802494E+03  0.00000000000E+00 0.  1.
          3    1    6    6  503    0  0.29490411394E+02  0.32403558635E+03 -0.13783738225E+04  0.14162567352E+04  0.00000000000E+00 0. -1.
         -3    1    6    6    0  503  0.52419135496E+02  0.79253595602E+02 -0.34124691998E+03  0.35422924580E+03  0.00000000000E+00 0.  1.
<mgrwt>
<rscale>  0 0.14116099E+04</rscale>
<asrwt>0</asrwt>
<pdfrwt beam="1">  1        2 0.58766867E+00 0.14116099E+04</pdfrwt>
<pdfrwt beam="2">  1       -1 0.20063659E-01 0.14116099E+04</pdfrwt>
<totfact> 0.10940111E+01</totfact>
</mgrwt>
</event>
<event>
12    7  0.1661464E-007  0.1090442E+04  0.7818608E-02  0.9214558E-01
         -1   -1    0    0    0  501 -0.00000000000E+00  0.00000000000E+00  0.48601162045E+03  0.48601162045E+03  0.00000000000E+00 0.  1.
          2   -1    0    0  501    0  0.00000000000E+00 -0.00000000000E+00 -0.61164326306E+03  0.61164326306E+03  0.00000000000E+00 0. -1.
         24    2    1    2    0    0  0.57444644871E+02 -0.13602245325E+03  0.50546050303E+02  0.17482374989E+03  0.78780995879E+02 0.  0.
        254    2    1    2    0    0 -0.57444644871E+02  0.13602245325E+03 -0.17617769291E+03  0.92283113362E+03  0.89374309882E+03 0.  0.
         23    2    4    4    0    0 -0.40739814352E+03  0.10983884266E+03 -0.31592512026E+03  0.53413987853E+03  0.86364978561E+02 0.  0.
         23    2    4    4    0    0  0.34995349865E+03  0.26183610588E+02  0.13974742734E+03  0.38869125510E+03  0.91643415782E+02 0.  0.
          4    1    3    3  502    0  0.21122128556E+02 -0.91159725458E+02 -0.63285130967E+01  0.93788538417E+02  0.00000000000E+00 0. -1.
         -3    1    3    3    0  502  0.36322516314E+02 -0.44862727788E+02  0.56874563400E+02  0.81035211469E+02  0.00000000000E+00 0.  1.
         13    1    5    5    0    0 -0.59233728944E+01  0.17133342908E+02 -0.83324295803E+01  0.19951620695E+02  0.00000000000E+00 0.  1.
        -13    1    5    5    0    0 -0.40147477063E+03  0.92705499749E+02 -0.30759269068E+03  0.51418825783E+03  0.00000000000E+00 0. -1.
          3    1    6    6  503    0  0.29884515501E+03  0.45901507986E+02  0.14163208570E+03  0.33387875465E+03  0.00000000000E+00 0. -1.
         -3    1    6    6    0  503  0.51108343647E+02 -0.19717897397E+02 -0.18846583584E+01  0.54812500447E+02  0.00000000000E+00 0.  1.
<mgrwt>
<rscale>  0 0.10904416E+04</rscale>
<asrwt>0</asrwt>
<pdfrwt beam="1">  1        2 0.94098963E-01 0.10904416E+04</pdfrwt>
<pdfrwt beam="2">  1       -1 0.74771019E-01 0.10904416E+04</pdfrwt>
<totfact> 0.99016705E+01</totfact>
</mgrwt>
</event>
<event>
12    7  0.1661464E-007  0.2043134E+04  0.7818608E-02  0.8586716E-01
          2   -1    0    0  501    0  0.00000000000E+00  0.00000000000E+00  0.10216852570E+04  0.10216852570E+04  0.00000000000E+00 0. -1.
         -1   -1    0    0    0  501 -0.00000000000E+00 -0.00000000000E+00 -0.10214484873E+04  0.10214484873E+04  0.00000000000E+00 0.  1.
         24    2    1    2    0    0 -0.79932763823E+03 -0.13122265652E+02  0.17483881943E+03  0.82220498556E+03  0.79721756083E+02 0.  0.
        254    2    1    2    0    0  0.79932763823E+03  0.13122265652E+02 -0.17460204978E+03  0.12209287588E+04  0.90613701565E+03 0.  0.
         23    2    4    4    0    0  0.82991991714E+03  0.26881030358E+03 -0.29094573435E+03  0.92399188261E+03  0.89919578603E+02 0.  0.
         23    2    4    4    0    0 -0.30592278907E+02 -0.25568803792E+03  0.11634368457E+03  0.29693687617E+03  0.91232643435E+02 0.  0.
          2    1    3    3  502    0 -0.50338467345E+03 -0.18979933433E+02  0.72072234126E+02  0.50887206081E+03  0.00000000000E+00 0. -1.
         -1    1    3    3    0  502 -0.29594296478E+03  0.58576677809E+01  0.10276658530E+03  0.31333292475E+03  0.00000000000E+00 0.  1.
         13    1    5    5    0    0  0.75899815940E+03  0.21890197854E+03 -0.26968832164E+03  0.83470238589E+03  0.00000000000E+00 0. -1.
        -13    1    5    5    0    0  0.70921757737E+02  0.49908325040E+02 -0.21257412705E+02  0.89289496715E+02  0.00000000000E+00 0.  1.
          1    1    6    6  503    0 -0.56484119951E+02 -0.13262082862E+03  0.39135365019E+02  0.14936638439E+03  0.00000000000E+00 0. -1.
         -1    1    6    6    0  503  0.25891841044E+02 -0.12306720930E+03  0.77208319547E+02  0.14757049178E+03  0.00000000000E+00 0.  1.
<mgrwt>
<rscale>  0 0.20431337E+04</rscale>
<asrwt>0</asrwt>
<pdfrwt beam="1">  1        2 0.15718235E+00 0.20431337E+04</pdfrwt>
<pdfrwt beam="2">  1       -1 0.15714592E+00 0.20431337E+04</pdfrwt>
<totfact> 0.79154370E+00</totfact>
</mgrwt>
</event>
<event>
12    7  0.1661464E-007  0.1547926E+04  0.7818608E-02  0.8853194E-01
         -1   -1    0    0    0  501 -0.00000000000E+00  0.00000000000E+00  0.11121366308E+04  0.11121366308E+04  0.00000000000E+00 0.  1.
          2   -1    0    0  501    0  0.00000000000E+00 -0.00000000000E+00 -0.53861959050E+03  0.53861959050E+03  0.00000000000E+00 0. -1.
         24    2    1    2    0    0  0.15844230057E+02 -0.32933518692E+02  0.72634706558E+03  0.73122965216E+03  0.76033467886E+02 0.  0.
        254    2    1    2    0    0 -0.15844230057E+02  0.32933518692E+02 -0.15283002525E+03  0.91952656918E+03  0.90600024201E+03 0.  0.
         23    2    4    4    0    0  0.17350296668E+03  0.41640032481E+03 -0.14265628037E+03  0.48158890141E+03  0.89914101663E+02 0.  0.
         23    2    4    4    0    0 -0.18934719674E+03 -0.38346680612E+03 -0.10173744876E+02  0.43793766777E+03  0.93737630950E+02 0.  0.
          4    1    3    3  502    0  0.44389186192E+02 -0.27346940662E+02  0.36369185578E+03  0.36740988144E+03  0.00000000000E+00 0. -1.
         -3    1    3    3    0  502 -0.28544956135E+02 -0.55865780299E+01  0.36265520980E+03  0.36381977072E+03  0.00000000000E+00 0.  1.
         13    1    5    5    0    0 -0.99037109653E+01  0.36778520508E+02 -0.16543188290E+02  0.41526138039E+02  0.00000000000E+00 0.  1.
        -13    1    5    5    0    0  0.18340667764E+03  0.37962180431E+03 -0.12611309208E+03  0.44006276337E+03  0.00000000000E+00 0. -1.
          3    1    6    6  503    0 -0.10339187527E+03 -0.28561915325E+03  0.19422621342E+02  0.30437709965E+03  0.00000000000E+00 0. -1.
         -3    1    6    6    0  503 -0.85955321472E+02 -0.97847652876E+02 -0.29596366219E+02  0.13356056812E+03  0.00000000000E+00 0.  1.
<mgrwt>
<rscale>  0 0.15479258E+04</rscale>
<asrwt>0</asrwt>
<pdfrwt beam="1">  1        2 0.82864553E-01 0.15479258E+04</pdfrwt>
<pdfrwt beam="2">  1       -1 0.17109794E+00 0.15479258E+04</pdfrwt>
<totfact> 0.14996863E+01</totfact>
</mgrwt>
</event>
<event>
12    7  0.1661464E-007  0.2560941E+04  0.7818608E-02  0.8381591E-01
          2   -1    0    0  501    0  0.00000000000E+00  0.00000000000E+00  0.18768603262E+04  0.18768603262E+04  0.00000000000E+00 0. -1.
         -1   -1    0    0    0  501 -0.00000000000E+00 -0.00000000000E+00 -0.87358876891E+03  0.87358876891E+03  0.00000000000E+00 0.  1.
         24    2    1    2    0    0  0.17757479044E+03  0.88752834774E+03  0.12171908902E+04  0.15187462035E+04  0.76137989041E+02 0.  0.
        254    2    1    2    0    0 -0.17757479044E+03 -0.88752834774E+03 -0.21391933291E+03  0.12317028916E+04  0.80752161447E+03 0.  0.
         23    2    4    4    0    0  0.16844537917E+03 -0.26972399970E+03 -0.37471788885E+03  0.49995330777E+03  0.91732938162E+02 0.  0.
         23    2    4    4    0    0 -0.34602016962E+03 -0.61780434803E+03  0.16079855594E+03  0.73174958379E+03  0.90493687883E+02 0.  0.
          2    1    3    3  502    0  0.53851580765E+02  0.45882511376E+03  0.60577676750E+03  0.76183067004E+03  0.00000000000E+00 0. -1.
         -1    1    3    3    0  502  0.12372320968E+03  0.42870323398E+03  0.61141412269E+03  0.75691553350E+03  0.00000000000E+00 0.  1.
         13    1    5    5    0    0  0.44474352666E+02 -0.13291369900E+03 -0.11498391090E+03  0.18128794553E+03  0.00000000000E+00 0.  1.
        -13    1    5    5    0    0  0.12397102651E+03 -0.13681030070E+03 -0.25973397795E+03  0.31866536224E+03  0.00000000000E+00 0. -1.
          1    1    6    6  503    0 -0.32341682940E+03 -0.59277033887E+03  0.13343421432E+03  0.68831664932E+03  0.00000000000E+00 0. -1.
         -1    1    6    6    0  503 -0.22603340219E+02 -0.25034009168E+02  0.27364341623E+02  0.43432934469E+02  0.00000000000E+00 0.  1.
<mgrwt>
<rscale>  0 0.25609405E+04</rscale>
<asrwt>0</asrwt>
<pdfrwt beam="1">  1        2 0.28874774E+00 0.25609405E+04</pdfrwt>
<pdfrwt beam="2">  1       -1 0.13439827E+00 0.25609405E+04</pdfrwt>
<totfact> 0.36805816E+00</totfact>
</mgrwt>
</event>
<event>
12    7  0.1661464E-007  0.2093569E+04  0.7818608E-02  0.8564082E-01
         -1   -1    0    0    0  501 -0.00000000000E+00  0.00000000000E+00  0.49093886230E+03  0.49093886230E+03  0.00000000000E+00 0.  1.
          2   -1    0    0  501    0  0.00000000000E+00 -0.00000000000E+00 -0.22319628142E+04  0.22319628142E+04  0.00000000000E+00 0. -1.
         24    2    1    2    0    0 -0.52373075102E+03  0.15035200640E+03  0.12836833265E+03  0.56577574524E+03  0.82000851679E+02 0.  0.
        254    2    1    2    0    0  0.52373075102E+03 -0.15035200640E+03 -0.18693922846E+04  0.21571259313E+04  0.92825920109E+03 0.  0.
         23    2    4    4    0    0 -0.70384184247E+02  0.10560998713E+03  0.20452944338E+02  0.15759506716E+03  0.91161831306E+02 0.  0.
         23    2    4    4    0    0  0.59411493527E+03 -0.25596199353E+03 -0.18898452289E+04  0.19995308641E+04  0.90108761576E+02 0.  0.
          2    1    3    3  502    0 -0.26452336205E+03  0.50724963169E+02  0.97168947373E+02  0.28633448149E+03  0.00000000000E+00 0. -1.
         -1    1    3    3    0  502 -0.25920738897E+03  0.99627043231E+02  0.31199385279E+02  0.27944126374E+03  0.00000000000E+00 0.  1.
         13    1    5    5    0    0 -0.87876398253E+02  0.59179977653E+02  0.20848496866E+02  0.10797773357E+03  0.00000000000E+00 0.  1.
        -13    1    5    5    0    0  0.17492214005E+02  0.46430009480E+02 -0.39555252782E+00  0.49617333593E+02  0.00000000000E+00 0. -1.
          1    1    6    6  503    0  0.11197564520E+03 -0.42112689557E+02 -0.25410792754E+03  0.28086093103E+03  0.00000000000E+00 0. -1.
         -1    1    6    6    0  503  0.48213929007E+03 -0.21384930398E+03 -0.16357373014E+04  0.17186699331E+04  0.00000000000E+00 0.  1.
<mgrwt>
<rscale>  0 0.20935685E+04</rscale>
<asrwt>0</asrwt>
<pdfrwt beam="1">  1        2 0.34337889E+00 0.20935685E+04</pdfrwt>
<pdfrwt beam="2">  1       -1 0.75529056E-01 0.20935685E+04</pdfrwt>
<totfact> 0.91597103E+00</totfact>
</mgrwt>
</event>
<event>
12    7  0.1661464E-007  0.1593254E+04  0.7818608E-02  0.8824703E-01
          2   -1    0    0  501    0  0.00000000000E+00  0.00000000000E+00  0.16080027576E+04  0.16080027576E+04  0.00000000000E+00 0. -1.
         -1   -1    0    0    0  501 -0.00000000000E+00 -0.00000000000E+00 -0.39466017229E+03  0.39466017229E+03  0.00000000000E+00 0.  1.
         24    2    1    2    0    0 -0.32278713502E+01  0.22579978618E+03 -0.19927164218E+03  0.31176192267E+03  0.80562686490E+02 0.  0.
        254    2    1    2    0    0  0.32278713502E+01 -0.22579978618E+03  0.14126142275E+04  0.16909010072E+04  0.90148283285E+03 0.  0.
         23    2    4    4    0    0  0.35274288652E+03 -0.18178520554E+03  0.26160137078E+03  0.48369761840E+03  0.89748002227E+02 0.  0.
         23    2    4    4    0    0 -0.34951501517E+03 -0.44014580637E+02  0.11510128567E+04  0.12072033888E+04  0.91713666115E+02 0.  0.
          4    1    3    3  502    0  0.19302925625E+02  0.55912143729E+02 -0.16928632892E+02  0.61525192935E+02  0.00000000000E+00 0. -1.
         -3    1    3    3    0  502 -0.22530796975E+02  0.16988764245E+03 -0.18234300929E+03  0.25023672973E+03  0.00000000000E+00 0.  1.
         13    1    5    5    0    0  0.95372969030E+02 -0.84958910283E+02  0.51845078766E+02  0.13784749490E+03  0.00000000000E+00 0. -1.
        -13    1    5    5    0    0  0.25736991749E+03 -0.96826295260E+02  0.20975629202E+03  0.34585012350E+03  0.00000000000E+00 0.  1.
          3    1    6    6  503    0 -0.16258970760E+03 -0.11279158095E+02  0.38584983691E+03  0.41885884146E+03  0.00000000000E+00 0. -1.
         -3    1    6    6    0  503 -0.18692530757E+03 -0.32735422542E+02  0.76516301980E+03  0.78834454737E+03  0.00000000000E+00 0.  1.
<mgrwt>
<rscale>  0 0.15932541E+04</rscale>
<asrwt>0</asrwt>
<pdfrwt beam="1">  1        2 0.24738504E+00 0.15932541E+04</pdfrwt>
<pdfrwt beam="2">  1       -1 0.60716951E-01 0.15932541E+04</pdfrwt>
<totfact> 0.33188122E+01</totfact>
</mgrwt>
</event>
<event>
12    7  0.1664711E-007  0.1934682E+04  0.7818608E-02  0.8637783E-01
          4   -1    0    0  501    0  0.00000000000E+00  0.00000000000E+00  0.98449585036E+03  0.98449585036E+03  0.00000000000E+00 0. -1.
         -3   -1    0    0    0  501 -0.00000000000E+00 -0.00000000000E+00 -0.95048463788E+03  0.95048463788E+03  0.00000000000E+00 0.  1.
         24    2    1    2    0    0  0.39151827092E+03 -0.36685419049E+03  0.54368461457E+03  0.76808667274E+03  0.80595428961E+02 0.  0.
        254    2    1    2    0    0 -0.39151827092E+03  0.36685419049E+03 -0.50967340209E+03  0.11668938155E+04  0.90222261460E+03 0.  0.
         23    2    4    4    0    0 -0.42181901389E+03 -0.73935659488E+02  0.57379368876E+02  0.44202353666E+03  0.93245121942E+02 0.  0.
         23    2    4    4    0    0  0.30300742969E+02  0.44078984998E+03 -0.56705277097E+03  0.72487027883E+03  0.93135649482E+02 0.  0.
          2    1    3    3  502    0  0.36655128165E+03 -0.33288983155E+03  0.52594375716E+03  0.72235193481E+03  0.00000000000E+00 0. -1.
         -1    1    3    3    0  502  0.24966989278E+02 -0.33964358943E+02  0.17740857412E+02  0.45734737932E+02  0.00000000000E+00 0.  1.
         13    1    5    5    0    0 -0.18718623603E+03 -0.32198682501E+02  0.72324328783E+02  0.20323939246E+03  0.00000000000E+00 0. -1.
        -13    1    5    5    0    0 -0.23463277786E+03 -0.41736976987E+02 -0.14944959907E+02  0.23878414420E+03  0.00000000000E+00 0.  1.
          3    1    6    6  503    0  0.52367701110E+02  0.33472665753E+03 -0.38338672374E+03  0.51163433360E+03  0.00000000000E+00 0. -1.
         -3    1    6    6    0  503 -0.22066958141E+02  0.10606319245E+03 -0.18366604723E+03  0.21323594523E+03  0.00000000000E+00 0.  1.
<mgrwt>
<rscale>  0 0.19346816E+04</rscale>
<asrwt>0</asrwt>
<pdfrwt beam="1">  1        4 0.15146090E+00 0.19346816E+04</pdfrwt>
<pdfrwt beam="2">  1       -3 0.14622841E+00 0.19346816E+04</pdfrwt>
<totfact> 0.21345035E-01</totfact>
</mgrwt>
</event>
<event>
12    7  0.1661464E-007  0.2235456E+04  0.7818608E-02  0.8503814E-01
          2   -1    0    0  501    0  0.00000000000E+00  0.00000000000E+00  0.11292795648E+04  0.11292795648E+04  0.00000000000E+00 0. -1.
         -1   -1    0    0    0  501 -0.00000000000E+00 -0.00000000000E+00 -0.11062942540E+04  0.11062942540E+04  0.00000000000E+00 0.  1.
         24    2    1    2    0    0  0.70805530908E+03 -0.49684854058E+03 -0.35340279621E+03  0.93795634266E+03  0.81656422692E+02 0.  0.
        254    2    1    2    0    0 -0.70805530908E+03  0.49684854058E+03  0.37638810703E+03  0.12976174761E+04  0.89103440684E+03 0.  0.
         23    2    4    4    0    0 -0.57265573422E+03  0.62802704623E+03 -0.16203391224E+02  0.85488143708E+03  0.90593381888E+02 0.  0.
         23    2    4    4    0    0 -0.13539957486E+03 -0.13117850565E+03  0.39259149826E+03  0.44273603903E+03  0.79663483068E+02 0.  0.
          2    1    3    3  502    0  0.31090631976E+03 -0.19782876957E+03 -0.11092548380E+03  0.38484207760E+03  0.00000000000E+00 0. -1.
         -1    1    3    3    0  502  0.39714898932E+03 -0.29901977101E+03 -0.24247731241E+03  0.55311426506E+03  0.00000000000E+00 0.  1.
         13    1    5    5    0    0 -0.13820996439E+03  0.15796797175E+03  0.34862891552E+02  0.21277052324E+03  0.00000000000E+00 0. -1.
        -13    1    5    5    0    0 -0.43444576983E+03  0.47005907448E+03 -0.51066282775E+02  0.64211091383E+03  0.00000000000E+00 0.  1.
          1    1    6    6  503    0 -0.22227558442E+01 -0.45814023439E+02  0.74630756763E+02  0.87599173753E+02  0.00000000000E+00 0. -1.
         -1    1    6    6    0  503 -0.13317681902E+03 -0.85364482206E+02  0.31796074149E+03  0.35513686527E+03  0.00000000000E+00 0.  1.
<mgrwt>
<rscale>  0 0.22354557E+04</rscale>
<asrwt>0</asrwt>
<pdfrwt beam="1">  1        2 0.17373532E+00 0.22354557E+04</pdfrwt>
<pdfrwt beam="2">  1       -1 0.17019912E+00 0.22354557E+04</pdfrwt>
<totfact> 0.53263667E+00</totfact>
</mgrwt>
</event>
<event>
12    7  0.1661464E-007  0.1541373E+04  0.7818608E-02  0.8857397E-01
         -1   -1    0    0    0  501 -0.00000000000E+00  0.00000000000E+00  0.18381525402E+03  0.18381525402E+03  0.00000000000E+00 0.  1.
          2   -1    0    0  501    0  0.00000000000E+00 -0.00000000000E+00 -0.32312739757E+04  0.32312739757E+04  0.00000000000E+00 0. -1.
         24    2    1    2    0    0  0.43024950807E+03 -0.23467169248E+03 -0.14070151775E+04  0.14919612932E+04  0.77918855547E+02 0.  0.
        254    2    1    2    0    0 -0.43024950807E+03  0.23467169248E+03 -0.16404435442E+04  0.19231279366E+04  0.87588846116E+03 0.  0.
         23    2    4    4    0    0 -0.26013563790E+03  0.15806815526E+03 -0.55632361538E+02  0.32487037491E+03  0.98942958479E+02 0.  0.
         23    2    4    4    0    0 -0.17011387017E+03  0.76603537221E+02 -0.15848111826E+04  0.15982575616E+04  0.89408713700E+02 0.  0.
          4    1    3    3  502    0  0.43032324731E+03 -0.22329751512E+03 -0.13711496497E+04  0.14543353256E+04  0.00000000000E+00 0. -1.
         -3    1    3    3    0  502 -0.73739238013E-01 -0.11374177358E+02 -0.35865527816E+02  0.37625967543E+02  0.00000000000E+00 0.  1.
         13    1    5    5    0    0 -0.40970854350E+02  0.64962171003E+02  0.11036467088E+02  0.77591869248E+02  0.00000000000E+00 0. -1.
        -13    1    5    5    0    0 -0.21916478355E+03  0.93105984254E+02 -0.66668828626E+02  0.24727850567E+03  0.00000000000E+00 0.  1.
          4    1    6    6  503    0 -0.12980978071E+03  0.75511532357E+02 -0.91569615280E+03  0.92792888464E+03  0.00000000000E+00 0. -1.
         -4    1    6    6    0  503 -0.40304089454E+02  0.10920048637E+01 -0.66911502981E+03  0.67032867701E+03  0.00000000000E+00 0.  1.
<mgrwt>
<rscale>  0 0.15413727E+04</rscale>
<asrwt>0</asrwt>
<pdfrwt beam="1">  1        2 0.49711906E+00 0.15413727E+04</pdfrwt>
<pdfrwt beam="2">  1       -1 0.28279270E-01 0.15413727E+04</pdfrwt>
<totfact> 0.15497709E+01</totfact>
</mgrwt>
</event>
<event>
12    7  0.1661464E-007  0.2888411E+04  0.7818608E-02  0.8276334E-01
          2   -1    0    0  501    0  0.00000000000E+00  0.00000000000E+00  0.25019508175E+04  0.25019508175E+04  0.00000000000E+00 0. -1.
         -1   -1    0    0    0  501 -0.00000000000E+00 -0.00000000000E+00 -0.83364134730E+03  0.83364134730E+03  0.00000000000E+00 0.  1.
         24    2    1    2    0    0 -0.10951929769E+04  0.64337823492E+03  0.47624272678E+03  0.13592260484E+04  0.85469913381E+02 0.  0.
        254    2    1    2    0    0  0.10951929769E+04 -0.64337823492E+03  0.11920667434E+04  0.19763661163E+04  0.93360414270E+03 0.  0.
         23    2    4    4    0    0  0.13653267567E+03 -0.46800110220E+03  0.92633339575E+02  0.50433668244E+03  0.90046379551E+02 0.  0.
         23    2    4    4    0    0  0.95866030124E+03 -0.17537713272E+03  0.10994334038E+04  0.14720294339E+04  0.91269562100E+02 0.  0.
          4    1    3    3  502    0 -0.13818128221E+03  0.89037443501E+02  0.92215030784E+02  0.18848168346E+03  0.00000000000E+00 0. -1.
         -3    1    3    3    0  502 -0.95701169471E+03  0.55434079141E+03  0.38402769599E+03  0.11707443650E+04  0.00000000000E+00 0.  1.
         13    1    5    5    0    0  0.10837275907E+03 -0.25773278294E+03  0.84318699531E+02  0.29202822707E+03  0.00000000000E+00 0.  1.
        -13    1    5    5    0    0  0.28159916602E+02 -0.21026831925E+03  0.83146400436E+01  0.21230845537E+03  0.00000000000E+00 0. -1.
          2    1    6    6  503    0  0.91054024239E+03 -0.18169577374E+03  0.10625830764E+04  0.14110916630E+04  0.00000000000E+00 0. -1.
         -2    1    6    6    0  503  0.48120058858E+02  0.63186410194E+01  0.36850327444E+02  0.60937770894E+02  0.00000000000E+00 0.  1.
<mgrwt>
<rscale>  0 0.28884111E+04</rscale>
<asrwt>0</asrwt>
<pdfrwt beam="1">  1        2 0.38491551E+00 0.28884111E+04</pdfrwt>
<pdfrwt beam="2">  1       -1 0.12825252E+00 0.28884111E+04</pdfrwt>
<totfact> 0.17887905E+00</totfact>
</mgrwt>
</event>
<event>
12    7  0.1661464E-007  0.2187532E+04  0.7818608E-02  0.8523635E-01
         -1   -1    0    0    0  501 -0.00000000000E+00  0.00000000000E+00  0.41020259862E+03  0.41020259862E+03  0.00000000000E+00 0.  1.
          2   -1    0    0  501    0  0.00000000000E+00 -0.00000000000E+00 -0.29164228595E+04  0.29164228595E+04  0.00000000000E+00 0. -1.
         24    2    1    2    0    0  0.52088599083E+03  0.96699421911E+02  0.75315414470E+02  0.54187681717E+03  0.85352678252E+02 0.  0.
        254    2    1    2    0    0 -0.52088599083E+03 -0.96699421911E+02 -0.25815356754E+04  0.27847486409E+04  0.89990308172E+03 0.  0.
         23    2    4    4    0    0 -0.29561730275E+03 -0.36429174998E+03 -0.58153365465E+03  0.75246175556E+03  0.88990074197E+02 0.  0.
         23    2    4    4    0    0 -0.22526868808E+03  0.26759232807E+03 -0.20000020207E+04  0.20322868854E+04  0.88488789273E+02 0.  0.
          4    1    3    3  502    0  0.22416066432E+03  0.32870090877E+02 -0.94326014224E+01  0.22675409648E+03  0.00000000000E+00 0. -1.
         -3    1    3    3    0  502  0.29672532651E+03  0.63829331034E+02  0.84748015892E+02  0.31512272068E+03  0.00000000000E+00 0.  1.
         13    1    5    5    0    0 -0.29440012250E+03 -0.35974479935E+03 -0.54802054206E+03  0.71861969588E+03  0.00000000000E+00 0. -1.
        -13    1    5    5    0    0 -0.12171802440E+01 -0.45469506220E+01 -0.33513112587E+02  0.33842059674E+02  0.00000000000E+00 0.  1.
          4    1    6    6  503    0 -0.13289297632E+03  0.21925489035E+03 -0.13936528028E+04  0.14170396553E+04  0.00000000000E+00 0. -1.
         -4    1    6    6    0  503 -0.92375711767E+02  0.48337437713E+02 -0.60634921791E+03  0.61524723004E+03  0.00000000000E+00 0.  1.
<mgrwt>
<rscale>  0 0.21875322E+04</rscale>
<asrwt>0</asrwt>
<pdfrwt beam="1">  1        2 0.44868044E+00 0.21875322E+04</pdfrwt>
<pdfrwt beam="2">  1       -1 0.63108092E-01 0.21875322E+04</pdfrwt>
<totfact> 0.52095381E+00</totfact>
</mgrwt>
</event>
<event>
12    7  0.1661464E-007  0.1529608E+04  0.7818608E-02  0.8864999E-01
          2   -1    0    0  501    0  0.00000000000E+00  0.00000000000E+00  0.15219900007E+04  0.15219900007E+04  0.00000000000E+00 0. -1.
         -1   -1    0    0    0  501 -0.00000000000E+00 -0.00000000000E+00 -0.38431595937E+03  0.38431595937E+03  0.00000000000E+00 0.  1.
         24    2    1    2    0    0  0.31000890575E+03  0.37683887700E+03  0.43687998991E+03  0.65953559579E+03  0.77524290867E+02 0.  0.
        254    2    1    2    0    0 -0.31000890575E+03 -0.37683887700E+03  0.70079405139E+03  0.12467703642E+04  0.90841123827E+03 0.  0.
         23    2    4    4    0    0 -0.26844084470E+03 -0.60205239329E+03  0.74240302807E+03  0.99710056993E+03  0.92302324469E+02 0.  0.
         23    2    4    4    0    0 -0.41568061050E+02  0.22521351629E+03 -0.41608976683E+02  0.24966979430E+03  0.90303198315E+02 0.  0.
          4    1    3    3  502    0  0.17854915084E+03  0.24103536655E+03  0.22086033976E+03  0.37250119043E+03  0.00000000000E+00 0. -1.
         -3    1    3    3    0  502  0.13145975492E+03  0.13580351044E+03  0.21601965015E+03  0.28703440536E+03  0.00000000000E+00 0.  1.
         13    1    5    5    0    0 -0.22195563106E+03 -0.56181454152E+03  0.66965898435E+03  0.90185533016E+03  0.00000000000E+00 0.  1.
        -13    1    5    5    0    0 -0.46485213639E+02 -0.40237851775E+02  0.72744043720E+02  0.95245239772E+02  0.00000000000E+00 0. -1.
          2    1    6    6  503    0  0.11620711838E+02 -0.21539023131E+01 -0.66512925615E+01  0.13561708282E+02  0.00000000000E+00 0. -1.
         -2    1    6    6    0  503 -0.53188772888E+02  0.22736741861E+03 -0.34957684121E+02  0.23610808602E+03  0.00000000000E+00 0.  1.
<mgrwt>
<rscale>  0 0.15296079E+04</rscale>
<asrwt>0</asrwt>
<pdfrwt beam="1">  1        2 0.23415231E+00 0.15296079E+04</pdfrwt>
<pdfrwt beam="2">  1       -1 0.59125533E-01 0.15296079E+04</pdfrwt>
<totfact> 0.39290496E+01</totfact>
</mgrwt>
</event>
<event>
12    7  0.1661464E-007  0.2622234E+04  0.7818608E-02  0.8360688E-01
          2   -1    0    0  501    0  0.00000000000E+00  0.00000000000E+00  0.29425101738E+04  0.29425101738E+04  0.00000000000E+00 0. -1.
         -1   -1    0    0    0  501 -0.00000000000E+00 -0.00000000000E+00 -0.58420449309E+03  0.58420449309E+03  0.00000000000E+00 0.  1.
         24    2    1    2    0    0  0.13774877785E+03  0.67322371441E+03  0.22986142764E+04  0.24002913978E+04  0.74607688956E+02 0.  0.
        254    2    1    2    0    0 -0.13774877785E+03 -0.67322371441E+03  0.59691404391E+02  0.11264232692E+04  0.89053996099E+03 0.  0.
         23    2    4    4    0    0  0.26201376037E+03 -0.19083623667E+03  0.30058967628E+03  0.44937033886E+03  0.80683753689E+02 0.  0.
         23    2    4    4    0    0 -0.39976253821E+03 -0.48238747774E+03 -0.24089827189E+03  0.67705293031E+03  0.88661871188E+02 0.  0.
          4    1    3    3  502    0  0.95604907812E+02  0.28767460844E+03  0.97852176387E+03  0.10244031536E+04  0.00000000000E+00 0. -1.
         -3    1    3    3    0  502  0.42143870034E+02  0.38554910597E+03  0.13200925125E+04  0.13758882442E+04  0.00000000000E+00 0.  1.
         13    1    5    5    0    0  0.26410045100E+03 -0.19554187290E+03  0.29799212171E+03  0.44360452757E+03  0.00000000000E+00 0. -1.
        -13    1    5    5    0    0 -0.20866906310E+01  0.47056362288E+01  0.25975545696E+01  0.57658112915E+01  0.00000000000E+00 0.  1.
          3    1    6    6  503    0 -0.96638386765E+02 -0.73189568256E+02 -0.24175763348E+02  0.12361293715E+03  0.00000000000E+00 0.  1.
         -3    1    6    6    0  503 -0.30312415145E+03 -0.40919790948E+03 -0.21672250854E+03  0.55343999316E+03  0.00000000000E+00 0. -1.
<mgrwt>
<rscale>  0 0.26222339E+04</rscale>
<asrwt>0</asrwt>
<pdfrwt beam="1">  1        2 0.45269386E+00 0.26222339E+04</pdfrwt>
<pdfrwt beam="2">  1       -1 0.89877616E-01 0.26222339E+04</pdfrwt>
<totfact> 0.22996535E+00</totfact>
</mgrwt>
</event>
<event>
12    7  0.1661464E-007  0.1558679E+04  0.7818608E-02  0.8846343E-01
         -1   -1    0    0    0  501 -0.00000000000E+00  0.00000000000E+00  0.42417145892E+03  0.42417145892E+03  0.00000000000E+00 0.  1.
          2   -1    0    0  501    0  0.00000000000E+00 -0.00000000000E+00 -0.14318980683E+04  0.14318980683E+04  0.00000000000E+00 0. -1.
         24    2    1    2    0    0  0.20203074836E+03  0.27305363254E+03 -0.79627729656E+03  0.86942083150E+03  0.80376238505E+02 0.  0.
        254    2    1    2    0    0 -0.20203074836E+03 -0.27305363254E+03 -0.21144931286E+03  0.98664869575E+03  0.90188143755E+03 0.  0.
         23    2    4    4    0    0  0.11124529839E+03  0.20978504762E+02 -0.45982887707E+03  0.48215738232E+03  0.90650598815E+02 0.  0.
         23    2    4    4    0    0 -0.31327604675E+03 -0.29403213731E+03  0.24837956421E+03  0.50449131343E+03  0.90676888873E+02 0.  0.
          4    1    3    3  502    0  0.15329250170E+03  0.22773815362E+03 -0.70414398565E+03  0.75576584352E+03  0.00000000000E+00 0. -1.
         -3    1    3    3    0  502  0.48738246653E+02  0.45315478923E+02 -0.92133310903E+02  0.11365498799E+03  0.00000000000E+00 0.  1.
         13    1    5    5    0    0  0.11219475206E+03 -0.10916263592E+02 -0.34292645654E+03  0.36097836749E+03  0.00000000000E+00 0. -1.
        -13    1    5    5    0    0 -0.94945366407E+00  0.31894768354E+02 -0.11690242053E+03  0.12117901483E+03  0.00000000000E+00 0.  1.
          1    1    6    6  503    0 -0.28325075611E+03 -0.25936019156E+03  0.18508986493E+03  0.42632963526E+03  0.00000000000E+00 0. -1.
         -1    1    6    6    0  503 -0.30025290641E+02 -0.34671945751E+02  0.63289699276E+02  0.78161678172E+02  0.00000000000E+00 0.  1.
<mgrwt>
<rscale>  0 0.15586793E+04</rscale>
<asrwt>0</asrwt>
<pdfrwt beam="1">  1        2 0.22029201E+00 0.15586793E+04</pdfrwt>
<pdfrwt beam="2">  1       -1 0.65257148E-01 0.15586793E+04</pdfrwt>
<totfact> 0.36212193E+01</totfact>
</mgrwt>
</event>
<event>
12    7  0.1661464E-007  0.1931862E+04  0.7818608E-02  0.8639157E-01
          2   -1    0    0  501    0  0.00000000000E+00  0.00000000000E+00  0.31041787687E+04  0.31041787687E+04  0.00000000000E+00 0. -1.
         -1   -1    0    0    0  501 -0.00000000000E+00 -0.00000000000E+00 -0.30056997197E+03  0.30056997197E+03  0.00000000000E+00 0.  1.
         24    2    1    2    0    0  0.70742603964E+03 -0.26035535400E+03  0.13189035177E+04  0.15212005575E+04  0.79423769242E+02 0.  0.
        254    2    1    2    0    0 -0.70742603964E+03  0.26035535400E+03  0.14847052791E+04  0.18835481832E+04  0.88043596074E+03 0.  0.
         23    2    4    4    0    0 -0.83548681764E+03  0.27616838807E+03  0.14809679813E+04  0.17252280951E+04  0.94013922035E+02 0.  0.
         23    2    4    4    0    0  0.12806077800E+03 -0.15813034067E+02  0.37372977994E+01  0.15832008815E+03  0.91660613177E+02 0.  0.
          4    1    3    3  502    0  0.32181050297E+03 -0.10789156938E+03  0.67110088932E+03  0.75204986151E+03  0.00000000000E+00 0. -1.
         -3    1    3    3    0  502  0.38561553667E+03 -0.15246378462E+03  0.64780262840E+03  0.76915069597E+03  0.00000000000E+00 0.  1.
         13    1    5    5    0    0 -0.65328525452E+03  0.24765556985E+03  0.11240664645E+04  0.13234954937E+04  0.00000000000E+00 0.  1.
        -13    1    5    5    0    0 -0.18220156311E+03  0.28512818220E+02  0.35690151672E+03  0.40173260142E+03  0.00000000000E+00 0. -1.
          3    1    6    6  503    0 -0.11988617605E+02 -0.85523038112E+00 -0.11522280916E+02  0.16649964823E+02  0.00000000000E+00 0. -1.
         -3    1    6    6    0  503  0.14004939560E+03 -0.14957803686E+02  0.15259578716E+02  0.14167012332E+03  0.00000000000E+00 0.  1.
<mgrwt>
<rscale>  0 0.19318622E+04</rscale>
<asrwt>0</asrwt>
<pdfrwt beam="1">  1        2 0.47756594E+00 0.19318622E+04</pdfrwt>
<pdfrwt beam="2">  1       -1 0.46241536E-01 0.19318622E+04</pdfrwt>
<totfact> 0.74271004E+00</totfact>
</mgrwt>
</event>
<event>
12    7  0.1661464E-007  0.1506990E+04  0.7818608E-02  0.8879818E-01
         -1   -1    0    0    0  501 -0.00000000000E+00  0.00000000000E+00  0.14754018773E+03  0.14754018773E+03  0.00000000000E+00 0.  1.
          2   -1    0    0  501    0  0.00000000000E+00 -0.00000000000E+00 -0.38481377958E+04  0.38481377958E+04  0.00000000000E+00 0. -1.
         24    2    1    2    0    0 -0.48049582999E+03  0.52625778604E+01 -0.13207474643E+04  0.14077551773E+04  0.80602960877E+02 0.  0.
        254    2    1    2    0    0  0.48049582999E+03 -0.52625778604E+01 -0.23798501438E+04  0.25879228063E+04  0.89596529341E+03 0.  0.
         23    2    4    4    0    0  0.45093931593E+03  0.22151306927E+03 -0.22548008667E+04  0.23118146644E+04  0.89139145514E+02 0.  0.
         23    2    4    4    0    0  0.29556514056E+02 -0.22677564713E+03 -0.12504927706E+03  0.27610814192E+03  0.91091177865E+02 0.  0.
          4    1    3    3  502    0 -0.44179096350E+03  0.25119677751E+02 -0.12285012835E+04  0.13057663103E+04  0.00000000000E+00 0. -1.
         -3    1    3    3    0  502 -0.38704866489E+02 -0.19857099891E+02 -0.92246180795E+02  0.10198886693E+03  0.00000000000E+00 0.  1.
         13    1    5    5    0    0  0.25950730688E+02 -0.63514924767E+01 -0.86168107400E+02  0.90214880218E+02  0.00000000000E+00 0. -1.
        -13    1    5    5    0    0  0.42498858524E+03  0.22786456174E+03 -0.21686327593E+04  0.22215997841E+04  0.00000000000E+00 0.  1.
          3    1    6    6  503    0 -0.32041498992E+02 -0.57720288150E+02 -0.38817166009E+02  0.76583690814E+02  0.00000000000E+00 0. -1.
         -3    1    6    6    0  503  0.61598013048E+02 -0.16905535898E+03 -0.86232111054E+02  0.19952445110E+03  0.00000000000E+00 0.  1.
<mgrwt>
<rscale>  0 0.15069903E+04</rscale>
<asrwt>0</asrwt>
<pdfrwt beam="1">  1        2 0.59202115E+00 0.15069903E+04</pdfrwt>
<pdfrwt beam="2">  1       -1 0.22698492E-01 0.15069903E+04</pdfrwt>
<totfact> 0.83632755E+00</totfact>
</mgrwt>
</event>
<event>
12    7  0.1661464E-007  0.2189488E+04  0.7818608E-02  0.8522816E-01
         -1   -1    0    0    0  501 -0.00000000000E+00  0.00000000000E+00  0.53767695032E+03  0.53767695032E+03  0.00000000000E+00 0.  1.
          2   -1    0    0  501    0  0.00000000000E+00 -0.00000000000E+00 -0.22289674932E+04  0.22289674932E+04  0.00000000000E+00 0. -1.
         24    2    1    2    0    0 -0.25647644707E+03 -0.80309640067E+03 -0.11241410427E+04  0.14076569778E+04  0.84030270600E+02 0.  0.
        254    2    1    2    0    0  0.25647644707E+03  0.80309640067E+03 -0.56714950016E+03  0.13589874658E+04  0.90246572230E+03 0.  0.
         23    2    4    4    0    0  0.28111070602E+02  0.91408408793E+03 -0.58281503154E+03  0.10883826738E+04  0.92539351605E+02 0.  0.
         23    2    4    4    0    0  0.22836537646E+03 -0.11098768725E+03  0.15665531378E+02  0.27060479195E+03  0.92263387455E+02 0.  0.
          2    1    3    3  502    0 -0.20191895580E+03 -0.62243514067E+03 -0.81137250330E+03  0.10423637120E+04  0.00000000000E+00 0. -1.
         -1    1    3    3    0  502 -0.54557491267E+02 -0.18066126001E+03 -0.31276853943E+03  0.36529326572E+03  0.00000000000E+00 0.  1.
         13    1    5    5    0    0 -0.26585244393E+02  0.10712996915E+03 -0.69401574753E+02  0.13038475405E+03  0.00000000000E+00 0.  1.
        -13    1    5    5    0    0  0.54696314995E+02  0.80695411877E+03 -0.51341345679E+03  0.95799791977E+03  0.00000000000E+00 0. -1.
          3    1    6    6  503    0  0.19400042844E+03 -0.93491660604E+02 -0.22281762073E+02  0.21650250289E+03  0.00000000000E+00 0. -1.
         -3    1    6    6    0  503  0.34364948021E+02 -0.17496026650E+02  0.37947293451E+02  0.54102289058E+02  0.00000000000E+00 0.  1.
<mgrwt>
<rscale>  0 0.21894880E+04</rscale>
<asrwt>0</asrwt>
<pdfrwt beam="1">  1        2 0.34291808E+00 0.21894880E+04</pdfrwt>
<pdfrwt beam="2">  1       -1 0.82719529E-01 0.21894880E+04</pdfrwt>
<totfact> 0.75180308E+00</totfact>
</mgrwt>
</event>
<event>
12    7  0.1661464E-007  0.1384239E+04  0.7818608E-02  0.8965307E-01
         -1   -1    0    0    0  501 -0.00000000000E+00  0.00000000000E+00  0.14296187397E+03  0.14296187397E+03  0.00000000000E+00 0.  1.
          2   -1    0    0  501    0  0.00000000000E+00 -0.00000000000E+00 -0.33507505242E+04  0.33507505242E+04  0.00000000000E+00 0. -1.
         24    2    1    2    0    0  0.26884190229E+03 -0.33984297269E+03 -0.84535605915E+03  0.95322830751E+03  0.79045081943E+02 0.  0.
        254    2    1    2    0    0 -0.26884190229E+03  0.33984297269E+03 -0.23624325911E+04  0.25404840907E+04  0.82776956515E+03 0.  0.
         23    2    4    4    0    0  0.65063087623E+02  0.48203122251E+03 -0.17860687850E+04  0.18534842721E+04  0.93674635543E+02 0.  0.
         23    2    4    4    0    0 -0.33390498991E+03 -0.14218824982E+03 -0.57636380613E+03  0.68699981860E+03  0.89796843328E+02 0.  0.
          2    1    3    3  502    0  0.18721397179E+03 -0.22607799994E+03 -0.48877749130E+03  0.57014363918E+03  0.00000000000E+00 0. -1.
         -1    1    3    3    0  502  0.81627930501E+02 -0.11376497276E+03 -0.35657856785E+03  0.38308466834E+03  0.00000000000E+00 0.  1.
         13    1    5    5    0    0 -0.13234410995E+02  0.74302098577E+02 -0.19379077958E+03  0.20796830946E+03  0.00000000000E+00 0.  1.
        -13    1    5    5    0    0  0.78297498618E+02  0.40772912393E+03 -0.15922780054E+04  0.16455159626E+04  0.00000000000E+00 0. -1.
          1    1    6    6  503    0 -0.32260784522E+03 -0.12875542958E+03 -0.50110401971E+03  0.60972044497E+03  0.00000000000E+00 0. -1.
         -1    1    6    6    0  503 -0.11297144694E+02 -0.13432820241E+02 -0.75259786416E+02  0.77279373634E+02  0.00000000000E+00 0.  1.
<mgrwt>
<rscale>  0 0.13842392E+04</rscale>
<asrwt>0</asrwt>
<pdfrwt beam="1">  1        2 0.51550005E+00 0.13842392E+04</pdfrwt>
<pdfrwt beam="2">  1       -1 0.21994136E-01 0.13842392E+04</pdfrwt>
<totfact> 0.20216016E+01</totfact>
</mgrwt>
</event>
<event>
12    7  0.1661464E-007  0.1185934E+04  0.7818608E-02  0.9125258E-01
          2   -1    0    0  501    0  0.00000000000E+00  0.00000000000E+00  0.84851087968E+03  0.84851087968E+03  0.00000000000E+00 0. -1.
         -1   -1    0    0    0  501 -0.00000000000E+00 -0.00000000000E+00 -0.41438496819E+03  0.41438496819E+03  0.00000000000E+00 0.  1.
         24    2    1    2    0    0 -0.21525880583E+03 -0.94212207253E+02  0.66225475318E+02  0.25653902690E+03  0.78829976901E+02 0.  0.
        254    2    1    2    0    0  0.21525880583E+03  0.94212207253E+02  0.36790043618E+03  0.10063568210E+04  0.90674749886E+03 0.  0.
         23    2    4    4    0    0 -0.27622809369E+03 -0.83554812117E+02 -0.79621747357E+02  0.31267346422E+03  0.90231403657E+02 0.  0.
         23    2    4    4    0    0  0.49148689952E+03  0.17776701937E+03  0.44752218353E+03  0.69368335675E+03  0.88090913834E+02 0.  0.
          4    1    3    3  502    0 -0.18877224892E+03 -0.10132738843E+03  0.38761264062E+02  0.21772605999E+03  0.00000000000E+00 0. -1.
         -3    1    3    3    0  502 -0.26486556919E+02  0.71151811789E+01  0.27464211256E+02  0.38812966912E+02  0.00000000000E+00 0.  1.
         13    1    5    5    0    0 -0.17001483134E+02 -0.34488402690E+02 -0.12617798938E+02  0.40468619928E+02  0.00000000000E+00 0. -1.
        -13    1    5    5    0    0 -0.25922661055E+03 -0.49066409427E+02 -0.67003948419E+02  0.27220484429E+03  0.00000000000E+00 0.  1.
          1    1    6    6  503    0  0.15708584118E+03  0.95711786151E+02  0.18312447566E+03  0.25955978327E+03  0.00000000000E+00 0. -1.
         -1    1    6    6    0  503  0.33440105834E+03  0.82055233219E+02  0.26439770788E+03  0.43412357348E+03  0.00000000000E+00 0.  1.
<mgrwt>
<rscale>  0 0.11859345E+04</rscale>
<asrwt>0</asrwt>
<pdfrwt beam="1">  1        2 0.13054013E+00 0.11859345E+04</pdfrwt>
<pdfrwt beam="2">  1       -1 0.63751534E-01 0.11859345E+04</pdfrwt>
<totfact> 0.89505166E+01</totfact>
</mgrwt>
</event>
<event>
12    7  0.1661464E-007  0.1519351E+04  0.7818608E-02  0.8871685E-01
          2   -1    0    0  501    0  0.00000000000E+00  0.00000000000E+00  0.37252621418E+04  0.37252621418E+04  0.00000000000E+00 0. -1.
         -1   -1    0    0    0  501 -0.00000000000E+00 -0.00000000000E+00 -0.15491720103E+03  0.15491720103E+03  0.00000000000E+00 0.  1.
         24    2    1    2    0    0  0.77554834317E+02  0.50657391672E+02 -0.61816875241E+02  0.13692380728E+03  0.79661027347E+02 0.  0.
        254    2    1    2    0    0 -0.77554834317E+02 -0.50657391672E+02  0.36321618161E+04  0.37432555356E+04  0.90043413037E+03 0.  0.
         23    2    4    4    0    0 -0.17908358996E+03  0.38964656597E+03  0.15524046326E+04  0.16130837424E+04  0.90463462155E+02 0.  0.
         23    2    4    4    0    0  0.10152875564E+03 -0.44030395764E+03  0.20797571834E+04  0.21301717932E+04  0.89812378043E+02 0.  0.
          2    1    3    3  502    0 -0.15269602360E+02 -0.20754264520E+01 -0.83198073027E+01  0.17512491107E+02  0.00000000000E+00 0. -1.
         -1    1    3    3    0  502  0.92824436678E+02  0.52732818124E+02 -0.53497067938E+02  0.11941131617E+03  0.00000000000E+00 0.  1.
         13    1    5    5    0    0 -0.92172132779E+02  0.22764099821E+03  0.10428234675E+04  0.10713528412E+04  0.00000000000E+00 0.  1.
        -13    1    5    5    0    0 -0.86911457177E+02  0.16200556776E+03  0.50958116514E+03  0.54173090113E+03  0.00000000000E+00 0. -1.
          4    1    6    6  503    0  0.76362975610E+02 -0.14329390450E+03  0.76737282225E+03  0.78436311453E+03  0.00000000000E+00 0. -1.
         -4    1    6    6    0  503  0.25165780029E+02 -0.29701005314E+03  0.13123843612E+04  0.13458086787E+04  0.00000000000E+00 0.  1.
<mgrwt>
<rscale>  0 0.15193514E+04</rscale>
<asrwt>0</asrwt>
<pdfrwt beam="1">  1        2 0.57311718E+00 0.15193514E+04</pdfrwt>
<pdfrwt beam="2">  1       -1 0.23833418E-01 0.15193514E+04</pdfrwt>
<totfact> 0.95020147E+00</totfact>
</mgrwt>
</event>
<event>
12    7  0.1661464E-007  0.1597760E+04  0.7818608E-02  0.8821925E-01
         -1   -1    0    0    0  501 -0.00000000000E+00  0.00000000000E+00  0.39837042455E+03  0.39837042455E+03  0.00000000000E+00 0.  1.
          2   -1    0    0  501    0  0.00000000000E+00 -0.00000000000E+00 -0.16020491950E+04  0.16020491950E+04  0.00000000000E+00 0. -1.
         24    2    1    2    0    0 -0.12920848803E+03  0.51876200633E+03 -0.53173306696E+03  0.75825717616E+03  0.80031482032E+02 0.  0.
        254    2    1    2    0    0  0.12920848803E+03 -0.51876200633E+03 -0.67194570350E+03  0.12421624434E+04  0.89757877355E+03 0.  0.
         23    2    4    4    0    0  0.15512598830E+03 -0.57831144936E+03 -0.48925085323E+02  0.60917451581E+03  0.10095405901E+03 0.  0.
         23    2    4    4    0    0 -0.25917500270E+02  0.59549443038E+02 -0.62302061818E+03  0.63298792758E+03  0.91110772139E+02 0.  0.
          2    1    3    3  502    0 -0.12502134557E+03  0.48250004586E+03 -0.46234142254E+03  0.67985014680E+03  0.00000000000E+00 0. -1.
         -1    1    3    3    0  502 -0.41871424645E+01  0.36261960467E+02 -0.69391644418E+02  0.78407029366E+02  0.00000000000E+00 0.  1.
         13    1    5    5    0    0  0.70974293012E+02 -0.43048029045E+03 -0.21034831949E+02  0.43679868921E+03  0.00000000000E+00 0. -1.
        -13    1    5    5    0    0  0.84151695291E+02 -0.14783115891E+03 -0.27890253375E+02  0.17237582661E+03  0.00000000000E+00 0.  1.
          1    1    6    6  503    0 -0.12200500136E+02  0.76761401723E+02 -0.32537162999E+03  0.33452632572E+03  0.00000000000E+00 0. -1.
         -1    1    6    6    0  503 -0.13717000134E+02 -0.17211958685E+02 -0.29764898819E+03  0.29846160186E+03  0.00000000000E+00 0.  1.
<mgrwt>
<rscale>  0 0.15977597E+04</rscale>
<asrwt>0</asrwt>
<pdfrwt beam="1">  1        2 0.24646911E+00 0.15977597E+04</pdfrwt>
<pdfrwt beam="2">  1       -1 0.61287758E-01 0.15977597E+04</pdfrwt>
<totfact> 0.32815741E+01</totfact>
</mgrwt>
</event>
<event>
12    7  0.1661464E-007  0.1592106E+04  0.7818608E-02  0.8825412E-01
          2   -1    0    0  501    0  0.00000000000E+00  0.00000000000E+00  0.16162943785E+04  0.16162943785E+04  0.00000000000E+00 0. -1.
         -1   -1    0    0    0  501 -0.00000000000E+00 -0.00000000000E+00 -0.39206990284E+03  0.39206990284E+03  0.00000000000E+00 0.  1.
         24    2    1    2    0    0 -0.49473589779E+01 -0.44283577094E+03  0.80702035358E+03  0.92396816936E+03  0.79418703777E+02 0.  0.
        254    2    1    2    0    0  0.49473589779E+01  0.44283577094E+03  0.41720412207E+03  0.10843961120E+04  0.89762333515E+03 0.  0.
         23    2    4    4    0    0  0.10588805124E+03  0.68799781086E+03  0.20599849959E+03  0.73289897198E+03  0.10075839496E+03 0.  0.
         23    2    4    4    0    0 -0.10094069227E+03 -0.24516203992E+03  0.21120562248E+03  0.35149714000E+03  0.92999867120E+02 0.  0.
          4    1    3    3  502    0 -0.16878290994E+02 -0.42617708248E+03  0.74260766861E+03  0.85637487808E+03  0.00000000000E+00 0. -1.
         -3    1    3    3    0  502  0.11930932016E+02 -0.16658688461E+02  0.64412684973E+02  0.67593291275E+02  0.00000000000E+00 0.  1.
         13    1    5    5    0    0  0.31851175732E+02  0.60194278039E+02  0.24125931359E+00  0.68102178455E+02  0.00000000000E+00 0.  1.
        -13    1    5    5    0    0  0.74036875511E+02  0.62780353282E+03  0.20575724028E+03  0.66479679353E+03  0.00000000000E+00 0. -1.
          1    1    6    6  503    0 -0.11281654332E+03 -0.20731719416E+03  0.20226819489E+03  0.31083824428E+03  0.00000000000E+00 0. -1.
         -1    1    6    6    0  503  0.11875851058E+02 -0.37844845758E+02  0.89374275889E+01  0.40658895714E+02  0.00000000000E+00 0.  1.
<mgrwt>
<rscale>  0 0.15921060E+04</rscale>
<asrwt>0</asrwt>
<pdfrwt beam="1">  1        2 0.24866067E+00 0.15921060E+04</pdfrwt>
<pdfrwt beam="2">  1       -1 0.60318448E-01 0.15921060E+04</pdfrwt>
<totfact> 0.33270425E+01</totfact>
</mgrwt>
</event>
<event>
12    7  0.1661464E-007  0.1565945E+04  0.7818608E-02  0.8841747E-01
         -1   -1    0    0    0  501 -0.00000000000E+00  0.00000000000E+00  0.33560798552E+03  0.33560798552E+03  0.00000000000E+00 0.  1.
          2   -1    0    0  501    0  0.00000000000E+00 -0.00000000000E+00 -0.18266726393E+04  0.18266726393E+04  0.00000000000E+00 0. -1.
         24    2    1    2    0    0 -0.11058631037E+03 -0.34083299975E+03  0.37882629894E+02  0.36822457202E+03  0.75880010756E+02 0.  0.
        254    2    1    2    0    0  0.11058631037E+03  0.34083299975E+03 -0.15289472836E+04  0.17940560527E+04  0.86750265621E+03 0.  0.
         23    2    4    4    0    0  0.15797057201E+02  0.43110194028E+03 -0.15689871293E+04  0.16296780685E+04  0.89619000105E+02 0.  0.
         23    2    4    4    0    0  0.94789253170E+02 -0.90268940536E+02  0.40039845672E+02  0.16437798423E+03  0.91013451286E+02 0.  0.
          2    1    3    3  502    0  0.71772914495E+01 -0.32606575594E+02 -0.99033479931E+01  0.34824970725E+02  0.00000000000E+00 0. -1.
         -1    1    3    3    0  502 -0.11776360182E+03 -0.30822642416E+03  0.47785977887E+02  0.33339960130E+03  0.00000000000E+00 0.  1.
         13    1    5    5    0    0  0.42034189033E+02  0.20538360352E+03 -0.64780860169E+03  0.68088566005E+03  0.00000000000E+00 0.  1.
        -13    1    5    5    0    0 -0.26237131832E+02  0.22571833676E+03 -0.92117852761E+03  0.94879240847E+03  0.00000000000E+00 0. -1.
          2    1    6    6  503    0  0.72729383826E+02 -0.88908185070E+02  0.64235647293E+02  0.13160716936E+03  0.00000000000E+00 0. -1.
         -2    1    6    6    0  503  0.22059869344E+02 -0.13607554660E+01 -0.24195801620E+02  0.32770814866E+02  0.00000000000E+00 0.  1.
<mgrwt>
<rscale>  0 0.15659450E+04</rscale>
<asrwt>0</asrwt>
<pdfrwt beam="1">  1        2 0.28102656E+00 0.15659450E+04</pdfrwt>
<pdfrwt beam="2">  1       -1 0.51631998E-01 0.15659450E+04</pdfrwt>
<totfact> 0.34476532E+01</totfact>
</mgrwt>
</event>
<event>
12    7  0.2183066E-007  0.2228119E+04  0.7818608E-02  0.8506815E-01
         -1   -1    0    0    0  501 -0.00000000000E+00  0.00000000000E+00  0.55166124964E+03  0.55166124964E+03  0.00000000000E+00 0.  1.
          2   -1    0    0  501    0  0.00000000000E+00 -0.00000000000E+00 -0.22498021143E+04  0.22498021143E+04  0.00000000000E+00 0. -1.
         24    2    1    2    0    0 -0.11791732678E+03  0.34504280938E+03  0.36457035561E+03  0.52180968652E+03  0.80092249905E+02 0.  0.
        254    2    1    2    0    0  0.11791732678E+03 -0.34504280938E+03 -0.20627112202E+04  0.22796536774E+04  0.89949111972E+03 0.  0.
         23    2    4    4    0    0  0.41190848708E+03 -0.46980807665E+03 -0.14689979339E+04  0.15991884352E+04  0.95186610308E+02 0.  0.
         23    2    4    4    0    0 -0.29399116029E+03  0.12476526727E+03 -0.59371328635E+03  0.68046524223E+03  0.92413771901E+02 0.  0.
          2    1    3    3  502    0 -0.48483278652E+01  0.65494255154E+01  0.35327543449E+02  0.36255159410E+02  0.00000000000E+00 0. -1.
         -1    1    3    3    0  502 -0.11306899892E+03  0.33849338387E+03  0.32924281216E+03  0.48555452711E+03  0.00000000000E+00 0.  1.
         13    1    5    5    0    0  0.44832557611E+01 -0.37859515507E+02 -0.81584149923E+02  0.90052296002E+02  0.00000000000E+00 0. -1.
        -13    1    5    5    0    0  0.40742523132E+03 -0.43194856114E+03 -0.13874137840E+04  0.15091361392E+04  0.00000000000E+00 0.  1.
          3    1    6    6  503    0 -0.40108089914E+02  0.86625535211E+01 -0.15597443449E+03  0.16128150211E+03  0.00000000000E+00 0. -1.
         -3    1    6    6    0  503 -0.25388307038E+03  0.11610271374E+03 -0.43773885187E+03  0.51918374012E+03  0.00000000000E+00 0.  1.
<mgrwt>
<rscale>  0 0.22281191E+04</rscale>
<asrwt>0</asrwt>
<pdfrwt beam="1">  1        2 0.34612341E+00 0.22281191E+04</pdfrwt>
<pdfrwt beam="2">  1       -1 0.84870961E-01 0.22281191E+04</pdfrwt>
<totfact> 0.68993589E+00</totfact>
</mgrwt>
</event>
<event>
12    7  0.1661464E-007  0.1643832E+04  0.7818608E-02  0.8794064E-01
         -1   -1    0    0    0  501 -0.00000000000E+00  0.00000000000E+00  0.56153327525E+03  0.56153327525E+03  0.00000000000E+00 0.  1.
          2   -1    0    0  501    0  0.00000000000E+00 -0.00000000000E+00 -0.12030376513E+04  0.12030376513E+04  0.00000000000E+00 0. -1.
         24    2    1    2    0    0  0.43541077997E+03  0.28769257602E+03 -0.34468587851E+03  0.63038182425E+03  0.78888046611E+02 0.  0.
        254    2    1    2    0    0 -0.43541077997E+03 -0.28769257602E+03 -0.29681849753E+03  0.11341891023E+04  0.96225471351E+03 0.  0.
         23    2    4    4    0    0  0.10759063896E+03  0.14690121286E+03  0.19091960982E+03  0.27939037477E+03  0.91940046576E+02 0.  0.
         23    2    4    4    0    0 -0.54300141893E+03 -0.43459378888E+03 -0.48773810736E+03  0.85479872753E+03  0.95237077476E+02 0.  0.
          4    1    3    3  502    0  0.22037527998E+03  0.11989155085E+03 -0.12577352387E+03  0.28063896254E+03  0.00000000000E+00 0. -1.
         -3    1    3    3    0  502  0.21503549999E+03  0.16780102517E+03 -0.21891235464E+03  0.34974286171E+03  0.00000000000E+00 0.  1.
         13    1    5    5    0    0  0.14497781538E+02  0.49937239409E+02  0.11208548010E+03  0.12355997895E+03  0.00000000000E+00 0.  1.
        -13    1    5    5    0    0  0.93092857421E+02  0.96963973454E+02  0.78834129728E+02  0.15583039582E+03  0.00000000000E+00 0. -1.
          2    1    6    6  503    0 -0.13779997266E+02  0.32555320202E+01 -0.16895731663E+02  0.22044331739E+02  0.00000000000E+00 0. -1.
         -2    1    6    6    0  503 -0.52922142166E+03 -0.43784932090E+03 -0.47084237569E+03  0.83275439579E+03  0.00000000000E+00 0.  1.
<mgrwt>
<rscale>  0 0.16438317E+04</rscale>
<asrwt>0</asrwt>
<pdfrwt beam="1">  1        2 0.18508271E+00 0.16438317E+04</pdfrwt>
<pdfrwt beam="2">  1       -1 0.86389735E-01 0.16438317E+04</pdfrwt>
<totfact> 0.27168470E+01</totfact>
</mgrwt>
</event>
<event>
12    7  0.1661464E-007  0.1528494E+04  0.7818608E-02  0.8865722E-01
         -1   -1    0    0    0  501 -0.00000000000E+00  0.00000000000E+00  0.23730310921E+03  0.23730310921E+03  0.00000000000E+00 0.  1.
          2   -1    0    0  501    0  0.00000000000E+00 -0.00000000000E+00 -0.24612985908E+04  0.24612985908E+04  0.00000000000E+00 0. -1.
         24    2    1    2    0    0  0.13170263708E+03  0.15031915611E+03 -0.15879882566E+04  0.16024695316E+04  0.79123089587E+02 0.  0.
        254    2    1    2    0    0 -0.13170263708E+03 -0.15031915611E+03 -0.63600722498E+03  0.10961321684E+04  0.87009143603E+03 0.  0.
         23    2    4    4    0    0  0.16780555870E+03 -0.18857379816E+02  0.14814302495E+03  0.24172525596E+03  0.89277305189E+02 0.  0.
         23    2    4    4    0    0 -0.29950819578E+03 -0.13146177630E+03 -0.78415024993E+03  0.85440691244E+03  0.90178709187E+02 0.  0.
          2    1    3    3  502    0  0.99259927502E+02  0.12634320750E+03 -0.97451235759E+03  0.98766870680E+03  0.00000000000E+00 0. -1.
         -1    1    3    3    0  502  0.32442709575E+02  0.23975948619E+02 -0.61347589899E+03  0.61480082479E+03  0.00000000000E+00 0.  1.
         13    1    5    5    0    0  0.93950125767E+01  0.18299427106E+02 -0.15536510575E+01  0.20628842074E+02  0.00000000000E+00 0.  1.
        -13    1    5    5    0    0  0.15841054612E+03 -0.37156806922E+02  0.14969667601E+03  0.22109641388E+03  0.00000000000E+00 0. -1.
          2    1    6    6  503    0 -0.22361635444E+03 -0.64443291489E+02 -0.61113211298E+03  0.65394164213E+03  0.00000000000E+00 0. -1.
         -2    1    6    6    0  503 -0.75891841336E+02 -0.67018484808E+02 -0.17301813695E+03  0.20046527031E+03  0.00000000000E+00 0.  1.
<mgrwt>
<rscale>  0 0.15284944E+04</rscale>
<asrwt>0</asrwt>
<pdfrwt beam="1">  1        2 0.37866133E+00 0.15284944E+04</pdfrwt>
<pdfrwt beam="2">  1       -1 0.36508170E-01 0.15284944E+04</pdfrwt>
<totfact> 0.29012623E+01</totfact>
</mgrwt>
</event>
<event>
12    7  0.1661464E-007  0.2399177E+04  0.7818608E-02  0.8439812E-01
         -1   -1    0    0    0  501 -0.00000000000E+00  0.00000000000E+00  0.32012326039E+03  0.32012326039E+03  0.00000000000E+00 0.  1.
          2   -1    0    0  501    0  0.00000000000E+00 -0.00000000000E+00 -0.44951833109E+04  0.44951833109E+04  0.00000000000E+00 0. -1.
         24    2    1    2    0    0 -0.36152042982E+03  0.48031334025E+03 -0.11343596348E+03  0.61718302382E+03  0.81542878763E+02 0.  0.
        254    2    1    2    0    0  0.36152042982E+03 -0.48031334025E+03 -0.40616240870E+04  0.41981235475E+04  0.87524463404E+03 0.  0.
         23    2    4    4    0    0  0.26488251282E+03 -0.40599504708E+03 -0.40048405473E+04  0.40351796378E+04  0.94510190709E+02 0.  0.
         23    2    4    4    0    0  0.96637917002E+02 -0.74318293178E+02 -0.56783539726E+02  0.16294390966E+03  0.92001367428E+02 0.  0.
          2    1    3    3  502    0 -0.22342150423E+02  0.45721952067E+02  0.10925084937E+02  0.52048305133E+02  0.00000000000E+00 0. -1.
         -1    1    3    3    0  502 -0.33917827940E+03  0.43459138819E+03 -0.12436104842E+03  0.56513471869E+03  0.00000000000E+00 0.  1.
         13    1    5    5    0    0  0.13597041746E+03 -0.13622102040E+03 -0.13775122485E+04  0.13908932797E+04  0.00000000000E+00 0. -1.
        -13    1    5    5    0    0  0.12891209536E+03 -0.26977402668E+03 -0.26273282988E+04  0.26442863581E+04  0.00000000000E+00 0.  1.
          2    1    6    6  503    0 -0.82279767904E+01 -0.42276177627E+02 -0.16778227154E+02  0.46222112709E+02  0.00000000000E+00 0.  1.
         -2    1    6    6    0  503  0.10486589379E+03 -0.32042115551E+02 -0.40005312572E+02  0.11672179695E+03  0.00000000000E+00 0. -1.
<mgrwt>
<rscale>  0 0.23991771E+04</rscale>
<asrwt>0</asrwt>
<pdfrwt beam="1">  1        2 0.69156661E+00 0.23991771E+04</pdfrwt>
<pdfrwt beam="2">  1       -1 0.49249736E-01 0.23991771E+04</pdfrwt>
<totfact> 0.52985547E-01</totfact>
</mgrwt>
</event>
<event>
12    7  0.1661464E-007  0.1568731E+04  0.7818608E-02  0.8839992E-01
          2   -1    0    0  501    0  0.00000000000E+00  0.00000000000E+00  0.18352814607E+04  0.18352814607E+04  0.00000000000E+00 0. -1.
         -1   -1    0    0    0  501 -0.00000000000E+00 -0.00000000000E+00 -0.33522316535E+03  0.33522316535E+03  0.00000000000E+00 0.  1.
         24    2    1    2    0    0  0.33537235957E+03  0.36201581991E+03  0.72144223976E+03  0.87695623347E+03  0.71015890339E+02 0.  0.
        254    2    1    2    0    0 -0.33537235957E+03 -0.36201581991E+03  0.77861605559E+03  0.12935483926E+04  0.90746592690E+03 0.  0.
         23    2    4    4    0    0 -0.17432670730E+03  0.23828492474E+03  0.53640039404E+03  0.61916024933E+03  0.92002855295E+02 0.  0.
         23    2    4    4    0    0 -0.16104565227E+03 -0.60030074466E+03  0.24221566155E+03  0.67438814325E+03  0.99167811817E+02 0.  0.
          4    1    3    3  502    0  0.20334888653E+03  0.19234492834E+03  0.46007410531E+03  0.53853089371E+03  0.00000000000E+00 0. -1.
         -3    1    3    3    0  502  0.13202347304E+03  0.16967089157E+03  0.26136813445E+03  0.33842533976E+03  0.00000000000E+00 0.  1.
         13    1    5    5    0    0 -0.10362628844E+03  0.10829638106E+03  0.18656586648E+03  0.23931848308E+03  0.00000000000E+00 0. -1.
        -13    1    5    5    0    0 -0.70700418869E+02  0.12998854368E+03  0.34983452756E+03  0.37984176625E+03  0.00000000000E+00 0.  1.
          2    1    6    6  503    0 -0.12427816247E+03 -0.41611522704E+03  0.12088834399E+03  0.45078923629E+03  0.00000000000E+00 0.  1.
         -2    1    6    6    0  503 -0.36767489794E+02 -0.18418551761E+03  0.12132731756E+03  0.22359890695E+03  0.00000000000E+00 0. -1.
<mgrwt>
<rscale>  0 0.15687305E+04</rscale>
<asrwt>0</asrwt>
<pdfrwt beam="1">  1        2 0.28235099E+00 0.15687305E+04</pdfrwt>
<pdfrwt beam="2">  1       -1 0.51572796E-01 0.15687305E+04</pdfrwt>
<totfact> 0.34167232E+01</totfact>
</mgrwt>
</event>
<event>
12    7  0.1661464E-007  0.1961126E+04  0.7818608E-02  0.8625014E-01
         -1   -1    0    0    0  501 -0.00000000000E+00  0.00000000000E+00  0.35993082642E+03  0.35993082642E+03  0.00000000000E+00 0.  1.
          2   -1    0    0  501    0  0.00000000000E+00 -0.00000000000E+00 -0.26713561093E+04  0.26713561093E+04  0.00000000000E+00 0. -1.
         24    2    1    2    0    0 -0.58624841100E+02  0.59484400266E+03 -0.16635696204E+04  0.17695523238E+04  0.81088133275E+02 0.  0.
        254    2    1    2    0    0  0.58624841100E+02 -0.59484400266E+03 -0.64785566254E+03  0.12617346120E+04  0.90276298773E+03 0.  0.
         23    2    4    4    0    0  0.17093418843E+03  0.18956552781E+03 -0.78889616367E+02  0.28211901595E+03  0.90631018318E+02 0.  0.
         23    2    4    4    0    0 -0.11230934733E+03 -0.78440953047E+03 -0.56896604617E+03  0.97961559600E+03  0.89513424944E+02 0.  0.
          2    1    3    3  502    0 -0.70986693212E+02  0.42789990155E+03 -0.12632364476E+04  0.13356286007E+04  0.00000000000E+00 0. -1.
         -1    1    3    3    0  502  0.12361852112E+02  0.16694410112E+03 -0.40033317277E+03  0.43392372315E+03  0.00000000000E+00 0.  1.
         13    1    5    5    0    0  0.65428836709E+02  0.12771593104E+03 -0.15402562277E+02  0.14432439378E+03  0.00000000000E+00 0. -1.
        -13    1    5    5    0    0  0.10550535172E+03  0.61849596769E+02 -0.63487054090E+02  0.13779462217E+03  0.00000000000E+00 0.  1.
          2    1    6    6  503    0 -0.31008264631E+01 -0.10667341554E+03 -0.11344329548E+03  0.15575048635E+03  0.00000000000E+00 0. -1.
         -2    1    6    6    0  503 -0.10920852087E+03 -0.67773611493E+03 -0.45552275069E+03  0.82386510965E+03  0.00000000000E+00 0.  1.
<mgrwt>
<rscale>  0 0.19611256E+04</rscale>
<asrwt>0</asrwt>
<pdfrwt beam="1">  1        2 0.41097786E+00 0.19611256E+04</pdfrwt>
<pdfrwt beam="2">  1       -1 0.55373974E-01 0.19611256E+04</pdfrwt>
<totfact> 0.96726564E+00</totfact>
</mgrwt>
</event>
<event>
12    7  0.1661464E-007  0.1249118E+04  0.7818608E-02  0.9070918E-01
         -1   -1    0    0    0  501 -0.00000000000E+00  0.00000000000E+00  0.33197001296E+03  0.33197001296E+03  0.00000000000E+00 0.  1.
          2   -1    0    0  501    0  0.00000000000E+00 -0.00000000000E+00 -0.11750273264E+04  0.11750273264E+04  0.00000000000E+00 0. -1.
         24    2    1    2    0    0 -0.89123494315E+02  0.46777075774E+02 -0.54165797535E+03  0.55672009103E+03  0.80079994012E+02 0.  0.
        254    2    1    2    0    0  0.89123494315E+02 -0.46777075774E+02 -0.30139933811E+03  0.95027724835E+03  0.89557478508E+03 0.  0.
         23    2    4    4    0    0  0.14945369826E+03 -0.10952359809E+02 -0.60250594871E+03  0.62741715342E+03  0.90457194709E+02 0.  0.
         23    2    4    4    0    0 -0.60330203944E+02 -0.35824715965E+02  0.30110661059E+03  0.32286009493E+03  0.93007022172E+02 0.  0.
          2    1    3    3  502    0 -0.55295055948E+02  0.21771027064E+02 -0.46910033286E+03  0.47284949309E+03  0.00000000000E+00 0. -1.
         -1    1    3    3    0  502 -0.33828438367E+02  0.25006048710E+02 -0.72557642493E+02  0.83870597939E+02  0.00000000000E+00 0.  1.
         13    1    5    5    0    0  0.15487521075E+03 -0.96693725143E+01 -0.47325740310E+03  0.49804858926E+03  0.00000000000E+00 0.  1.
        -13    1    5    5    0    0 -0.54215124873E+01 -0.12829872947E+01 -0.12924854560E+03  0.12936856417E+03  0.00000000000E+00 0. -1.
          2    1    6    6  503    0  0.75792224898E+01  0.12631558755E+02  0.14600194816E+03  0.14674321025E+03  0.00000000000E+00 0. -1.
         -2    1    6    6    0  503 -0.67909426434E+02 -0.48456274720E+02  0.15510466244E+03  0.17611688468E+03  0.00000000000E+00 0.  1.
<mgrwt>
<rscale>  0 0.12491178E+04</rscale>
<asrwt>0</asrwt>
<pdfrwt beam="1">  1        2 0.18077343E+00 0.12491178E+04</pdfrwt>
<pdfrwt beam="2">  1       -1 0.51072310E-01 0.12491178E+04</pdfrwt>
<totfact> 0.84723941E+01</totfact>
</mgrwt>
</event>
<event>
12    7  0.1661464E-007  0.1128858E+04  0.7818608E-02  0.9177512E-01
         -1   -1    0    0    0  501 -0.00000000000E+00  0.00000000000E+00  0.90645810801E+03  0.90645810801E+03  0.00000000000E+00 0.  1.
          2   -1    0    0  501    0  0.00000000000E+00 -0.00000000000E+00 -0.35145617402E+03  0.35145617402E+03  0.00000000000E+00 0. -1.
         24    2    1    2    0    0  0.84661350234E+02 -0.12944250229E+03  0.23539021321E+02  0.18658308856E+03  0.10166738803E+03 0.  0.
        254    2    1    2    0    0 -0.84661350234E+02  0.12944250229E+03  0.53146291267E+03  0.10713311935E+04  0.91726484341E+03 0.  0.
         23    2    4    4    0    0 -0.44915246480E+03  0.16126259539E+03  0.93860347418E+02  0.49465242173E+03  0.90153714251E+02 0.  0.
         23    2    4    4    0    0  0.36449111457E+03 -0.31820093103E+02  0.43760256525E+03  0.57667877175E+03  0.84829887080E+02 0.  0.
          2    1    3    3  502    0  0.29652435102E+02 -0.68471172149E+02 -0.38217573609E+02  0.83834069778E+02  0.00000000000E+00 0. -1.
         -1    1    3    3    0  502  0.55008915132E+02 -0.60971330139E+02  0.61756594930E+02  0.10274901878E+03  0.00000000000E+00 0.  1.
         13    1    5    5    0    0 -0.13244015635E+03  0.92487505876E+02  0.34010093595E+02  0.16507883033E+03  0.00000000000E+00 0.  1.
        -13    1    5    5    0    0 -0.31671230845E+03  0.68775089515E+02  0.59850253823E+02  0.32957359140E+03  0.00000000000E+00 0. -1.
          2    1    6    6  503    0  0.26418581467E+03  0.15366099203E+02  0.30227791223E+03  0.40174892396E+03  0.00000000000E+00 0. -1.
         -2    1    6    6    0  503  0.10030529990E+03 -0.47186192306E+02  0.13532465302E+03  0.17492984779E+03  0.00000000000E+00 0.  1.
<mgrwt>
<rscale>  0 0.11288584E+04</rscale>
<asrwt>0</asrwt>
<pdfrwt beam="1">  1        2 0.54070181E-01 0.11288584E+04</pdfrwt>
<pdfrwt beam="2">  1       -1 0.13945509E+00 0.11288584E+04</pdfrwt>
<totfact> 0.44218936E+01</totfact>
</mgrwt>
</event>
<event>
12    7  0.1661464E-007  0.1761205E+04  0.7818608E-02  0.8727207E-01
          2   -1    0    0  501    0  0.00000000000E+00  0.00000000000E+00  0.24414290571E+04  0.24414290571E+04  0.00000000000E+00 0. -1.
         -1   -1    0    0    0  501 -0.00000000000E+00 -0.00000000000E+00 -0.31762570032E+03  0.31762570032E+03  0.00000000000E+00 0.  1.
         24    2    1    2    0    0 -0.16389693716E+03  0.25381239468E+03 -0.10987460200E+03  0.33147645381E+03  0.80754402742E+02 0.  0.
        254    2    1    2    0    0  0.16389693716E+03 -0.25381239468E+03  0.22336779588E+04  0.24275783036E+04  0.90140793145E+03 0.  0.
         23    2    4    4    0    0 -0.95405819359E+02 -0.24109553264E+03  0.12802493665E+03  0.30405223882E+03  0.93957720797E+02 0.  0.
         23    2    4    4    0    0  0.25930275652E+03 -0.12716862035E+02  0.21056530221E+04  0.21235260648E+04  0.90491215584E+02 0.  0.
          4    1    3    3  502    0  0.89743083561E+01  0.19253341223E+02 -0.97579920997E+01  0.23376222290E+02  0.00000000000E+00 0. -1.
         -3    1    3    3    0  502 -0.17287124552E+03  0.23455905346E+03 -0.10011660990E+03  0.30810023152E+03  0.00000000000E+00 0.  1.
         13    1    5    5    0    0 -0.10134195603E+03 -0.24479728458E+03  0.11410167815E+03  0.28847026805E+03  0.00000000000E+00 0.  1.
        -13    1    5    5    0    0  0.59361366679E+01  0.37017519380E+01  0.13923258494E+02  0.15581970769E+02  0.00000000000E+00 0. -1.
          3    1    6    6  503    0  0.13934696404E+03 -0.16112276297E+02  0.14673982845E+04  0.14740878221E+04  0.00000000000E+00 0. -1.
         -3    1    6    6    0  503  0.11995579248E+03  0.33954142621E+01  0.63825473758E+03  0.64943824266E+03  0.00000000000E+00 0.  1.
<mgrwt>
<rscale>  0 0.17612048E+04</rscale>
<asrwt>0</asrwt>
<pdfrwt beam="1">  1        2 0.37560446E+00 0.17612048E+04</pdfrwt>
<pdfrwt beam="2">  1       -1 0.48865494E-01 0.17612048E+04</pdfrwt>
<totfact> 0.17034528E+01</totfact>
</mgrwt>
</event>
<event>
12    7  0.1661464E-007  0.1365039E+04  0.7818608E-02  0.8979521E-01
          2   -1    0    0  501    0  0.00000000000E+00  0.00000000000E+00  0.17887375164E+04  0.17887375164E+04  0.00000000000E+00 0. -1.
         -1   -1    0    0    0  501 -0.00000000000E+00 -0.00000000000E+00 -0.26042566615E+03  0.26042566615E+03  0.00000000000E+00 0.  1.
         24    2    1    2    0    0  0.41353180336E+02  0.22815403962E+03  0.88928653328E+03  0.92237835214E+03  0.78657071511E+02 0.  0.
        254    2    1    2    0    0 -0.41353180336E+02 -0.22815403962E+03  0.63902531698E+03  0.11267848304E+04  0.89862469753E+03 0.  0.
         23    2    4    4    0    0 -0.15429355818E+03 -0.52811298248E+03  0.24042172367E+03  0.60709130101E+03  0.89707403177E+02 0.  0.
         23    2    4    4    0    0  0.11294037785E+03  0.29995894286E+03  0.39860359331E+03  0.51969352942E+03  0.92008931989E+02 0.  0.
          4    1    3    3  502    0 -0.13200530649E+02  0.14235248392E+03  0.53839113196E+03  0.55704891586E+03  0.00000000000E+00 0. -1.
         -3    1    3    3    0  502  0.54553710986E+02  0.85801555697E+02  0.35089540132E+03  0.36532943627E+03  0.00000000000E+00 0.  1.
         13    1    5    5    0    0  0.89846119283E+01 -0.88816601460E+01  0.96250656583E+01  0.15882349555E+02  0.00000000000E+00 0. -1.
        -13    1    5    5    0    0 -0.16327817011E+03 -0.51923132233E+03  0.23079665801E+03  0.59120895145E+03  0.00000000000E+00 0.  1.
          2    1    6    6  503    0 -0.41591203630E+01  0.20479146480E+02  0.68414998794E+02  0.71535346387E+02  0.00000000000E+00 0. -1.
         -2    1    6    6    0  503  0.11709949821E+03  0.27947979638E+03  0.33018859451E+03  0.44815818303E+03  0.00000000000E+00 0.  1.
<mgrwt>
<rscale>  0 0.13650394E+04</rscale>
<asrwt>0</asrwt>
<pdfrwt beam="1">  1        2 0.27519038E+00 0.13650394E+04</pdfrwt>
<pdfrwt beam="2">  1       -1 0.40065488E-01 0.13650394E+04</pdfrwt>
<totfact> 0.59096164E+01</totfact>
</mgrwt>
</event>
<event>
12    7  0.1661464E-007  0.1645304E+04  0.7818608E-02  0.8793189E-01
          2   -1    0    0  501    0  0.00000000000E+00  0.00000000000E+00  0.10652350666E+04  0.10652350666E+04  0.00000000000E+00 0. -1.
         -1   -1    0    0    0  501 -0.00000000000E+00 -0.00000000000E+00 -0.63531187051E+03  0.63531187051E+03  0.00000000000E+00 0.  1.
         24    2    1    2    0    0 -0.34725498452E+03  0.27279754666E+03 -0.22974862150E+03  0.50426977332E+03  0.80616682318E+02 0.  0.
        254    2    1    2    0    0  0.34725498452E+03 -0.27279754666E+03  0.65967181754E+03  0.11962771637E+04  0.89493442212E+03 0.  0.
         23    2    4    4    0    0  0.40199945923E+03  0.22620373128E+03  0.42927027246E+03  0.63629880726E+03  0.88495830632E+02 0.  0.
         23    2    4    4    0    0 -0.54744474708E+02 -0.49900127795E+03  0.23040154508E+03  0.55997835648E+03  0.92150175534E+02 0.  0.
          2    1    3    3  502    0 -0.46017490322E+01 -0.31985237411E+01  0.31697112005E+01  0.64384561327E+01  0.00000000000E+00 0. -1.
         -1    1    3    3    0  502 -0.34265323549E+03  0.27599607040E+03 -0.23291833270E+03  0.49783131719E+03  0.00000000000E+00 0.  1.
         13    1    5    5    0    0  0.14229597772E+03  0.57652922083E+02  0.19423604389E+03  0.24758765204E+03  0.00000000000E+00 0.  1.
        -13    1    5    5    0    0  0.25970348151E+03  0.16855080920E+03  0.23503422857E+03  0.38871115522E+03  0.00000000000E+00 0. -1.
          1    1    6    6  503    0  0.23240279229E+02 -0.14972006355E+03  0.84643122037E+02  0.17355306426E+03  0.00000000000E+00 0. -1.
         -1    1    6    6    0  503 -0.77984753937E+02 -0.34928121440E+03  0.14575842305E+03  0.38642529222E+03  0.00000000000E+00 0.  1.
<mgrwt>
<rscale>  0 0.16453042E+04</rscale>
<asrwt>0</asrwt>
<pdfrwt beam="1">  1        2 0.16388232E+00 0.16453042E+04</pdfrwt>
<pdfrwt beam="2">  1       -1 0.97740288E-01 0.16453042E+04</pdfrwt>
<totfact> 0.25067698E+01</totfact>
</mgrwt>
</event>
<event>
12    7  0.1661464E-007  0.2010777E+04  0.7818608E-02  0.8601599E-01
         -1   -1    0    0    0  501 -0.00000000000E+00  0.00000000000E+00  0.46384878542E+03  0.46384878542E+03  0.00000000000E+00 0.  1.
          2   -1    0    0  501    0  0.00000000000E+00 -0.00000000000E+00 -0.21791707655E+04  0.21791707655E+04  0.00000000000E+00 0. -1.
         24    2    1    2    0    0  0.61440324855E+03  0.48533295737E+03 -0.90014183667E+03  0.11960151409E+04  0.84601771910E+02 0.  0.
        254    2    1    2    0    0 -0.61440324855E+03 -0.48533295737E+03 -0.81518014345E+03  0.14470044101E+04  0.90347311255E+03 0.  0.
         23    2    4    4    0    0 -0.72595434199E+03 -0.61105213226E+03 -0.81615194632E+03  0.12553279130E+04  0.96694130032E+02 0.  0.
         23    2    4    4    0    0  0.11155109344E+03  0.12571917489E+03  0.97180287149E+00  0.19167649702E+03  0.92141075127E+02 0.  0.
          2    1    3    3  502    0  0.17011650930E+03  0.13998817060E+03 -0.31296438648E+03  0.38273100456E+03  0.00000000000E+00 0. -1.
         -1    1    3    3    0  502  0.44428673925E+03  0.34534478676E+03 -0.58717745019E+03  0.81328413634E+03  0.00000000000E+00 0.  1.
         13    1    5    5    0    0 -0.63725530354E+03 -0.51523741065E+03 -0.74010671267E+03  0.11042290783E+04  0.00000000000E+00 0. -1.
        -13    1    5    5    0    0 -0.88699038446E+02 -0.95814721604E+02 -0.76045233645E+02  0.15109883473E+03  0.00000000000E+00 0.  1.
          4    1    6    6  503    0  0.70500016966E+02  0.68134408058E+02  0.45520363084E+02  0.10809557534E+03  0.00000000000E+00 0. -1.
         -4    1    6    6    0  503  0.41051076470E+02  0.57584766831E+02 -0.44548560213E+02  0.83580921671E+02  0.00000000000E+00 0.  1.
<mgrwt>
<rscale>  0 0.20107767E+04</rscale>
<asrwt>0</asrwt>
<pdfrwt beam="1">  1        2 0.33525704E+00 0.20107767E+04</pdfrwt>
<pdfrwt beam="2">  1       -1 0.71361351E-01 0.20107767E+04</pdfrwt>
<totfact> 0.11116416E+01</totfact>
</mgrwt>
</event>
<event>
12    7  0.1661464E-007  0.1462235E+04  0.7818608E-02  0.8909962E-01
          2   -1    0    0  501    0  0.00000000000E+00  0.00000000000E+00  0.14165244150E+04  0.14165244150E+04  0.00000000000E+00 0. -1.
         -1   -1    0    0    0  501 -0.00000000000E+00 -0.00000000000E+00 -0.37735516159E+03  0.37735516159E+03  0.00000000000E+00 0.  1.
         24    2    1    2    0    0  0.22731261883E+02 -0.77221570960E+02  0.85680128314E+03  0.86441222659E+03  0.81364472653E+02 0.  0.
        254    2    1    2    0    0 -0.22731261883E+02  0.77221570960E+02  0.18236797028E+03  0.92946735001E+03  0.90783897077E+03 0.  0.
         23    2    4    4    0    0 -0.88428320542E+01  0.30756578412E+03 -0.26605311849E+03  0.41702857779E+03  0.91943817595E+02 0.  0.
         23    2    4    4    0    0 -0.13888429829E+02 -0.23034421316E+03  0.44842108877E+03  0.51243877221E+03  0.90888268697E+02 0.  0.
          2    1    3    3  502    0 -0.14580104452E+01 -0.37750720915E+02  0.69745893843E+03  0.69848136232E+03  0.00000000000E+00 0. -1.
         -1    1    3    3    0  502  0.24189272328E+02 -0.39470850044E+02  0.15934234471E+03  0.16593086427E+03  0.00000000000E+00 0.  1.
         13    1    5    5    0    0 -0.11788350992E+02  0.10672713731E+03 -0.15182894044E+03  0.18596148583E+03  0.00000000000E+00 0.  1.
        -13    1    5    5    0    0  0.29455189381E+01  0.20083864682E+03 -0.11422417805E+03  0.23106709196E+03  0.00000000000E+00 0. -1.
          1    1    6    6  503    0 -0.28586377270E+02 -0.39787016506E+02  0.47237346350E+02  0.68055525404E+02  0.00000000000E+00 0. -1.
         -1    1    6    6    0  503  0.14697947442E+02 -0.19055719666E+03  0.40118374242E+03  0.44438324681E+03  0.00000000000E+00 0.  1.
<mgrwt>
<rscale>  0 0.14622350E+04</rscale>
<asrwt>0</asrwt>
<pdfrwt beam="1">  1        2 0.21792683E+00 0.14622350E+04</pdfrwt>
<pdfrwt beam="2">  1       -1 0.58054641E-01 0.14622350E+04</pdfrwt>
<totfact> 0.46994829E+01</totfact>
</mgrwt>
</event>
<event>
12    7  0.1661464E-007  0.2178239E+04  0.7818608E-02  0.8527540E-01
         -1   -1    0    0    0  501 -0.00000000000E+00  0.00000000000E+00  0.76222904213E+03  0.76222904213E+03  0.00000000000E+00 0.  1.
          2   -1    0    0  501    0  0.00000000000E+00 -0.00000000000E+00 -0.15562010452E+04  0.15562010452E+04  0.00000000000E+00 0. -1.
         24    2    1    2    0    0 -0.38511547893E+02  0.81625675422E+02  0.62485767292E+03  0.63628835458E+03  0.79182501606E+02 0.  0.
        254    2    1    2    0    0  0.38511547893E+02 -0.81625675422E+02 -0.14188296760E+04  0.16821417327E+04  0.89909803101E+03 0.  0.
         23    2    4    4    0    0 -0.48007319753E+01  0.20170711327E+03  0.91152224777E+01  0.22286568043E+03  0.94218987808E+02 0.  0.
         23    2    4    4    0    0  0.43312279869E+02 -0.28333278869E+03 -0.14279448985E+04  0.14592760523E+04  0.91140227518E+02 0.  0.
          4    1    3    3  502    0 -0.47170441190E+01 -0.15265050461E+02  0.12414786925E+03  0.12517174485E+03  0.00000000000E+00 0. -1.
         -3    1    3    3    0  502 -0.33794503774E+02  0.96890725883E+02  0.50070980367E+03  0.51111660973E+03  0.00000000000E+00 0.  1.
         13    1    5    5    0    0 -0.21952389033E+02  0.18770882077E+03 -0.15665094344E+02  0.18963624116E+03  0.00000000000E+00 0.  1.
        -13    1    5    5    0    0  0.17151657058E+02  0.13998292494E+02  0.24780316822E+02  0.33229439273E+02  0.00000000000E+00 0. -1.
          2    1    6    6  503    0  0.96166647699E+01 -0.49788325397E+02 -0.46871253962E+03  0.47144756058E+03  0.00000000000E+00 0. -1.
         -2    1    6    6    0  503  0.33695615099E+02 -0.23354446329E+03 -0.95923235884E+03  0.98782849172E+03  0.00000000000E+00 0.  1.
<mgrwt>
<rscale>  0 0.21782393E+04</rscale>
<asrwt>0</asrwt>
<pdfrwt beam="1">  1        2 0.23941554E+00 0.21782393E+04</pdfrwt>
<pdfrwt beam="2">  1       -1 0.11726601E+00 0.21782393E+04</pdfrwt>
<totfact> 0.80608475E+00</totfact>
</mgrwt>
</event>
<event>
12    7  0.1661464E-007  0.1439936E+04  0.7818608E-02  0.8925408E-01
          2   -1    0    0  501    0  0.00000000000E+00  0.00000000000E+00  0.20835025433E+04  0.20835025433E+04  0.00000000000E+00 0. -1.
         -1   -1    0    0    0  501 -0.00000000000E+00 -0.00000000000E+00 -0.24878956729E+03  0.24878956729E+03  0.00000000000E+00 0.  1.
         24    2    1    2    0    0  0.45342900252E+02  0.24105000012E+02 -0.13142916811E+03  0.16190484039E+03  0.79388421601E+02 0.  0.
        254    2    1    2    0    0 -0.45342900252E+02 -0.24105000012E+02  0.19661421442E+04  0.21703872702E+04  0.91773032102E+03 0.  0.
         23    2    4    4    0    0 -0.45566936979E+01 -0.20589408441E+03  0.19521575694E+04  0.19650818050E+04  0.90632152508E+02 0.  0.
         23    2    4    4    0    0 -0.40786206554E+02  0.18178908440E+03  0.13984574776E+02  0.20530546527E+03  0.85111573147E+02 0.  0.
          4    1    3    3  502    0  0.43595068057E+01  0.24533960149E+02 -0.72883663477E+00  0.24928933050E+02  0.00000000000E+00 0. -1.
         -1    1    3    3    0  502  0.40983393446E+02 -0.42896013733E+00 -0.13070033147E+03  0.13697590734E+03  0.00000000000E+00 0.  1.
         13    1    5    5    0    0  0.39069004102E+02 -0.52703858267E+02  0.59892974679E+03  0.60251217859E+03  0.00000000000E+00 0. -1.
        -13    1    5    5    0    0 -0.43625697800E+02 -0.15319022615E+03  0.13532278226E+04  0.13625696264E+04  0.00000000000E+00 0.  1.
          1    1    6    6  503    0 -0.51710995054E+02  0.50868963367E+02 -0.42961711932E+01  0.72664541081E+02  0.00000000000E+00 0. -1.
         -1    1    6    6    0  503  0.10924788500E+02  0.13092012103E+03  0.18280745969E+02  0.13264092418E+03  0.00000000000E+00 0.  1.
<mgrwt>
<rscale>  0 0.14399357E+04</rscale>
<asrwt>0</asrwt>
<pdfrwt beam="1">  1        2 0.32053884E+00 0.14399357E+04</pdfrwt>
<pdfrwt beam="2">  1       -1 0.38275319E-01 0.14399357E+04</pdfrwt>
<totfact> 0.43835610E+01</totfact>
</mgrwt>
</event>
<event>
12    7  0.1661464E-007  0.1683377E+04  0.7818608E-02  0.8770902E-01
          2   -1    0    0  501    0  0.00000000000E+00  0.00000000000E+00  0.57730840637E+03  0.57730840637E+03  0.00000000000E+00 0. -1.
         -1   -1    0    0    0  501 -0.00000000000E+00 -0.00000000000E+00 -0.12271427121E+04  0.12271427121E+04  0.00000000000E+00 0.  1.
         24    2    1    2    0    0 -0.28376948734E+03 -0.51646845376E+03 -0.35215649070E+03  0.69108165052E+03  0.79466144142E+02 0.  0.
        254    2    1    2    0    0  0.28376948734E+03  0.51646845376E+03 -0.29767781499E+03  0.11133694679E+04  0.89650136914E+03 0.  0.
         23    2    4    4    0    0  0.54885050461E+03  0.55932579958E+03 -0.22487164031E+03  0.82052509007E+03  0.92800551297E+02 0.  0.
         23    2    4    4    0    0 -0.26508101728E+03 -0.42857345823E+02 -0.72806174681E+02  0.29284437785E+03  0.91391426033E+02 0.  0.
          4    1    3    3  502    0 -0.65874193201E+02 -0.17499220550E+03 -0.14164277104E+03  0.23457270921E+03  0.00000000000E+00 0. -1.
         -3    1    3    3    0  502 -0.21789529414E+03 -0.34147624825E+03 -0.21051371966E+03  0.45650894131E+03  0.00000000000E+00 0.  1.
         13    1    5    5    0    0  0.12964759216E+03  0.10184603070E+03 -0.80413976729E+02  0.18343260281E+03  0.00000000000E+00 0. -1.
        -13    1    5    5    0    0  0.41920291246E+03  0.45747976888E+03 -0.14445766358E+03  0.63709248725E+03  0.00000000000E+00 0.  1.
          1    1    6    6  503    0 -0.83632397511E+01  0.72698803179E+01 -0.24452975357E+02  0.26846656082E+02  0.00000000000E+00 0. -1.
         -1    1    6    6    0  503 -0.25671777753E+03 -0.50127226141E+02 -0.48353199324E+02  0.26599772176E+03  0.00000000000E+00 0.  1.
<mgrwt>
<rscale>  0 0.16833773E+04</rscale>
<asrwt>0</asrwt>
<pdfrwt beam="1">  1        2 0.88816678E-01 0.16833773E+04</pdfrwt>
<pdfrwt beam="2">  1       -1 0.18879119E+00 0.16833773E+04</pdfrwt>
<totfact> 0.10190319E+01</totfact>
</mgrwt>
</event>
<event>
12    7  0.1661464E-007  0.1399319E+04  0.7818608E-02  0.8954311E-01
         -1   -1    0    0    0  501 -0.00000000000E+00  0.00000000000E+00  0.12210217240E+04  0.12210217240E+04  0.00000000000E+00 0.  1.
          2   -1    0    0  501    0  0.00000000000E+00 -0.00000000000E+00 -0.40091307582E+03  0.40091307582E+03  0.00000000000E+00 0. -1.
         24    2    1    2    0    0 -0.25413614012E+02 -0.26501240571E+03  0.65470860339E+03  0.71013923885E+03  0.69115528157E+02 0.  0.
        254    2    1    2    0    0  0.25413614012E+02  0.26501240571E+03  0.16540004483E+03  0.91179556102E+03  0.85623393024E+03 0.  0.
         23    2    4    4    0    0  0.18745952117E+03 -0.26308882575E+03  0.39340984404E+02  0.33779112867E+03  0.90544636767E+02 0.  0.
         23    2    4    4    0    0 -0.16204590716E+03  0.52810123146E+03  0.12605906042E+03  0.57400443234E+03  0.91871730873E+02 0.  0.
          2    1    3    3  502    0 -0.47384208486E+02 -0.21885411800E+03  0.53089584443E+03  0.57618815140E+03  0.00000000000E+00 0. -1.
         -1    1    3    3    0  502  0.21970594474E+02 -0.46158287714E+02  0.12381275896E+03  0.13395108745E+03  0.00000000000E+00 0.  1.
         13    1    5    5    0    0  0.32868369966E+01 -0.48387837423E+01 -0.14886173061E+02  0.15994226269E+02  0.00000000000E+00 0. -1.
        -13    1    5    5    0    0  0.18417268417E+03 -0.25825004201E+03  0.54227157465E+02  0.32179690241E+03  0.00000000000E+00 0.  1.
          1    1    6    6  503    0 -0.18500539721E+02  0.11843265495E+03  0.62820609978E+02  0.13533289609E+03  0.00000000000E+00 0. -1.
         -1    1    6    6    0  503 -0.14354536743E+03  0.40966857652E+03  0.63238450446E+02  0.43867153625E+03  0.00000000000E+00 0.  1.
<mgrwt>
<rscale>  0 0.13993192E+04</rscale>
<asrwt>0</asrwt>
<pdfrwt beam="1">  1        2 0.61678935E-01 0.13993192E+04</pdfrwt>
<pdfrwt beam="2">  1       -1 0.18784949E+00 0.13993192E+04</pdfrwt>
<totfact> 0.16160955E+01</totfact>
</mgrwt>
</event>
<event>
12    7  0.1661464E-007  0.1852708E+04  0.7818608E-02  0.8678762E-01
          2   -1    0    0  501    0  0.00000000000E+00  0.00000000000E+00  0.25036546297E+04  0.25036546297E+04  0.00000000000E+00 0. -1.
         -1   -1    0    0    0  501 -0.00000000000E+00 -0.00000000000E+00 -0.34275158598E+03  0.34275158598E+03  0.00000000000E+00 0.  1.
         24    2    1    2    0    0 -0.28285859234E+03 -0.22338695157E+02 -0.16389763106E+03  0.33731980357E+03  0.80088799801E+02 0.  0.
        254    2    1    2    0    0  0.28285859234E+03  0.22338695157E+02  0.23248006748E+04  0.25090864121E+04  0.90017134224E+03 0.  0.
         23    2    4    4    0    0  0.19178496288E+02  0.27701088913E+03  0.19672713378E+04  0.19889093882E+04  0.92201901017E+02 0.  0.
         23    2    4    4    0    0  0.26368009605E+03 -0.25467219398E+03  0.35752933700E+03  0.52017702391E+03  0.91497486045E+02 0.  0.
          2    1    3    3  502    0 -0.15516343862E+03 -0.51317692526E+02 -0.81664173519E+02  0.18269711406E+03  0.00000000000E+00 0. -1.
         -1    1    3    3    0  502 -0.12769515372E+03  0.28978997368E+02 -0.82233457541E+02  0.15462268951E+03  0.00000000000E+00 0.  1.
         13    1    5    5    0    0  0.33590517773E+02  0.31699709799E+02  0.26542963554E+03  0.26941805045E+03  0.00000000000E+00 0.  1.
        -13    1    5    5    0    0 -0.14412021485E+02  0.24531117934E+03  0.17018417023E+04  0.17194913378E+04  0.00000000000E+00 0. -1.
          1    1    6    6  503    0  0.23760941853E+03 -0.25785595558E+03  0.32251742028E+03  0.47640887480E+03  0.00000000000E+00 0. -1.
         -1    1    6    6    0  503  0.26070677521E+02  0.31837616076E+01  0.35011916713E+02  0.43768149108E+02  0.00000000000E+00 0.  1.
<mgrwt>
<rscale>  0 0.18527079E+04</rscale>
<asrwt>0</asrwt>
<pdfrwt beam="1">  1        2 0.38517762E+00 0.18527079E+04</pdfrwt>
<pdfrwt beam="2">  1       -1 0.52731015E-01 0.18527079E+04</pdfrwt>
<totfact> 0.13453686E+01</totfact>
</mgrwt>
</event>
<event>
12    7  0.1661464E-007  0.1656264E+04  0.7818608E-02  0.8786709E-01
         -1   -1    0    0    0  501 -0.00000000000E+00  0.00000000000E+00  0.45783386015E+03  0.45783386015E+03  0.00000000000E+00 0.  1.
          2   -1    0    0  501    0  0.00000000000E+00 -0.00000000000E+00 -0.14979288990E+04  0.14979288990E+04  0.00000000000E+00 0. -1.
         24    2    1    2    0    0  0.24350100777E+03  0.37266585254E+01 -0.99173853506E+03  0.10243439296E+04  0.80178148485E+02 0.  0.
        254    2    1    2    0    0 -0.24350100777E+03 -0.37266585254E+01 -0.48356503768E+02  0.93141882950E+03  0.89771713569E+03 0.  0.
         23    2    4    4    0    0 -0.22442992785E+03 -0.31280699629E+03 -0.32169726902E+03  0.50854789118E+03  0.83155368378E+02 0.  0.
         23    2    4    4    0    0 -0.19071079914E+02  0.30908033777E+03  0.27334076525E+03  0.42287093831E+03  0.90610679507E+02 0.  0.
          4    1    3    3  502    0  0.18010517252E+03  0.29931038034E+02 -0.80388710714E+03  0.82435927921E+03  0.00000000000E+00 0. -1.
         -3    1    3    3    0  502  0.63395835242E+02 -0.26204379509E+02 -0.18785142792E+03  0.19998465042E+03  0.00000000000E+00 0.  1.
         13    1    5    5    0    0 -0.22784612146E+03 -0.28241435406E+03 -0.29011652180E+03  0.46458510379E+03  0.00000000000E+00 0.  1.
        -13    1    5    5    0    0  0.34161936071E+01 -0.30392642236E+02 -0.31580747213E+02  0.43962787393E+02  0.00000000000E+00 0. -1.
          2    1    6    6  503    0  0.12829873516E+02  0.37866025537E+01  0.23707885374E+02  0.27221459224E+02  0.00000000000E+00 0. -1.
         -2    1    6    6    0  503 -0.31900953430E+02  0.30529373521E+03  0.24963287987E+03  0.39564947909E+03  0.00000000000E+00 0.  1.
<mgrwt>
<rscale>  0 0.16562640E+04</rscale>
<asrwt>0</asrwt>
<pdfrwt beam="1">  1        2 0.23045060E+00 0.16562640E+04</pdfrwt>
<pdfrwt beam="2">  1       -1 0.70435979E-01 0.16562640E+04</pdfrwt>
<totfact> 0.28208556E+01</totfact>
</mgrwt>
</event>
<event>
12    7  0.1661464E-007  0.1446227E+04  0.7818608E-02  0.8921020E-01
          2   -1    0    0  501    0  0.00000000000E+00  0.00000000000E+00  0.18830114173E+04  0.18830114173E+04  0.00000000000E+00 0. -1.
         -1   -1    0    0    0  501 -0.00000000000E+00 -0.00000000000E+00 -0.27768998932E+03  0.27768998932E+03  0.00000000000E+00 0.  1.
         24    2    1    2    0    0  0.40307646670E+03  0.15831879991E+03  0.56537972827E+03  0.71656834865E+03  0.79249484143E+02 0.  0.
        254    2    1    2    0    0 -0.40307646670E+03 -0.15831879991E+03  0.10399416997E+04  0.14441330579E+04  0.90360725423E+03 0.  0.
         23    2    4    4    0    0 -0.60713972764E+03 -0.14721675436E+03  0.10442153009E+04  0.12202199651E+04  0.90883150335E+02 0.  0.
         23    2    4    4    0    0  0.20406326094E+03 -0.11102045551E+02 -0.42736012041E+01  0.22391309283E+03  0.91398794282E+02 0.  0.
          4    1    3    3  502    0  0.41589101077E+02 -0.66675023735E+01  0.42496100128E+02  0.59833330531E+02  0.00000000000E+00 0. -1.
         -3    1    3    3    0  502  0.36148736562E+03  0.16498630228E+03  0.52288362814E+03  0.65673501812E+03  0.00000000000E+00 0.  1.
         13    1    5    5    0    0 -0.48832678867E+03 -0.13737214036E+03  0.89987782628E+03  0.10330122263E+04  0.00000000000E+00 0. -1.
        -13    1    5    5    0    0 -0.11881293897E+03 -0.98446139934E+01  0.14433747461E+03  0.18720773880E+03  0.00000000000E+00 0.  1.
          3    1    6    6  503    0  0.15008687933E+03  0.23940067962E+02  0.23557583991E+02  0.15379908311E+03  0.00000000000E+00 0. -1.
         -3    1    6    6    0  503  0.53976381608E+02 -0.35042113513E+02 -0.27831185195E+02  0.70114009729E+02  0.00000000000E+00 0.  1.
<mgrwt>
<rscale>  0 0.14462274E+04</rscale>
<asrwt>0</asrwt>
<pdfrwt beam="1">  1        2 0.28969406E+00 0.14462274E+04</pdfrwt>
<pdfrwt beam="2">  1       -1 0.42721538E-01 0.14462274E+04</pdfrwt>
<totfact> 0.46271949E+01</totfact>
</mgrwt>
</event>
<event>
12    7  0.1661464E-007  0.2106957E+04  0.7818608E-02  0.8558185E-01
          2   -1    0    0  501    0  0.00000000000E+00  0.00000000000E+00  0.90106991427E+03  0.90106991427E+03  0.00000000000E+00 0. -1.
         -1   -1    0    0    0  501 -0.00000000000E+00 -0.00000000000E+00 -0.12316659640E+04  0.12316659640E+04  0.00000000000E+00 0.  1.
         24    2    1    2    0    0  0.51773512017E+03  0.19172232283E+02  0.55722513720E+03  0.76505397502E+03  0.79940615616E+02 0.  0.
        254    2    1    2    0    0 -0.51773512017E+03 -0.19172232283E+02 -0.88782118690E+03  0.13676819032E+04  0.90216966216E+03 0.  0.
         23    2    4    4    0    0 -0.65384074188E+03 -0.14222248901E+02 -0.24480268614E+03  0.70426566992E+03  0.91388131522E+02 0.  0.
         23    2    4    4    0    0  0.13610562170E+03 -0.49499833814E+01 -0.64301850077E+03  0.66341623330E+03  0.89994798068E+02 0.  0.
          2    1    3    3  502    0  0.49692199213E+03  0.47678012429E+01  0.54278026504E+03  0.73591073800E+03  0.00000000000E+00 0. -1.
         -1    1    3    3    0  502  0.20813128041E+02  0.14404431040E+02  0.14444872161E+02  0.29143237023E+02  0.00000000000E+00 0.  1.
         13    1    5    5    0    0 -0.55674510696E+03 -0.41116295982E+02 -0.19088266738E+03  0.58999309880E+03  0.00000000000E+00 0. -1.
        -13    1    5    5    0    0 -0.97095634912E+02  0.26894047081E+02 -0.53920018756E+02  0.11427257112E+03  0.00000000000E+00 0.  1.
          3    1    6    6  503    0  0.33602366422E+02  0.55848476171E+01 -0.37057724975E+03  0.37213950017E+03  0.00000000000E+00 0. -1.
         -3    1    6    6    0  503  0.10250325528E+03 -0.10534830998E+02 -0.27244125101E+03  0.29127673313E+03  0.00000000000E+00 0.  1.
<mgrwt>
<rscale>  0 0.21069572E+04</rscale>
<asrwt>0</asrwt>
<pdfrwt beam="1">  1        2 0.13862614E+00 0.21069572E+04</pdfrwt>
<pdfrwt beam="2">  1       -1 0.18948707E+00 0.21069572E+04</pdfrwt>
<totfact> 0.54799313E+00</totfact>
</mgrwt>
</event>
<event>
12    7  0.1661464E-007  0.1828604E+04  0.7818608E-02  0.8691234E-01
         -1   -1    0    0    0  501 -0.00000000000E+00  0.00000000000E+00  0.38318029820E+03  0.38318029820E+03  0.00000000000E+00 0.  1.
          2   -1    0    0  501    0  0.00000000000E+00 -0.00000000000E+00 -0.21816058752E+04  0.21816058752E+04  0.00000000000E+00 0. -1.
         24    2    1    2    0    0  0.34945028984E+03  0.34031557265E+03 -0.23360903450E+01  0.49435390102E+03  0.80312689381E+02 0.  0.
        254    2    1    2    0    0 -0.34945028984E+03 -0.34031557265E+03 -0.17960894867E+04  0.20704322724E+04  0.90709545053E+03 0.  0.
         23    2    4    4    0    0  0.13428672328E+03 -0.37302322382E+03 -0.33033330825E+03  0.52400692181E+03  0.91015987662E+02 0.  0.
         23    2    4    4    0    0 -0.48373701312E+03  0.32707651167E+02 -0.14657561784E+04  0.15464253506E+04  0.88988212874E+02 0.  0.
          2    1    3    3  502    0 -0.38065071968E+01  0.11280734619E+01 -0.23642347706E+01  0.46207848711E+01  0.00000000000E+00 0. -1.
         -1    1    3    3    0  502  0.35325679703E+03  0.33918749919E+03  0.28144425616E-01  0.48973311615E+03  0.00000000000E+00 0.  1.
         13    1    5    5    0    0  0.59085763319E+02 -0.71458113820E+02 -0.10522455167E+03  0.14024833593E+03  0.00000000000E+00 0.  1.
        -13    1    5    5    0    0  0.75200959965E+02 -0.30156511000E+03 -0.22510875658E+03  0.38375858588E+03  0.00000000000E+00 0. -1.
          2    1    6    6  503    0 -0.11376444653E+03  0.45985987263E+02 -0.37128945981E+03  0.39104082049E+03  0.00000000000E+00 0. -1.
         -2    1    6    6    0  503 -0.36997256659E+03 -0.13278336096E+02 -0.10944667186E+04  0.11553845301E+04  0.00000000000E+00 0.  1.
<mgrwt>
<rscale>  0 0.18286043E+04</rscale>
<asrwt>0</asrwt>
<pdfrwt beam="1">  1        2 0.33563167E+00 0.18286043E+04</pdfrwt>
<pdfrwt beam="2">  1       -1 0.58950815E-01 0.18286043E+04</pdfrwt>
<totfact> 0.16546369E+01</totfact>
</mgrwt>
</event>
<event>
12    7  0.1661464E-007  0.1296000E+04  0.7818608E-02  0.9032743E-01
         -1   -1    0    0    0  501 -0.00000000000E+00  0.00000000000E+00  0.17121343410E+03  0.17121343410E+03  0.00000000000E+00 0.  1.
          2   -1    0    0  501    0  0.00000000000E+00 -0.00000000000E+00 -0.24525186927E+04  0.24525186927E+04  0.00000000000E+00 0. -1.
         24    2    1    2    0    0 -0.13370922166E+03  0.28691898713E+03 -0.48421281374E+03  0.58398647288E+03  0.79859190951E+02 0.  0.
        254    2    1    2    0    0  0.13370922166E+03 -0.28691898713E+03 -0.17970924449E+04  0.20397456539E+04  0.91149350860E+03 0.  0.
         23    2    4    4    0    0  0.32772853720E+03 -0.36281038074E+03 -0.17353599040E+04  0.18050851392E+04  0.88436400345E+02 0.  0.
         23    2    4    4    0    0 -0.19401931554E+03  0.75891393602E+02 -0.61732540874E+02  0.23466051474E+03  0.88609548864E+02 0.  0.
          4    1    3    3  502    0 -0.13410778631E+03  0.25883630499E+03 -0.46853679761E+03  0.55182231003E+03  0.00000000000E+00 0. -1.
         -3    1    3    3    0  502  0.39856465208E+00  0.28082682145E+02 -0.15676016135E+02  0.32164162854E+02  0.00000000000E+00 0.  1.
         13    1    5    5    0    0  0.26956432041E+03 -0.32110223962E+03 -0.15675927344E+04  0.16226886799E+04  0.00000000000E+00 0.  1.
        -13    1    5    5    0    0  0.58164216789E+02 -0.41708141116E+02 -0.16776716962E+03  0.18239645926E+03  0.00000000000E+00 0. -1.
          3    1    6    6  503    0 -0.96027705481E+02  0.61713735584E+02 -0.72248608525E+02  0.13509169780E+03  0.00000000000E+00 0. -1.
         -3    1    6    6    0  503 -0.97991610057E+02  0.14177658018E+02  0.10516067651E+02  0.99568816942E+02  0.00000000000E+00 0.  1.
<mgrwt>
<rscale>  0 0.12960002E+04</rscale>
<asrwt>0</asrwt>
<pdfrwt beam="1">  1        2 0.37731056E+00 0.12960002E+04</pdfrwt>
<pdfrwt beam="2">  1       -1 0.26340529E-01 0.12960002E+04</pdfrwt>
<totfact> 0.53243299E+01</totfact>
</mgrwt>
</event>
<event>
12    7  0.1661464E-007  0.2488847E+04  0.7818608E-02  0.8406970E-01
          2   -1    0    0  501    0  0.00000000000E+00  0.00000000000E+00  0.21687025966E+04  0.21687025966E+04  0.00000000000E+00 0. -1.
         -1   -1    0    0    0  501 -0.00000000000E+00 -0.00000000000E+00 -0.71406269182E+03  0.71406269182E+03  0.00000000000E+00 0.  1.
         24    2    1    2    0    0  0.57443729548E+02  0.46298851052E+03  0.17623999496E+04  0.18248339710E+04  0.79418489942E+02 0.  0.
        254    2    1    2    0    0 -0.57443729548E+02 -0.46298851052E+03 -0.30776004484E+03  0.10579313174E+04  0.89824511360E+03 0.  0.
         23    2    4    4    0    0 -0.19758398113E+03  0.58655921482E+02  0.20804083506E+03  0.30601801491E+03  0.88803657994E+02 0.  0.
         23    2    4    4    0    0  0.14014025159E+03 -0.52164443200E+03 -0.51580087990E+03  0.75191330245E+03  0.87010707016E+02 0.  0.
          2    1    3    3  502    0 -0.28402141833E+01  0.17787669783E+03  0.55759729784E+03  0.58528876036E+03  0.00000000000E+00 0. -1.
         -3    1    3    3    0  502  0.60283943732E+02  0.28511181269E+03  0.12048026518E+04  0.12395452107E+04  0.00000000000E+00 0.  1.
         13    1    5    5    0    0 -0.16066977123E+03  0.66630908223E+02  0.12319452205E+03  0.21314629619E+03  0.00000000000E+00 0.  1.
        -13    1    5    5    0    0 -0.36914209904E+02 -0.79749867412E+01  0.84846313012E+02  0.92871718721E+02  0.00000000000E+00 0. -1.
          1    1    6    6  503    0  0.67172653898E+01 -0.83997255145E+02 -0.12183766597E+03  0.14813870991E+03  0.00000000000E+00 0. -1.
         -1    1    6    6    0  503  0.13342298620E+03 -0.43764717686E+03 -0.39396321394E+03  0.60377459254E+03  0.00000000000E+00 0.  1.
<mgrwt>
<rscale>  0 0.24888468E+04</rscale>
<asrwt>0</asrwt>
<pdfrwt beam="1">  1        2 0.33364655E+00 0.24888468E+04</pdfrwt>
<pdfrwt beam="2">  1       -1 0.10985580E+00 0.24888468E+04</pdfrwt>
<totfact> 0.41802828E+00</totfact>
</mgrwt>
</event>
<event>
12    7  0.1661464E-007  0.1334336E+04  0.7818608E-02  0.9002771E-01
         -1   -1    0    0    0  501 -0.00000000000E+00  0.00000000000E+00  0.15157027201E+03  0.15157027201E+03  0.00000000000E+00 0.  1.
          2   -1    0    0  501    0  0.00000000000E+00 -0.00000000000E+00 -0.29366799523E+04  0.29366799523E+04  0.00000000000E+00 0. -1.
         24    2    1    2    0    0 -0.22647524354E+03 -0.26734800491E+03 -0.78320093387E+03  0.86165707682E+03  0.79266787254E+02 0.  0.
        254    2    1    2    0    0  0.22647524354E+03  0.26734800491E+03 -0.20019087465E+04  0.22265931475E+04  0.90956716289E+03 0.  0.
         23    2    4    4    0    0 -0.32505138892E+03  0.19613698833E+03 -0.61123837912E+03  0.72589323667E+03  0.95814984782E+02 0.  0.
         23    2    4    4    0    0  0.55152663246E+03  0.71211016579E+02 -0.13906703673E+04  0.15006999109E+04  0.94252409311E+02 0.  0.
          4    1    3    3  502    0 -0.21578406783E+03 -0.21674253617E+03 -0.69664565398E+03  0.76082537952E+03  0.00000000000E+00 0. -1.
         -3    1    3    3    0  502 -0.10691175717E+02 -0.50605468740E+02 -0.86555279890E+02  0.10083169731E+03  0.00000000000E+00 0.  1.
         13    1    5    5    0    0 -0.20977948032E+03  0.12284524633E+03 -0.30097358601E+03  0.38688949893E+03  0.00000000000E+00 0. -1.
        -13    1    5    5    0    0 -0.11527190859E+03  0.73291742001E+02 -0.31026479311E+03  0.33900373774E+03  0.00000000000E+00 0.  1.
          3    1    6    6  503    0  0.52378298325E+03  0.69197428102E+02 -0.13613806765E+04  0.14603062158E+04  0.00000000000E+00 0. -1.
         -3    1    6    6    0  503  0.27743649211E+02  0.20135884777E+01 -0.29289690850E+02  0.40393695054E+02  0.00000000000E+00 0.  1.
<mgrwt>
<rscale>  0 0.13343364E+04</rscale>
<asrwt>0</asrwt>
<pdfrwt beam="1">  1        2 0.45179690E+00 0.13343364E+04</pdfrwt>
<pdfrwt beam="2">  1       -1 0.23318504E-01 0.13343364E+04</pdfrwt>
<totfact> 0.33834882E+01</totfact>
</mgrwt>
</event>
<event>
12    7  0.1661464E-007  0.1973903E+04  0.7818608E-02  0.8618920E-01
         -3   -1    0    0    0  501 -0.00000000000E+00  0.00000000000E+00  0.11267018403E+04  0.11267018403E+04  0.00000000000E+00 0.  1.
          2   -1    0    0  501    0  0.00000000000E+00 -0.00000000000E+00 -0.86453485991E+03  0.86453485991E+03  0.00000000000E+00 0. -1.
         24    2    1    2    0    0 -0.18806709600E+03 -0.72858200219E+03  0.31059791253E+03  0.81797988573E+03  0.80119059343E+02 0.  0.
        254    2    1    2    0    0  0.18806709600E+03  0.72858200219E+03 -0.48430932115E+02  0.11732568145E+04  0.89887987578E+03 0.  0.
         23    2    4    4    0    0  0.12203581835E+03  0.13766278237E+03  0.38196840496E+03  0.43366303109E+03  0.91213921844E+02 0.  0.
         23    2    4    4    0    0  0.66031277657E+02  0.59091921982E+03 -0.43039933707E+03  0.73959378342E+03  0.90607511449E+02 0.  0.
          2    1    3    3  502    0 -0.56704482246E+02 -0.36955178738E+03  0.16890951392E+03  0.41026131399E+03  0.00000000000E+00 0. -1.
         -1    1    3    3    0  502 -0.13136261376E+03 -0.35903021482E+03  0.14168839862E+03  0.40771857175E+03  0.00000000000E+00 0.  1.
         13    1    5    5    0    0  0.28804663445E+02  0.64190990668E+01  0.13970262634E+03  0.14278563399E+03  0.00000000000E+00 0. -1.
        -13    1    5    5    0    0  0.93231154902E+02  0.13124368330E+03  0.24226577862E+03  0.29087739710E+03  0.00000000000E+00 0.  1.
          1    1    6    6  503    0  0.88919248660E+02  0.48125287228E+03 -0.34718974068E+03  0.60004306170E+03  0.00000000000E+00 0. -1.
         -1    1    6    6    0  503 -0.22887971003E+02  0.10966634755E+03 -0.83209596394E+02  0.13955072172E+03  0.00000000000E+00 0.  1.
<mgrwt>
<rscale>  0 0.19739028E+04</rscale>
<asrwt>0</asrwt>
<pdfrwt beam="1">  1        2 0.13300536E+00 0.19739028E+04</pdfrwt>
<pdfrwt beam="2">  1       -3 0.17333875E+00 0.19739028E+04</pdfrwt>
<totfact> 0.39875785E+00</totfact>
</mgrwt>
</event>
<event>
12    7  0.1661464E-007  0.1475632E+04  0.7818608E-02  0.8900821E-01
          2   -1    0    0  501    0  0.00000000000E+00  0.00000000000E+00  0.70358670720E+03  0.70358670720E+03  0.00000000000E+00 0. -1.
         -1   -1    0    0    0  501 -0.00000000000E+00 -0.00000000000E+00 -0.77371079756E+03  0.77371079756E+03  0.00000000000E+00 0.  1.
         24    2    1    2    0    0  0.42621069850E+03  0.67185949205E+02 -0.16632508603E+03  0.46932598255E+03  0.80208056719E+02 0.  0.
        254    2    1    2    0    0 -0.42621069850E+03 -0.67185949205E+02  0.96200995664E+02  0.10079715222E+04  0.90586005913E+03 0.  0.
         23    2    4    4    0    0  0.11421893816E+03 -0.12509522940E+03 -0.28092355797E+03  0.34018110938E+03  0.90057534416E+02 0.  0.
         23    2    4    4    0    0 -0.54042963666E+03  0.57909280198E+02  0.37712455363E+03  0.66779041283E+03  0.91123156248E+02 0.  0.
          2    1    3    3  502    0  0.13897768888E+03 -0.11397974589E+02 -0.72126514263E+02  0.15699345812E+03  0.00000000000E+00 0. -1.
         -1    1    3    3    0  502  0.28723300962E+03  0.78583923794E+02 -0.94198571769E+02  0.31233252443E+03  0.00000000000E+00 0.  1.
         13    1    5    5    0    0  0.72547252578E+02 -0.12594733035E+03 -0.24633208337E+03  0.28601630928E+03  0.00000000000E+00 0. -1.
        -13    1    5    5    0    0  0.41671685579E+02  0.85210094203E+00 -0.34591474602E+02  0.54164800102E+02  0.00000000000E+00 0.  1.
          1    1    6    6  503    0 -0.42037806957E+03  0.26213631896E+02  0.32964959437E+03  0.53485860837E+03  0.00000000000E+00 0. -1.
         -1    1    6    6    0  503 -0.12005156709E+03  0.31695648303E+02  0.47474959259E+02  0.13293180446E+03  0.00000000000E+00 0.  1.
<mgrwt>
<rscale>  0 0.14756322E+04</rscale>
<asrwt>0</asrwt>
<pdfrwt beam="1">  1        2 0.10824411E+00 0.14756322E+04</pdfrwt>
<pdfrwt beam="2">  1       -1 0.11903243E+00 0.14756322E+04</pdfrwt>
<totfact> 0.28429001E+01</totfact>
</mgrwt>
</event>
<event>
12    7  0.1661464E-007  0.2193100E+04  0.7818608E-02  0.8521305E-01
          2   -1    0    0  501    0  0.00000000000E+00  0.00000000000E+00  0.33059182442E+04  0.33059182442E+04  0.00000000000E+00 0. -1.
         -1   -1    0    0    0  501 -0.00000000000E+00 -0.00000000000E+00 -0.36371801629E+03  0.36371801629E+03  0.00000000000E+00 0.  1.
         24    2    1    2    0    0  0.18637891392E+03  0.81935213792E+03  0.16666570162E+04  0.18682565051E+04  0.81004530126E+02 0.  0.
        254    2    1    2    0    0 -0.18637891392E+03 -0.81935213792E+03  0.12755432117E+04  0.18013797553E+04  0.95492591992E+03 0.  0.
         23    2    4    4    0    0 -0.49251623606E+03 -0.77447548441E+03  0.77354607104E+03  0.12036413275E+04  0.89411422236E+02 0.  0.
         23    2    4    4    0    0  0.30613732214E+03 -0.44876653502E+02  0.50199714067E+03  0.59773842787E+03  0.97755433977E+02 0.  0.
          4    1    3    3  502    0  0.93831838823E+02  0.40781927714E+03  0.91965615435E+03  0.10103902311E+04  0.00000000000E+00 0. -1.
         -3    1    3    3    0  502  0.92547075093E+02  0.41153286078E+03  0.74700086182E+03  0.85786627406E+03  0.00000000000E+00 0.  1.
         13    1    5    5    0    0 -0.36583392468E+02 -0.10876110349E+03  0.11018075378E+03  0.15908211949E+03  0.00000000000E+00 0.  1.
        -13    1    5    5    0    0 -0.45593284359E+03 -0.66571438093E+03  0.66336531726E+03  0.10445592080E+04  0.00000000000E+00 0. -1.
          3    1    6    6  503    0  0.26585107778E+03 -0.68334914776E+02  0.45603268777E+03  0.53227086004E+03  0.00000000000E+00 0. -1.
         -3    1    6    6    0  503  0.40286244362E+02  0.23458261274E+02  0.45964452898E+02  0.65467567826E+02  0.00000000000E+00 0.  1.
<mgrwt>
<rscale>  0 0.21931001E+04</rscale>
<asrwt>0</asrwt>
<pdfrwt beam="1">  1        2 0.50860279E+00 0.21931001E+04</pdfrwt>
<pdfrwt beam="2">  1       -1 0.55956620E-01 0.21931001E+04</pdfrwt>
<totfact> 0.37203424E+00</totfact>
</mgrwt>
</event>
<event>
12    7  0.1661464E-007  0.2009311E+04  0.7818608E-02  0.8602280E-01
          2   -1    0    0  501    0  0.00000000000E+00  0.00000000000E+00  0.13533125244E+04  0.13533125244E+04  0.00000000000E+00 0. -1.
         -1   -1    0    0    0  501 -0.00000000000E+00 -0.00000000000E+00 -0.74582412827E+03  0.74582412827E+03  0.00000000000E+00 0.  1.
         24    2    1    2    0    0 -0.15818867310E+03 -0.69131323782E+03 -0.14589006917E+03  0.72836313731E+03  0.79317705632E+02 0.  0.
        254    2    1    2    0    0  0.15818867310E+03  0.69131323782E+03  0.75337846527E+03  0.13707735153E+04  0.89916809848E+03 0.  0.
         23    2    4    4    0    0  0.25004631072E+03  0.29603527762E+02 -0.96988915378E+02  0.28485165160E+03  0.91291222755E+02 0.  0.
         23    2    4    4    0    0 -0.91857637616E+02  0.66170971006E+03  0.85036738065E+03  0.10859218637E+04  0.99015383130E+02 0.  0.
          2    1    3    3  502    0  0.41422390049E+01 -0.98457766924E+02 -0.12007264571E+02  0.99273684399E+02  0.00000000000E+00 0. -1.
         -1    1    3    3    0  502 -0.16233091211E+03 -0.59285547090E+03 -0.13388280460E+03  0.62908945291E+03  0.00000000000E+00 0.  1.
         13    1    5    5    0    0  0.22352317726E+03  0.39052073994E+02 -0.53642386755E+02  0.23316342104E+03  0.00000000000E+00 0.  1.
        -13    1    5    5    0    0  0.26523133460E+02 -0.94485462316E+01 -0.43346528623E+02  0.51688230557E+02  0.00000000000E+00 0. -1.
          2    1    6    6  503    0  0.26414512141E+01  0.14215670590E+03  0.12943791610E+03  0.19227501247E+03  0.00000000000E+00 0. -1.
         -2    1    6    6    0  503 -0.94499088830E+02  0.51955300416E+03  0.72092946455E+03  0.89364685126E+03  0.00000000000E+00 0.  1.
<mgrwt>
<rscale>  0 0.20093115E+04</rscale>
<asrwt>0</asrwt>
<pdfrwt beam="1">  1        2 0.20820193E+00 0.20093115E+04</pdfrwt>
<pdfrwt beam="2">  1       -1 0.11474217E+00 0.20093115E+04</pdfrwt>
<totfact> 0.11241328E+01</totfact>
</mgrwt>
</event>
<event>
12    7  0.1661464E-007  0.1655596E+04  0.7818608E-02  0.8787103E-01
         -1   -1    0    0    0  501 -0.00000000000E+00  0.00000000000E+00  0.33188754603E+03  0.33188754603E+03  0.00000000000E+00 0.  1.
          2   -1    0    0  501    0  0.00000000000E+00 -0.00000000000E+00 -0.20647042365E+04  0.20647042365E+04  0.00000000000E+00 0. -1.
         24    2    1    2    0    0  0.35455873996E+02 -0.43728013774E+03 -0.11519520406E+04  0.12352414680E+04  0.79730436323E+02 0.  0.
        254    2    1    2    0    0 -0.35455873996E+02  0.43728013774E+03 -0.58086464992E+03  0.11613503146E+04  0.90490871022E+03 0.  0.
         23    2    4    4    0    0  0.38037758371E+03  0.92611019233E+02 -0.43989632600E+03  0.59580503992E+03  0.90614352571E+02 0.  0.
         23    2    4    4    0    0 -0.41583345770E+03  0.34466911851E+03 -0.14096832392E+03  0.56554527468E+03  0.90857710582E+02 0.  0.
          4    1    3    3  502    0  0.29610796774E+02 -0.33901534334E+03 -0.79079555542E+03  0.86090987495E+03  0.00000000000E+00 0. -1.
         -3    1    3    3    0  502  0.58450772220E+01 -0.98264794405E+02 -0.36115648518E+03  0.37433159302E+03  0.00000000000E+00 0.  1.
         13    1    5    5    0    0  0.10117301698E+02  0.22695776378E+02 -0.31782221657E+02  0.40343124228E+02  0.00000000000E+00 0. -1.
        -13    1    5    5    0    0  0.37026028201E+03  0.69915242856E+02 -0.40811410435E+03  0.55546191569E+03  0.00000000000E+00 0.  1.
          1    1    6    6  503    0 -0.68687506678E+02  0.64858057326E+02  0.95459819168E+01  0.94950865949E+02  0.00000000000E+00 0. -1.
         -1    1    6    6    0  503 -0.34714595102E+03  0.27981106118E+03 -0.15051430583E+03  0.47059440874E+03  0.00000000000E+00 0.  1.
<mgrwt>
<rscale>  0 0.16555961E+04</rscale>
<asrwt>0</asrwt>
<pdfrwt beam="1">  1        2 0.31764681E+00 0.16555961E+04</pdfrwt>
<pdfrwt beam="2">  1       -1 0.51059622E-01 0.16555961E+04</pdfrwt>
<totfact> 0.25793621E+01</totfact>
</mgrwt>
</event>
<event>
12    7  0.1661464E-007  0.1124037E+04  0.7818608E-02  0.9182075E-01
         -1   -1    0    0    0  501 -0.00000000000E+00  0.00000000000E+00  0.24044132400E+03  0.24044132400E+03  0.00000000000E+00 0.  1.
          2   -1    0    0  501    0  0.00000000000E+00 -0.00000000000E+00 -0.13136877406E+04  0.13136877406E+04  0.00000000000E+00 0. -1.
         24    2    1    2    0    0 -0.54074828760E+02 -0.17518168366E+03 -0.25911321226E+03  0.32734282926E+03  0.80006010441E+02 0.  0.
        254    2    1    2    0    0  0.54074828760E+02  0.17518168366E+03 -0.81413320438E+03  0.12267862354E+04  0.89921014421E+03 0.  0.
         23    2    4    4    0    0  0.36739478204E+03  0.30145937580E+03 -0.71670679577E+03  0.86487637418E+03  0.92118566954E+02 0.  0.
         23    2    4    4    0    0 -0.31331995328E+03 -0.12627769215E+03 -0.97426408610E+02  0.36190986120E+03  0.85856821974E+02 0.  0.
          4    1    3    3  502    0  0.63159010122E+01 -0.74387667599E+02 -0.14732424726E+03  0.16516007244E+03  0.00000000000E+00 0. -1.
         -3    1    3    3    0  502 -0.60390729772E+02 -0.10079401606E+03 -0.11178896500E+03  0.16218275683E+03  0.00000000000E+00 0.  1.
         13    1    5    5    0    0  0.50629897449E+02  0.87357629036E+02 -0.17045196654E+03  0.19811263151E+03  0.00000000000E+00 0. -1.
        -13    1    5    5    0    0  0.31676488460E+03  0.21410174677E+03 -0.54625482923E+03  0.66676374267E+03  0.00000000000E+00 0.  1.
          4    1    6    6  503    0 -0.11961188168E+03 -0.94072537353E+02 -0.41206216419E+02  0.15765340718E+03  0.00000000000E+00 0. -1.
         -4    1    6    6    0  503 -0.19370807161E+03 -0.32205154793E+02 -0.56220192191E+02  0.20425645402E+03  0.00000000000E+00 0.  1.
<mgrwt>
<rscale>  0 0.11240370E+04</rscale>
<asrwt>0</asrwt>
<pdfrwt beam="1">  1        2 0.20210580E+00 0.11240370E+04</pdfrwt>
<pdfrwt beam="2">  1       -1 0.36990974E-01 0.11240370E+04</pdfrwt>
<totfact> 0.12869298E+02</totfact>
</mgrwt>
</event>
<event>
12    7  0.1661464E-007  0.1340517E+04  0.7818608E-02  0.8998038E-01
         -1   -1    0    0    0  501 -0.00000000000E+00  0.00000000000E+00  0.10698202949E+04  0.10698202949E+04  0.00000000000E+00 0.  1.
          2   -1    0    0  501    0  0.00000000000E+00 -0.00000000000E+00 -0.41992692785E+03  0.41992692785E+03  0.00000000000E+00 0. -1.
         24    2    1    2    0    0 -0.66355950642E+02 -0.22420638990E+03  0.46553903116E+03  0.52702245616E+03  0.79714881338E+02 0.  0.
        254    2    1    2    0    0  0.66355950642E+02  0.22420638990E+03  0.18435433585E+03  0.96272476654E+03  0.91552216658E+03 0.  0.
         23    2    4    4    0    0  0.15981362434E+03  0.53957736183E+03  0.23654987482E+03  0.61710674054E+03  0.90447565010E+02 0.  0.
         23    2    4    4    0    0 -0.93457673697E+02 -0.31537097193E+03 -0.52195538974E+02  0.34561802600E+03  0.92381052713E+02 0.  0.
          4    1    3    3  502    0 -0.23213082279E+02 -0.47914925962E+02  0.18811730737E+03  0.19550654375E+03  0.00000000000E+00 0. -1.
         -3    1    3    3    0  502 -0.43142868363E+02 -0.17629146394E+03  0.27742172379E+03  0.33151591241E+03  0.00000000000E+00 0.  1.
         13    1    5    5    0    0  0.14671800117E+03  0.53367853460E+03  0.23837402561E+03  0.60262851430E+03  0.00000000000E+00 0. -1.
        -13    1    5    5    0    0  0.13095623170E+02  0.58988272258E+01 -0.18241507886E+01  0.14478226237E+02  0.00000000000E+00 0.  1.
          4    1    6    6  503    0  0.59054619741E+01  0.39138689527E+01 -0.27201777796E+01  0.75889537130E+01  0.00000000000E+00 0.  1.
         -4    1    6    6    0  503 -0.99363135671E+02 -0.31928484088E+03 -0.49475361194E+02  0.33802907229E+03  0.00000000000E+00 0. -1.
<mgrwt>
<rscale>  0 0.13405168E+04</rscale>
<asrwt>0</asrwt>
<pdfrwt beam="1">  1        2 0.64604143E-01 0.13405168E+04</pdfrwt>
<pdfrwt beam="2">  1       -1 0.16458774E+00 0.13405168E+04</pdfrwt>
<totfact> 0.22714155E+01</totfact>
</mgrwt>
</event>
<event>
12    7  0.1661464E-007  0.1865822E+04  0.7818608E-02  0.8672059E-01
         -1   -1    0    0    0  501 -0.00000000000E+00  0.00000000000E+00  0.28262712985E+03  0.28262712985E+03  0.00000000000E+00 0.  1.
          2   -1    0    0  501    0  0.00000000000E+00 -0.00000000000E+00 -0.30794025894E+04  0.30794025894E+04  0.00000000000E+00 0. -1.
         24    2    1    2    0    0  0.28571184345E+03  0.23708396365E+03  0.20383874141E+02  0.37988668186E+03  0.77835245387E+02 0.  0.
        254    2    1    2    0    0 -0.28571184345E+03 -0.23708396365E+03 -0.28171593337E+04  0.29821430374E+04  0.90495873981E+03 0.  0.
         23    2    4    4    0    0 -0.46908404727E+03  0.12629399380E+03 -0.96557325349E+03  0.10842194295E+04  0.84911996089E+02 0.  0.
         23    2    4    4    0    0  0.18337220382E+03 -0.36337795745E+03 -0.18515860802E+04  0.18979236079E+04  0.89856018615E+02 0.  0.
          2    1    3    3  502    0  0.59340317128E+02  0.13697487853E+02  0.97402770614E+01  0.61674690170E+02  0.00000000000E+00 0. -1.
         -1    1    3    3    0  502  0.22637152632E+03  0.22338647580E+03  0.10643597080E+02  0.31821199169E+03  0.00000000000E+00 0.  1.
         13    1    5    5    0    0 -0.21673803539E+03  0.76196641400E+02 -0.54132145186E+03  0.58805630546E+03  0.00000000000E+00 0.  1.
        -13    1    5    5    0    0 -0.25234601187E+03  0.50097352402E+02 -0.42425180164E+03  0.49616312400E+03  0.00000000000E+00 0. -1.
          3    1    6    6  503    0  0.10284249245E+02 -0.76168383429E+02 -0.46875882932E+03  0.47501813490E+03  0.00000000000E+00 0. -1.
         -3    1    6    6    0  503  0.17308795457E+03 -0.28720957402E+03 -0.13828272508E+04  0.14229054730E+04  0.00000000000E+00 0.  1.
<mgrwt>
<rscale>  0 0.18658218E+04</rscale>
<asrwt>0</asrwt>
<pdfrwt beam="1">  1        2 0.47375425E+00 0.18658218E+04</pdfrwt>
<pdfrwt beam="2">  1       -1 0.43481097E-01 0.18658218E+04</pdfrwt>
<totfact> 0.86915024E+00</totfact>
</mgrwt>
</event>
<event>
12    7  0.1661464E-007  0.1163545E+04  0.7818608E-02  0.9145378E-01
          2   -1    0    0  501    0  0.00000000000E+00  0.00000000000E+00  0.56351121063E+03  0.56351121063E+03  0.00000000000E+00 0. -1.
         -1   -1    0    0    0  501 -0.00000000000E+00 -0.00000000000E+00 -0.60062594149E+03  0.60062594149E+03  0.00000000000E+00 0.  1.
         24    2    1    2    0    0 -0.18559732914E+03 -0.50732610033E+02 -0.99943203973E+02  0.23076446763E+03  0.79015373157E+02 0.  0.
        254    2    1    2    0    0  0.18559732914E+03  0.50732610033E+02  0.62828473109E+02  0.93337268449E+03  0.91116243602E+03 0.  0.
         23    2    4    4    0    0 -0.14223993304E+02  0.45894277729E+03  0.14196233167E+02  0.46783935160E+03  0.88551290529E+02 0.  0.
         23    2    4    4    0    0  0.19982132245E+03 -0.40821016726E+03  0.48632239943E+02  0.46553333289E+03  0.88272802769E+02 0.  0.
          4    1    3    3  502    0 -0.64715258811E+02 -0.19713564217E+02 -0.79356924675E+02  0.10427948423E+03  0.00000000000E+00 0. -1.
         -3    1    3    3    0  502 -0.12088207033E+03 -0.31019045816E+02 -0.20586279298E+02  0.12648498340E+03  0.00000000000E+00 0.  1.
         13    1    5    5    0    0  0.15531754713E+02  0.14986866979E+02  0.74605436011E+01  0.22836402894E+02  0.00000000000E+00 0. -1.
        -13    1    5    5    0    0 -0.29755748017E+02  0.44395591031E+03  0.67356895658E+01  0.44500294871E+03  0.00000000000E+00 0.  1.
          3    1    6    6  503    0  0.61799095303E+02 -0.22661935576E+03  0.25135574436E+02  0.23623559784E+03  0.00000000000E+00 0. -1.
         -3    1    6    6    0  503  0.13802222714E+03 -0.18159081150E+03  0.23496665506E+02  0.22929773504E+03  0.00000000000E+00 0.  1.
<mgrwt>
<rscale>  0 0.11635454E+04</rscale>
<asrwt>0</asrwt>
<pdfrwt beam="1">  1        2 0.86694033E-01 0.11635454E+04</pdfrwt>
<pdfrwt beam="2">  1       -1 0.92403991E-01 0.11635454E+04</pdfrwt>
<totfact> 0.68929746E+01</totfact>
</mgrwt>
</event>
<event>
12    7  0.2889788E-007  0.1758777E+04  0.7818608E-02  0.8728534E-01
          2   -1    0    0  501    0  0.00000000000E+00  0.00000000000E+00  0.16670646200E+04  0.16670646200E+04  0.00000000000E+00 0. -1.
         -1   -1    0    0    0  501 -0.00000000000E+00 -0.00000000000E+00 -0.46388397737E+03  0.46388397737E+03  0.00000000000E+00 0.  1.
         24    2    1    2    0    0 -0.13667344504E+03  0.15936948214E+03  0.11604876087E+04  0.11820315558E+04  0.79930261156E+02 0.  0.
        254    2    1    2    0    0  0.13667344504E+03 -0.15936948214E+03  0.42693033940E+02  0.94891704154E+03  0.92441473061E+03 0.  0.
         23    2    4    4    0    0 -0.20514616871E+03  0.29535940416E+03  0.14575323550E+02  0.37144161369E+03  0.91838467743E+02 0.  0.
         23    2    4    4    0    0  0.34181961375E+03 -0.45472888630E+03  0.28117710390E+02  0.57747542785E+03  0.95227389707E+02 0.  0.
          2    1    3    3  502    0 -0.14288385471E+03  0.16208698853E+03  0.11436078272E+04  0.11638414197E+04  0.00000000000E+00 0. -1.
         -1    1    3    3    0  502  0.62104096666E+01 -0.27175063927E+01  0.16879781470E+02  0.18190136110E+02  0.00000000000E+00 0.  1.
         13    1    5    5    0    0 -0.45671515204E+01 -0.29053896864E+01  0.10693236273E+02  0.11985218572E+02  0.00000000000E+00 0.  1.
        -13    1    5    5    0    0 -0.20057901719E+03  0.29826479385E+03  0.38820872770E+01  0.35945639512E+03  0.00000000000E+00 0. -1.
          2    1    6    6  503    0  0.31078007850E+03 -0.42970857918E+03  0.48811916965E+02  0.53255640401E+03  0.00000000000E+00 0. -1.
         -2    1    6    6    0  503  0.31039535252E+02 -0.25020307123E+02 -0.20694206574E+02  0.44919023842E+02  0.00000000000E+00 0.  1.
<mgrwt>
<rscale>  0 0.17587775E+04</rscale>
<asrwt>0</asrwt>
<pdfrwt beam="1">  1        2 0.25647148E+00 0.17587775E+04</pdfrwt>
<pdfrwt beam="2">  1       -1 0.71366767E-01 0.17587775E+04</pdfrwt>
<totfact> 0.21882981E+01</totfact>
</mgrwt>
</event>
<event>
12    7  0.1661464E-007  0.1545355E+04  0.7818608E-02  0.8854840E-01
         -1   -1    0    0    0  501 -0.00000000000E+00  0.00000000000E+00  0.55828894611E+03  0.55828894611E+03  0.00000000000E+00 0.  1.
          2   -1    0    0  501    0  0.00000000000E+00 -0.00000000000E+00 -0.10693939194E+04  0.10693939194E+04  0.00000000000E+00 0. -1.
         24    2    1    2    0    0 -0.47572318970E+03 -0.60334586755E+02  0.19320858884E+01  0.48618792148E+03  0.80138295813E+02 0.  0.
        254    2    1    2    0    0  0.47572318970E+03  0.60334586755E+02 -0.51303705921E+03  0.11414949441E+04  0.89991714486E+03 0.  0.
         23    2    4    4    0    0  0.12963658031E+03  0.30645926348E+03  0.12683451667E+03  0.36744533753E+03  0.90587848661E+02 0.  0.
         23    2    4    4    0    0  0.34608660939E+03 -0.24612467673E+03 -0.63987157588E+03  0.77404960654E+03  0.96767050538E+02 0.  0.
          4    1    3    3  502    0 -0.44936273673E+03 -0.36985067166E+02  0.41798217146E+01  0.45090158046E+03  0.00000000000E+00 0. -1.
         -3    1    3    3    0  502 -0.26360452977E+02 -0.23349519589E+02 -0.22477358263E+01  0.35286341019E+02  0.00000000000E+00 0.  1.
         13    1    5    5    0    0  0.87756765244E+02  0.25661748785E+03  0.13297936044E+03  0.30205511950E+03  0.00000000000E+00 0.  1.
        -13    1    5    5    0    0  0.41879815071E+02  0.49841775631E+02 -0.61448437708E+01  0.65390218025E+02  0.00000000000E+00 0. -1.
          3    1    6    6  503    0  0.79575772880E+02 -0.14841781771E+02 -0.93972207410E+02  0.12402966533E+03  0.00000000000E+00 0. -1.
         -3    1    6    6    0  503  0.26651083651E+03 -0.23128289496E+03 -0.54589936847E+03  0.65001994121E+03  0.00000000000E+00 0.  1.
<mgrwt>
<rscale>  0 0.15453554E+04</rscale>
<asrwt>0</asrwt>
<pdfrwt beam="1">  1        2 0.16452214E+00 0.15453554E+04</pdfrwt>
<pdfrwt beam="2">  1       -1 0.85890607E-01 0.15453554E+04</pdfrwt>
<totfact> 0.33467501E+01</totfact>
</mgrwt>
</event>
<event>
12    7  0.1661464E-007  0.2288296E+04  0.7818608E-02  0.8482550E-01
          2   -1    0    0  501    0  0.00000000000E+00  0.00000000000E+00  0.22985710226E+04  0.22985710226E+04  0.00000000000E+00 0. -1.
         -1   -1    0    0    0  501 -0.00000000000E+00 -0.00000000000E+00 -0.56951682363E+03  0.56951682363E+03  0.00000000000E+00 0.  1.
         24    2    1    2    0    0 -0.24335989706E+03 -0.54902945526E+03 -0.21005672195E+03  0.64140018448E+03  0.81320280210E+02 0.  0.
        254    2    1    2    0    0  0.24335989706E+03  0.54902945526E+03  0.19391109209E+04  0.22266876618E+04  0.91505704584E+03 0.  0.
         23    2    4    4    0    0 -0.33503555647E+03  0.25881732962E+03  0.90887553856E+03  0.10064278595E+04  0.87218447919E+02 0.  0.
         23    2    4    4    0    0  0.57839545354E+03  0.29021212564E+03  0.10302353824E+04  0.12202598022E+04  0.94258491868E+02 0.  0.
          4    1    3    3  502    0 -0.65939458029E+02 -0.12348775005E+03 -0.84685081244E+02  0.16361173406E+03  0.00000000000E+00 0. -1.
         -3    1    3    3    0  502 -0.17742043903E+03 -0.42554170521E+03 -0.12537164070E+03  0.47778845042E+03  0.00000000000E+00 0.  1.
         13    1    5    5    0    0 -0.27994019129E+03  0.18699075300E+03  0.77339104121E+03  0.84348429447E+03  0.00000000000E+00 0. -1.
        -13    1    5    5    0    0 -0.55095365188E+02  0.71826576624E+02  0.13548449735E+03  0.16294356507E+03  0.00000000000E+00 0.  1.
          3    1    6    6  503    0  0.57809933633E+03  0.29083134695E+03  0.10069670668E+04  0.11969813652E+04  0.00000000000E+00 0. -1.
         -3    1    6    6    0  503  0.29611720371E+00 -0.61922130970E+00  0.23268315549E+02  0.23278436995E+02  0.00000000000E+00 0.  1.
<mgrwt>
<rscale>  0 0.22882962E+04</rscale>
<asrwt>0</asrwt>
<pdfrwt beam="1">  1        2 0.35362630E+00 0.22882962E+04</pdfrwt>
<pdfrwt beam="2">  1       -1 0.87617974E-01 0.22882962E+04</pdfrwt>
<totfact> 0.60093167E+00</totfact>
</mgrwt>
</event>
<event>
12    7  0.1661464E-007  0.1566642E+04  0.7818608E-02  0.8841308E-01
          2   -1    0    0  501    0  0.00000000000E+00  0.00000000000E+00  0.29803751862E+04  0.29803751862E+04  0.00000000000E+00 0. -1.
         -1   -1    0    0    0  501 -0.00000000000E+00 -0.00000000000E+00 -0.20587726583E+03  0.20587726583E+03  0.00000000000E+00 0.  1.
         24    2    1    2    0    0 -0.48852192136E+03 -0.99316501452E+02  0.12527537550E+04  0.13508053850E+04  0.82254376227E+02 0.  0.
        254    2    1    2    0    0  0.48852192136E+03  0.99316501452E+02  0.15217441653E+04  0.18354470670E+04  0.89701906103E+03 0.  0.
         23    2    4    4    0    0  0.91484682298E+02  0.34195537837E+03  0.17042788337E+03  0.40292634137E+03  0.89448562012E+02 0.  0.
         23    2    4    4    0    0  0.39703723906E+03 -0.24263887692E+03  0.13513162819E+04  0.14325207256E+04  0.97712545872E+02 0.  0.
          2    1    3    3  502    0 -0.40418454239E+02 -0.33182407772E+02  0.13121824018E+03  0.14125491207E+03  0.00000000000E+00 0. -1.
         -1    1    3    3    0  502 -0.44810346712E+03 -0.66134093680E+02  0.11215355148E+04  0.12095504730E+04  0.00000000000E+00 0.  1.
         13    1    5    5    0    0  0.38546300376E+02  0.36291530534E+02  0.40249832721E+02  0.66505199009E+02  0.00000000000E+00 0. -1.
        -13    1    5    5    0    0  0.52938381922E+02  0.30566384784E+03  0.13017805065E+03  0.33642114236E+03  0.00000000000E+00 0.  1.
          1    1    6    6  503    0  0.61488026949E+02 -0.73805905516E+02  0.35428294608E+03  0.36707559852E+03  0.00000000000E+00 0. -1.
         -1    1    6    6    0  503  0.33554921211E+03 -0.16883297140E+03  0.99703333587E+03  0.10654451271E+04  0.00000000000E+00 0.  1.
<mgrwt>
<rscale>  0 0.15666416E+04</rscale>
<asrwt>0</asrwt>
<pdfrwt beam="1">  1        2 0.45851923E+00 0.15666416E+04</pdfrwt>
<pdfrwt beam="2">  1       -1 0.31673428E-01 0.15666416E+04</pdfrwt>
<totfact> 0.18293223E+01</totfact>
</mgrwt>
</event>
<event>
12    7  0.1661464E-007  0.1078756E+04  0.7818608E-02  0.9226148E-01
         -1   -1    0    0    0  501 -0.00000000000E+00  0.00000000000E+00  0.14801496529E+03  0.14801496529E+03  0.00000000000E+00 0.  1.
          2   -1    0    0  501    0  0.00000000000E+00 -0.00000000000E+00 -0.19655366772E+04  0.19655366772E+04  0.00000000000E+00 0. -1.
         24    2    1    2    0    0 -0.51820253247E+02 -0.10531271144E+03 -0.44365421952E+03  0.46594687173E+03  0.80630731996E+02 0.  0.
        254    2    1    2    0    0  0.51820253247E+02  0.10531271144E+03 -0.13738674923E+04  0.16476047707E+04  0.90183894799E+03 0.  0.
         23    2    4    4    0    0  0.37158389929E+03 -0.81939372177E+02 -0.11264532305E+04  0.11920134849E+04  0.84915327178E+02 0.  0.
         23    2    4    4    0    0 -0.31976364605E+03  0.18725208362E+03 -0.24741426182E+03  0.45559128578E+03  0.95065611925E+02 0.  0.
          2    1    3    3  502    0 -0.58475061510E+02 -0.11438271824E+03 -0.42655141352E+03  0.44547597851E+03  0.00000000000E+00 0. -1.
         -1    1    3    3    0  502  0.66548082631E+01  0.90700068007E+01 -0.17102805999E+02  0.20470893225E+02  0.00000000000E+00 0.  1.
         13    1    5    5    0    0  0.27131099533E+03 -0.24667315885E+02 -0.73412556075E+03  0.78304436120E+03  0.00000000000E+00 0. -1.
        -13    1    5    5    0    0  0.10027290396E+03 -0.57272056293E+02 -0.39232766977E+03  0.40896912374E+03  0.00000000000E+00 0.  1.
          4    1    6    6  503    0 -0.15383583717E+03  0.76772155761E+02 -0.60324954684E+02  0.18220463456E+03  0.00000000000E+00 0. -1.
         -4    1    6    6    0  503 -0.16592780888E+03  0.11047992786E+03 -0.18708930714E+03  0.27338665122E+03  0.00000000000E+00 0.  1.
<mgrwt>
<rscale>  0 0.10787564E+04</rscale>
<asrwt>0</asrwt>
<pdfrwt beam="1">  1        2 0.30239025E+00 0.10787564E+04</pdfrwt>
<pdfrwt beam="2">  1       -1 0.22771534E-01 0.10787564E+04</pdfrwt>
<totfact> 0.13019560E+02</totfact>
</mgrwt>
</event>
<event>
12    7  0.1661464E-007  0.2762500E+04  0.7818608E-02  0.8315006E-01
          2   -1    0    0  501    0  0.00000000000E+00  0.00000000000E+00  0.16326968725E+04  0.16326968725E+04  0.00000000000E+00 0. -1.
         -1   -1    0    0    0  501 -0.00000000000E+00 -0.00000000000E+00 -0.11685277091E+04  0.11685277091E+04  0.00000000000E+00 0.  1.
         24    2    1    2    0    0 -0.61320171932E+03 -0.10080949038E+04  0.56841146065E+03  0.13120668552E+04  0.78461202836E+02 0.  0.
        254    2    1    2    0    0  0.61320171932E+03  0.10080949038E+04 -0.10424229725E+03  0.14891577263E+04  0.90247027305E+03 0.  0.
         23    2    4    4    0    0 -0.15562127978E+03  0.42322015208E+03  0.15507018956E+03  0.48552396050E+03  0.91397334138E+02 0.  0.
         23    2    4    4    0    0  0.76882299911E+03  0.58487475170E+03 -0.25931248681E+03  0.10036337658E+04  0.82888424714E+02 0.  0.
          2    1    3    3  502    0 -0.81182142376E+02 -0.19033751276E+03  0.10337205326E+03  0.23131080909E+03  0.00000000000E+00 0. -1.
         -1    1    3    3    0  502 -0.53201957695E+03 -0.81775739102E+03  0.46503940740E+03  0.10807560461E+04  0.00000000000E+00 0.  1.
         13    1    5    5    0    0 -0.44428376352E+02  0.38381171813E+02  0.10432340295E+02  0.59630769734E+02  0.00000000000E+00 0. -1.
        -13    1    5    5    0    0 -0.11119290343E+03  0.38483898026E+03  0.14463784926E+03  0.42589319077E+03  0.00000000000E+00 0.  1.
          3    1    6    6  503    0  0.24948008703E+03  0.16150770491E+03 -0.47904226389E+02  0.30103133969E+03  0.00000000000E+00 0. -1.
         -3    1    6    6    0  503  0.51934291208E+03  0.42336704680E+03 -0.21140826042E+03  0.70260242614E+03  0.00000000000E+00 0.  1.
<mgrwt>
<rscale>  0 0.27625000E+04</rscale>
<asrwt>0</asrwt>
<pdfrwt beam="1">  1        2 0.25118413E+00 0.27625000E+04</pdfrwt>
<pdfrwt beam="2">  1       -1 0.17977349E+00 0.27625000E+04</pdfrwt>
<totfact> 0.22195361E+00</totfact>
</mgrwt>
</event>
<event>
12    7  0.1661464E-007  0.1776257E+04  0.7818608E-02  0.8719029E-01
          2   -1    0    0  501    0  0.00000000000E+00  0.00000000000E+00  0.20614913004E+04  0.20614913004E+04  0.00000000000E+00 0. -1.
         -1   -1    0    0    0  501 -0.00000000000E+00 -0.00000000000E+00 -0.38262195390E+03  0.38262195390E+03  0.00000000000E+00 0.  1.
         24    2    1    2    0    0 -0.44963595927E+03 -0.19171886041E+03  0.12408702009E+04  0.13360415304E+04  0.79495271005E+02 0.  0.
        254    2    1    2    0    0  0.44963595927E+03  0.19171886041E+03  0.43799914554E+03  0.11080717239E+04  0.89277717065E+03 0.  0.
         23    2    4    4    0    0  0.11970072765E+03  0.50987677503E+03  0.12674933414E+03  0.54675967420E+03  0.92618344358E+02 0.  0.
         23    2    4    4    0    0  0.32993523162E+03 -0.31815791462E+03  0.31124981140E+03  0.56131204967E+03  0.90072505860E+02 0.  0.
          4    1    3    3  502    0 -0.35472873582E+03 -0.11696614307E+03  0.90185603732E+03  0.97614438824E+03  0.00000000000E+00 0. -1.
         -3    1    3    3    0  502 -0.94907223456E+02 -0.74752717345E+02  0.33901416360E+03  0.35989714216E+03  0.00000000000E+00 0.  1.
         13    1    5    5    0    0  0.12159451812E+03  0.49169946826E+03  0.10314393664E+03  0.51690643795E+03  0.00000000000E+00 0. -1.
        -13    1    5    5    0    0 -0.18937904692E+01  0.18177306770E+02  0.23605397500E+02  0.29853236255E+02  0.00000000000E+00 0.  1.
          1    1    6    6  503    0  0.20626240136E+03 -0.24887262305E+03  0.24041456977E+03  0.40284106801E+03  0.00000000000E+00 0. -1.
         -1    1    6    6    0  503  0.12367283026E+03 -0.69285291570E+02  0.70835241634E+02  0.15847098166E+03  0.00000000000E+00 0.  1.
<mgrwt>
<rscale>  0 0.17762565E+04</rscale>
<asrwt>0</asrwt>
<pdfrwt beam="1">  1        2 0.31715250E+00 0.17762565E+04</pdfrwt>
<pdfrwt beam="2">  1       -1 0.58864917E-01 0.17762565E+04</pdfrwt>
<totfact> 0.19455256E+01</totfact>
</mgrwt>
</event>
<event>
12    7  0.1661464E-007  0.1571492E+04  0.7818608E-02  0.8838256E-01
          2   -1    0    0  501    0  0.00000000000E+00  0.00000000000E+00  0.71288229282E+03  0.71288229282E+03  0.00000000000E+00 0. -1.
         -1   -1    0    0    0  501 -0.00000000000E+00 -0.00000000000E+00 -0.86605681807E+03  0.86605681807E+03  0.00000000000E+00 0.  1.
         24    2    1    2    0    0  0.19635548663E+02  0.43589177166E+03 -0.33811186376E+03  0.55815818759E+03  0.82666429646E+02 0.  0.
        254    2    1    2    0    0 -0.19635548663E+02 -0.43589177166E+03  0.18493733851E+03  0.10207809233E+04  0.90410435395E+03 0.  0.
         23    2    4    4    0    0 -0.23964689987E+03  0.16161045497E+03  0.22436609255E+03  0.37684814772E+03  0.90143259204E+02 0.  0.
         23    2    4    4    0    0  0.22001135121E+03 -0.59750222663E+03 -0.39428754041E+02  0.64393277558E+03  0.87640671729E+02 0.  0.
          2    1    3    3  502    0  0.14952792442E+02  0.21779628603E+02 -0.54920966595E+01  0.26983353194E+02  0.00000000000E+00 0. -1.
         -1    1    3    3    0  502  0.46827562204E+01  0.41411214306E+03 -0.33261976710E+03  0.53117483440E+03  0.00000000000E+00 0.  1.
         13    1    5    5    0    0 -0.90636316246E+02  0.10626157078E+03  0.74090583989E+02  0.15810084720E+03  0.00000000000E+00 0.  1.
        -13    1    5    5    0    0 -0.14901058362E+03  0.55348884181E+02  0.15027550856E+03  0.21874730052E+03  0.00000000000E+00 0. -1.
          1    1    6    6  503    0  0.11839199991E+03 -0.34020904296E+03 -0.65301370999E+02  0.36609169289E+03  0.00000000000E+00 0. -1.
         -1    1    6    6    0  503  0.10161935130E+03 -0.25729318367E+03  0.25872616959E+02  0.27784108269E+03  0.00000000000E+00 0.  1.
<mgrwt>
<rscale>  0 0.15714917E+04</rscale>
<asrwt>0</asrwt>
<pdfrwt beam="1">  1        2 0.10967420E+00 0.15714917E+04</pdfrwt>
<pdfrwt beam="2">  1       -1 0.13323951E+00 0.15714917E+04</pdfrwt>
<totfact> 0.20935346E+01</totfact>
</mgrwt>
</event>
<event>
12    7  0.1661464E-007  0.1689254E+04  0.7818608E-02  0.8767517E-01
         -1   -1    0    0    0  501 -0.00000000000E+00  0.00000000000E+00  0.20215680096E+03  0.20215680096E+03  0.00000000000E+00 0.  1.
          2   -1    0    0  501    0  0.00000000000E+00 -0.00000000000E+00 -0.35289162888E+04  0.35289162888E+04  0.00000000000E+00 0. -1.
         24    2    1    2    0    0 -0.19218754041E+03  0.45290692654E+03 -0.43245791301E+03  0.66033848932E+03  0.83464598246E+02 0.  0.
        254    2    1    2    0    0  0.19218754041E+03 -0.45290692654E+03 -0.28943015748E+04  0.30707346004E+04  0.90020477971E+03 0.  0.
         23    2    4    4    0    0 -0.25897568593E+03  0.82903962932E+02 -0.12244744524E+04  0.12576861734E+04  0.92170240081E+02 0.  0.
         23    2    4    4    0    0  0.45116322635E+03 -0.53581088947E+03 -0.16698271224E+04  0.18130484270E+04  0.90445640766E+02 0.  0.
          2    1    3    3  502    0 -0.93754684100E+02  0.12408651133E+03 -0.14491790602E+03  0.21257611006E+03  0.00000000000E+00 0. -1.
         -1    1    3    3    0  502 -0.98432856314E+02  0.32882041521E+03 -0.28754000700E+03  0.44776237927E+03  0.00000000000E+00 0.  1.
         13    1    5    5    0    0 -0.20318085141E+03  0.88835459264E+02 -0.10834306756E+04  0.11058915978E+04  0.00000000000E+00 0. -1.
        -13    1    5    5    0    0 -0.55794834522E+02 -0.59314963314E+01 -0.14104377677E+03  0.15179457557E+03  0.00000000000E+00 0.  1.
          3    1    6    6  503    0  0.33322587714E+03 -0.42928233496E+03 -0.12070289045E+04  0.13237226238E+04  0.00000000000E+00 0. -1.
         -3    1    6    6    0  503  0.11793734921E+03 -0.10652855451E+03 -0.46279821789E+03  0.48932580327E+03  0.00000000000E+00 0.  1.
<mgrwt>
<rscale>  0 0.16892536E+04</rscale>
<asrwt>0</asrwt>
<pdfrwt beam="1">  1        2 0.54291016E+00 0.16892536E+04</pdfrwt>
<pdfrwt beam="2">  1       -1 0.31101048E-01 0.16892536E+04</pdfrwt>
<totfact> 0.81402640E+00</totfact>
</mgrwt>
</event>
<event>
12    7  0.1661464E-007  0.1332154E+04  0.7818608E-02  0.9004448E-01
          2   -1    0    0  501    0  0.00000000000E+00  0.00000000000E+00  0.11033286924E+04  0.11033286924E+04  0.00000000000E+00 0. -1.
         -1   -1    0    0    0  501 -0.00000000000E+00 -0.00000000000E+00 -0.40210938124E+03  0.40210938124E+03  0.00000000000E+00 0.  1.
         24    2    1    2    0    0 -0.11741973864E+03 -0.32151234230E+02  0.58298060287E+03  0.60090648791E+03  0.80007043452E+02 0.  0.
        254    2    1    2    0    0  0.11741973864E+03  0.32151234230E+02  0.11823870827E+03  0.90453158570E+03  0.88846828897E+03 0.  0.
         23    2    4    4    0    0 -0.30975168841E+03 -0.72946425792E+02  0.27314496909E+03  0.42912309581E+03  0.90945960382E+02 0.  0.
         23    2    4    4    0    0  0.42717142705E+03  0.10509766002E+03 -0.15490626083E+03  0.47540848989E+03  0.92175573698E+02 0.  0.
          4    1    3    3  502    0 -0.96441284281E+02  0.10462226382E+02  0.35395547757E+03  0.36700798302E+03  0.00000000000E+00 0. -1.
         -3    1    3    3    0  502 -0.20978454361E+02 -0.42613460612E+02  0.22902512530E+03  0.23389850489E+03  0.00000000000E+00 0.  1.
         13    1    5    5    0    0 -0.14437491287E+03  0.10651247221E+02  0.10425396477E+03  0.17839970208E+03  0.00000000000E+00 0. -1.
        -13    1    5    5    0    0 -0.16537677554E+03 -0.83597673013E+02  0.16889100432E+03  0.25072339373E+03  0.00000000000E+00 0.  1.
          1    1    6    6  503    0  0.30318549888E+03  0.90989123560E+02 -0.15061146478E+03  0.35054854252E+03  0.00000000000E+00 0. -1.
         -1    1    6    6    0  503  0.12398592817E+03  0.14108536461E+02 -0.42947960486E+01  0.12485994737E+03  0.00000000000E+00 0.  1.
<mgrwt>
<rscale>  0 0.13321544E+04</rscale>
<asrwt>0</asrwt>
<pdfrwt beam="1">  1        2 0.16974287E+00 0.13321544E+04</pdfrwt>
<pdfrwt beam="2">  1       -1 0.61862982E-01 0.13321544E+04</pdfrwt>
<totfact> 0.64098391E+01</totfact>
</mgrwt>
</event>
<event>
12    7  0.1661464E-007  0.1129983E+04  0.7818608E-02  0.9176451E-01
          2   -1    0    0  501    0  0.00000000000E+00  0.00000000000E+00  0.25971597269E+04  0.25971597269E+04  0.00000000000E+00 0. -1.
         -1   -1    0    0    0  501 -0.00000000000E+00 -0.00000000000E+00 -0.12290944771E+03  0.12290944771E+03  0.00000000000E+00 0.  1.
         24    2    1    2    0    0 -0.14243184505E+03 -0.89194756685E+02  0.72160030725E+03  0.74503485059E+03  0.78277647333E+02 0.  0.
        254    2    1    2    0    0  0.14243184505E+03  0.89194756685E+02  0.17526499719E+04  0.19750343240E+04  0.89483860099E+03 0.  0.
         23    2    4    4    0    0 -0.12027975747E+03 -0.32220171139E+03  0.10889087088E+04  0.11457731047E+04  0.93769229337E+02 0.  0.
         23    2    4    4    0    0  0.26271160252E+03  0.41139646808E+03  0.66374126308E+03  0.82926121931E+03  0.94113046345E+02 0.  0.
          4    1    3    3  502    0 -0.10930667422E+03 -0.96796492588E+02  0.64357431426E+03  0.65992833549E+03  0.00000000000E+00 0. -1.
         -3    1    3    3    0  502 -0.33125170827E+02  0.76017359033E+01  0.78025992986E+02  0.85106515100E+02  0.00000000000E+00 0.  1.
         13    1    5    5    0    0 -0.33420210586E+02 -0.23800101219E+02  0.77478095105E+02  0.87671035780E+02  0.00000000000E+00 0.  1.
        -13    1    5    5    0    0 -0.86859546888E+02 -0.29840161017E+03  0.10114306137E+04  0.10581020689E+04  0.00000000000E+00 0. -1.
          3    1    6    6  503    0  0.26464230977E+03  0.40191540608E+03  0.66343109337E+03  0.81958060093E+03  0.00000000000E+00 0. -1.
         -3    1    6    6    0  503 -0.19307072553E+01  0.94810619953E+01  0.31016971442E+00  0.96806183850E+01  0.00000000000E+00 0.  1.
<mgrwt>
<rscale>  0 0.11299831E+04</rscale>
<asrwt>0</asrwt>
<pdfrwt beam="1">  1        2 0.39956299E+00 0.11299831E+04</pdfrwt>
<pdfrwt beam="2">  1       -1 0.18909148E-01 0.11299831E+04</pdfrwt>
<totfact> 0.78220875E+01</totfact>
</mgrwt>
</event>
<event>
12    7  0.1661464E-007  0.2022434E+04  0.7818608E-02  0.8596203E-01
         -1   -1    0    0    0  501 -0.00000000000E+00  0.00000000000E+00  0.11302515468E+04  0.11302515468E+04  0.00000000000E+00 0.  1.
          2   -1    0    0  501    0  0.00000000000E+00 -0.00000000000E+00 -0.90471860011E+03  0.90471860011E+03  0.00000000000E+00 0. -1.
         24    2    1    2    0    0  0.73155209169E+02  0.55873874041E+02 -0.72371377294E+03  0.73425636075E+03  0.83049405332E+02 0.  0.
        254    2    1    2    0    0 -0.73155209169E+02 -0.55873874041E+02  0.94924671963E+03  0.13007137862E+04  0.88448484688E+03 0.  0.
         23    2    4    4    0    0  0.15060208125E+03 -0.38122416941E+03  0.72447539134E+03  0.83742964023E+03  0.91711261424E+02 0.  0.
         23    2    4    4    0    0 -0.22375729042E+03  0.32535029536E+03  0.22477132829E+03  0.46328414593E+03  0.90498122293E+02 0.  0.
          2    1    3    3  502    0  0.73563943824E+02  0.28066199271E+02 -0.31844272710E+03  0.32803221765E+03  0.00000000000E+00 0. -1.
         -1    1    3    3    0  502 -0.40873465524E+00  0.27807674770E+02 -0.40527104584E+03  0.40622414310E+03  0.00000000000E+00 0.  1.
         13    1    5    5    0    0  0.15870716574E+03 -0.35749016666E+03  0.70266714848E+03  0.80419419624E+03  0.00000000000E+00 0. -1.
        -13    1    5    5    0    0 -0.81050844893E+01 -0.23734002743E+02  0.21808242862E+02  0.33235443994E+02  0.00000000000E+00 0.  1.
          3    1    6    6  503    0 -0.16332003525E+03  0.21742657332E+03  0.10619027886E+03  0.29193171123E+03  0.00000000000E+00 0. -1.
         -3    1    6    6    0  503 -0.60437255168E+02  0.10792372205E+03  0.11858104943E+03  0.17135243469E+03  0.00000000000E+00 0.  1.
<mgrwt>
<rscale>  0 0.20224338E+04</rscale>
<asrwt>0</asrwt>
<pdfrwt beam="1">  1        2 0.13918748E+00 0.20224338E+04</pdfrwt>
<pdfrwt beam="2">  1       -1 0.17388485E+00 0.20224338E+04</pdfrwt>
<totfact> 0.70974552E+00</totfact>
</mgrwt>
</event>
<event>
12    7  0.1661464E-007  0.2117050E+04  0.7818608E-02  0.8553769E-01
          2   -1    0    0  501    0  0.00000000000E+00  0.00000000000E+00  0.24105942830E+04  0.24105942830E+04  0.00000000000E+00 0. -1.
         -1   -1    0    0    0  501 -0.00000000000E+00 -0.00000000000E+00 -0.46481305121E+03  0.46481305121E+03  0.00000000000E+00 0.  1.
         24    2    1    2    0    0 -0.47192041469E+02  0.71001349285E+03  0.13291370384E+03  0.72822212169E+03  0.79342025733E+02 0.  0.
        254    2    1    2    0    0  0.47192041469E+02 -0.71001349285E+03  0.18128675279E+04  0.21471852125E+04  0.90419545128E+03 0.  0.
         23    2    4    4    0    0  0.20211789534E+03 -0.62762181247E+03  0.18305823807E+04  0.19477041244E+04  0.88083598307E+02 0.  0.
         23    2    4    4    0    0 -0.15492585387E+03 -0.82391680374E+02 -0.17714852797E+02  0.19948108814E+03  0.93212012768E+02 0.  0.
          4    1    3    3  502    0 -0.20352829056E+02  0.15283056861E+03  0.60868182961E+02  0.16575993500E+03  0.00000000000E+00 0. -1.
         -3    1    3    3    0  502 -0.26839212413E+02  0.55718292423E+03  0.72045520880E+02  0.56246218669E+03  0.00000000000E+00 0.  1.
         13    1    5    5    0    0  0.57268208328E+01 -0.28180939722E+01  0.51562220575E+02  0.51955757343E+02  0.00000000000E+00 0. -1.
        -13    1    5    5    0    0  0.19639107450E+03 -0.62480371850E+03  0.17790201601E+04  0.18957483670E+04  0.00000000000E+00 0.  1.
          4    1    6    6  503    0 -0.98375663760E+02 -0.64690070405E+02  0.32134349622E+02  0.12204586374E+03  0.00000000000E+00 0. -1.
         -4    1    6    6    0  503 -0.56550190107E+02 -0.17701609969E+02 -0.49849202419E+02  0.77435224404E+02  0.00000000000E+00 0.  1.
<mgrwt>
<rscale>  0 0.21170505E+04</rscale>
<asrwt>0</asrwt>
<pdfrwt beam="1">  1        2 0.37086065E+00 0.21170505E+04</pdfrwt>
<pdfrwt beam="2">  1       -1 0.71509701E-01 0.21170505E+04</pdfrwt>
<totfact> 0.81080416E+00</totfact>
</mgrwt>
</event>
<event>
12    7  0.1661464E-007  0.1774477E+04  0.7818608E-02  0.8719991E-01
          4   -1    0    0  501    0  0.00000000000E+00  0.00000000000E+00  0.80073905428E+03  0.80073905428E+03  0.00000000000E+00 0. -1.
         -3   -1    0    0    0  501 -0.00000000000E+00 -0.00000000000E+00 -0.98308213420E+03  0.98308213420E+03  0.00000000000E+00 0.  1.
         24    2    1    2    0    0  0.40829711053E+03 -0.26095214746E+03  0.34260260753E+03  0.59887976788E+03  0.80485253059E+02 0.  0.
        254    2    1    2    0    0 -0.40829711053E+03  0.26095214746E+03 -0.52494568744E+03  0.11849414206E+04  0.94536534829E+03 0.  0.
         23    2    4    4    0    0  0.13115393090E+03  0.42639048173E+03 -0.83854350784E+02  0.46298714084E+03  0.91188507729E+02 0.  0.
         23    2    4    4    0    0 -0.53945104143E+03 -0.16543833426E+03 -0.44109133666E+03  0.72195427976E+03  0.90989813960E+02 0.  0.
          2    1    3    3  502    0  0.22432972675E+03 -0.15200544774E+03  0.23889579755E+03  0.36124878482E+03  0.00000000000E+00 0. -1.
         -1    1    3    3    0  502  0.18396738378E+03 -0.10894669972E+03  0.10370680998E+03  0.23763098306E+03  0.00000000000E+00 0.  1.
         13    1    5    5    0    0  0.53736924209E+02  0.12102493360E+03 -0.64698511892E+02  0.14737906573E+03  0.00000000000E+00 0. -1.
        -13    1    5    5    0    0  0.77417006688E+02  0.30536554813E+03 -0.19155838892E+02  0.31560807511E+03  0.00000000000E+00 0.  1.
          1    1    6    6  503    0 -0.38713365806E+02 -0.19360882446E+01 -0.70172433596E+01  0.39391811764E+02  0.00000000000E+00 0. -1.
         -1    1    6    6    0  503 -0.50073767562E+03 -0.16350224602E+03 -0.43407409330E+03  0.68256246799E+03  0.00000000000E+00 0.  1.
<mgrwt>
<rscale>  0 0.17744771E+04</rscale>
<asrwt>0</asrwt>
<pdfrwt beam="1">  1        4 0.12319062E+00 0.17744771E+04</pdfrwt>
<pdfrwt beam="2">  1       -3 0.15124341E+00 0.17744771E+04</pdfrwt>
<totfact> 0.33861263E-01</totfact>
</mgrwt>
</event>
<event>
12    7  0.1661464E-007  0.1292485E+04  0.7818608E-02  0.9035546E-01
          2   -1    0    0  501    0  0.00000000000E+00  0.00000000000E+00  0.21656975952E+04  0.21656975952E+04  0.00000000000E+00 0. -1.
         -1   -1    0    0    0  501 -0.00000000000E+00 -0.00000000000E+00 -0.19283824579E+03  0.19283824579E+03  0.00000000000E+00 0.  1.
         24    2    1    2    0    0  0.30775697916E+03  0.15807039609E+03  0.57505494933E+03  0.67582041635E+03  0.79651943286E+02 0.  0.
        254    2    1    2    0    0 -0.30775697916E+03 -0.15807039609E+03  0.13978044001E+04  0.16827154247E+04  0.87061670734E+03 0.  0.
         23    2    4    4    0    0 -0.44201292919E+03  0.20790665421E+03  0.10086505757E+04  0.11243264202E+04  0.90184860167E+02 0.  0.
         23    2    4    4    0    0  0.13425595003E+03 -0.36597705030E+03  0.38915382444E+03  0.55838900443E+03  0.91617245800E+02 0.  0.
          2    1    3    3  502    0  0.13217671801E+01  0.14682465959E+02  0.12315633224E+02  0.19209286734E+02  0.00000000000E+00 0. -1.
         -1    1    3    3    0  502  0.30643521198E+03  0.14338793013E+03  0.56273931611E+03  0.65661112962E+03  0.00000000000E+00 0.  1.
         13    1    5    5    0    0 -0.13786371656E+03  0.10983709658E+03  0.39121842791E+03  0.42909492011E+03  0.00000000000E+00 0. -1.
        -13    1    5    5    0    0 -0.30414921263E+03  0.98069557636E+02  0.61743214777E+03  0.69523150013E+03  0.00000000000E+00 0.  1.
          3    1    6    6  503    0 -0.13545442147E+02 -0.45733757877E+02  0.49068681412E+02  0.68430922163E+02  0.00000000000E+00 0. -1.
         -3    1    6    6    0  503  0.14780139218E+03 -0.32024329242E+03  0.34008514303E+03  0.48995808227E+03  0.00000000000E+00 0.  1.
<mgrwt>
<rscale>  0 0.12924849E+04</rscale>
<asrwt>0</asrwt>
<pdfrwt beam="1">  1        2 0.33318423E+00 0.12924849E+04</pdfrwt>
<pdfrwt beam="2">  1       -1 0.29667424E-01 0.12924849E+04</pdfrwt>
<totfact> 0.62868508E+01</totfact>
</mgrwt>
</event>
<event>
12    7  0.1661464E-007  0.2177839E+04  0.7818608E-02  0.8527709E-01
          2   -1    0    0  501    0  0.00000000000E+00  0.00000000000E+00  0.28570181426E+04  0.28570181426E+04  0.00000000000E+00 0. -1.
         -1   -1    0    0    0  501 -0.00000000000E+00 -0.00000000000E+00 -0.41502927647E+03  0.41502927647E+03  0.00000000000E+00 0.  1.
         24    2    1    2    0    0 -0.40305201778E+03  0.94816514875E+02 -0.18571077981E+03  0.46078371180E+03  0.79950202006E+02 0.  0.
        254    2    1    2    0    0  0.40305201778E+03 -0.94816514875E+02  0.26276996460E+04  0.28112637073E+04  0.90937181724E+03 0.  0.
         23    2    4    4    0    0 -0.19679411310E+02 -0.36568215677E+03  0.17998607437E+04  0.18390901711E+04  0.92969037314E+02 0.  0.
         23    2    4    4    0    0  0.42273142909E+03  0.27086564190E+03  0.82783890229E+03  0.97217353616E+03  0.87943613589E+02 0.  0.
          2    1    3    3  502    0  0.24690238236E+01 -0.98141115793E+00  0.24248731830E+01  0.35971177985E+01  0.00000000000E+00 0. -1.
         -1    1    3    3    0  502 -0.40552104160E+03  0.95797926033E+02 -0.18813565299E+03  0.45718659400E+03  0.00000000000E+00 0.  1.
         13    1    5    5    0    0  0.15149534857E+02 -0.27616551674E+03  0.11905318646E+04  0.12222368926E+04  0.00000000000E+00 0. -1.
        -13    1    5    5    0    0 -0.34828946168E+02 -0.89516640033E+02  0.60932887911E+03  0.61685327854E+03  0.00000000000E+00 0.  1.
          1    1    6    6  503    0  0.12419051686E+03  0.12290066492E+03  0.32436907039E+03  0.36843337490E+03  0.00000000000E+00 0. -1.
         -1    1    6    6    0  503  0.29854091223E+03  0.14796497698E+03  0.50346983190E+03  0.60374016126E+03  0.00000000000E+00 0.  1.
<mgrwt>
<rscale>  0 0.21778395E+04</rscale>
<asrwt>0</asrwt>
<pdfrwt beam="1">  1        2 0.43954124E+00 0.21778395E+04</pdfrwt>
<pdfrwt beam="2">  1       -1 0.63850660E-01 0.21778395E+04</pdfrwt>
<totfact> 0.55386191E+00</totfact>
</mgrwt>
</event>
<event>
12    7  0.1661464E-007  0.1324888E+04  0.7818608E-02  0.9010059E-01
         -1   -1    0    0    0  501 -0.00000000000E+00  0.00000000000E+00  0.19002144786E+03  0.19002144786E+03  0.00000000000E+00 0.  1.
          2   -1    0    0  501    0  0.00000000000E+00 -0.00000000000E+00 -0.23093805040E+04  0.23093805040E+04  0.00000000000E+00 0. -1.
         24    2    1    2    0    0  0.20993555059E+03 -0.12063356416E+03 -0.10487733752E+04  0.10792849526E+04  0.79404182296E+02 0.  0.
        254    2    1    2    0    0 -0.20993555059E+03  0.12063356416E+03 -0.10705856809E+04  0.14201169992E+04  0.90108445728E+03 0.  0.
         23    2    4    4    0    0 -0.12097994037E+03 -0.10332865735E+03 -0.11401453730E+04  0.11549874442E+04  0.93549811279E+02 0.  0.
         23    2    4    4    0    0 -0.88955610218E+02  0.22396222150E+03  0.69559692167E+02  0.26512955501E+03  0.85924111382E+02 0.  0.
          2    1    3    3  502    0  0.21176460279E+03 -0.12610655785E+03 -0.10398339412E+04  0.10686448129E+04  0.00000000000E+00 0. -1.
         -1    1    3    3    0  502 -0.18290522024E+01  0.54729936979E+01 -0.89394340447E+01  0.10640139709E+02  0.00000000000E+00 0.  1.
         13    1    5    5    0    0 -0.24778997507E+02  0.10356157542E+01 -0.51860345450E+02  0.57485360289E+02  0.00000000000E+00 0.  1.
        -13    1    5    5    0    0 -0.96200942865E+02 -0.10436427310E+03 -0.10882850276E+04  0.10975020839E+04  0.00000000000E+00 0. -1.
          3    1    6    6  503    0 -0.90592804383E+02  0.11339497883E+03  0.43550393741E+02  0.15153255170E+03  0.00000000000E+00 0. -1.
         -3    1    6    6    0  503  0.16371941656E+01  0.11056724267E+03  0.26009298426E+02  0.11359700331E+03  0.00000000000E+00 0.  1.
<mgrwt>
<rscale>  0 0.13248877E+04</rscale>
<asrwt>0</asrwt>
<pdfrwt beam="1">  1        2 0.35528932E+00 0.13248877E+04</pdfrwt>
<pdfrwt beam="2">  1       -1 0.29234068E-01 0.13248877E+04</pdfrwt>
<totfact> 0.53440893E+01</totfact>
</mgrwt>
</event>
<event>
12    7  0.1661464E-007  0.1486536E+04  0.7818608E-02  0.8893456E-01
         -1   -1    0    0    0  501 -0.00000000000E+00  0.00000000000E+00  0.65954480238E+03  0.65954480238E+03  0.00000000000E+00 0.  1.
          2   -1    0    0  501    0  0.00000000000E+00 -0.00000000000E+00 -0.83761915124E+03  0.83761915124E+03  0.00000000000E+00 0. -1.
         24    2    1    2    0    0 -0.25900829862E+03  0.60555433818E+02  0.33091808612E+03  0.43188336199E+03  0.79146694987E+02 0.  0.
        254    2    1    2    0    0  0.25900829862E+03 -0.60555433818E+02 -0.50899243497E+03  0.10652805916E+04  0.89721635112E+03 0.  0.
         23    2    4    4    0    0  0.57399944057E+03 -0.13995289124E+03 -0.33421878412E+03  0.68491724290E+03  0.91363364767E+02 0.  0.
         23    2    4    4    0    0 -0.31499114195E+03  0.79397457421E+02 -0.17477365085E+03  0.38036334872E+03  0.92774308215E+02 0.  0.
          2    1    3    3  502    0 -0.71453151408E+02  0.25066577242E+02  0.44945252547E+02  0.88056583327E+02  0.00000000000E+00 0. -1.
         -3    1    3    3    0  502 -0.18755514721E+03  0.35488856576E+02  0.28597283357E+03  0.34382677867E+03  0.00000000000E+00 0.  1.
         13    1    5    5    0    0  0.98646679451E+02 -0.10212042097E+02 -0.94385821352E+02  0.13690922702E+03  0.00000000000E+00 0. -1.
        -13    1    5    5    0    0  0.47535276112E+03 -0.12974084914E+03 -0.23983296277E+03  0.54800801588E+03  0.00000000000E+00 0.  1.
          4    1    6    6  503    0 -0.22879472655E+03  0.86128357516E+02 -0.16123424749E+03  0.29285082111E+03  0.00000000000E+00 0.  1.
         -4    1    6    6    0  503 -0.86196415407E+02 -0.67309000956E+01 -0.13539403367E+02  0.87512527609E+02  0.00000000000E+00 0. -1.
<mgrwt>
<rscale>  0 0.14865361E+04</rscale>
<asrwt>0</asrwt>
<pdfrwt beam="1">  1        2 0.12886448E+00 0.14865361E+04</pdfrwt>
<pdfrwt beam="2">  1       -1 0.10146843E+00 0.14865361E+04</pdfrwt>
<totfact> 0.32961607E+01</totfact>
</mgrwt>
</event>
<event>
12    7  0.1661464E-007  0.1583707E+04  0.7818608E-02  0.8830621E-01
         -1   -1    0    0    0  501 -0.00000000000E+00  0.00000000000E+00  0.19272699120E+03  0.19272699120E+03  0.00000000000E+00 0.  1.
          2   -1    0    0  501    0  0.00000000000E+00 -0.00000000000E+00 -0.32534716856E+04  0.32534716856E+04  0.00000000000E+00 0. -1.
         24    2    1    2    0    0 -0.10894079258E+03  0.23559243629E+03 -0.40311494477E+02  0.27481350880E+03  0.80780911768E+02 0.  0.
        254    2    1    2    0    0  0.10894079258E+03 -0.23559243629E+03 -0.30204331999E+04  0.31713851680E+04  0.93128689263E+03 0.  0.
         23    2    4    4    0    0  0.39599647684E+03 -0.43162726169E+03 -0.21388791170E+04  0.22194860628E+04  0.90549450621E+02 0.  0.
         23    2    4    4    0    0 -0.28705568426E+03  0.19603482540E+03 -0.88155408294E+03  0.95189910526E+03  0.90242378110E+02 0.  0.
          4    1    3    3  502    0 -0.42856991777E+02  0.43656770826E+02 -0.37587919004E+02  0.71801720301E+02  0.00000000000E+00 0. -1.
         -3    1    3    3    0  502 -0.66083800806E+02  0.19193566546E+03 -0.27235754730E+01  0.20301178850E+03  0.00000000000E+00 0.  1.
         13    1    5    5    0    0  0.15330113877E+03 -0.17814083682E+03 -0.69878952210E+03  0.73725314044E+03  0.00000000000E+00 0. -1.
        -13    1    5    5    0    0  0.24269533807E+03 -0.25348642487E+03 -0.14400895949E+04  0.14822329223E+04  0.00000000000E+00 0.  1.
          3    1    6    6  503    0 -0.17557264332E+03  0.95104253807E+02 -0.60502861391E+03  0.63712651477E+03  0.00000000000E+00 0. -1.
         -3    1    6    6    0  503 -0.11148304094E+03  0.10093057159E+03 -0.27652546903E+03  0.31477259049E+03  0.00000000000E+00 0.  1.
<mgrwt>
<rscale>  0 0.15837068E+04</rscale>
<asrwt>0</asrwt>
<pdfrwt beam="1">  1        2 0.50053408E+00 0.15837068E+04</pdfrwt>
<pdfrwt beam="2">  1       -1 0.29650308E-01 0.15837068E+04</pdfrwt>
<totfact> 0.13742215E+01</totfact>
</mgrwt>
</event>
<event>
12    7  0.1661464E-007  0.2908139E+04  0.7818608E-02  0.8270460E-01
         -1   -1    0    0    0  501 -0.00000000000E+00  0.00000000000E+00  0.10008536567E+04  0.10008536567E+04  0.00000000000E+00 0.  1.
          2   -1    0    0  501    0  0.00000000000E+00 -0.00000000000E+00 -0.21125151222E+04  0.21125151222E+04  0.00000000000E+00 0. -1.
         24    2    1    2    0    0 -0.60002055694E+03 -0.94382419459E+03  0.23266921301E+03  0.11452216723E+04  0.81048978449E+02 0.  0.
        254    2    1    2    0    0  0.60002055694E+03  0.94382419459E+03 -0.13443306785E+04  0.19681471066E+04  0.90307767158E+03 0.  0.
         23    2    4    4    0    0 -0.72546099873E+02  0.10219736933E+03 -0.68440209362E+03  0.70161074689E+03  0.90245085778E+02 0.  0.
         23    2    4    4    0    0  0.67256665681E+03  0.84162682526E+03 -0.65992858493E+03  0.12665363597E+04  0.89033658810E+02 0.  0.
          4    1    3    3  502    0 -0.31934689662E+03 -0.45723756505E+03  0.14912278720E+03  0.57730948107E+03  0.00000000000E+00 0. -1.
         -3    1    3    3    0  502 -0.28067366032E+03 -0.48658662954E+03  0.83546425814E+02  0.56791219119E+03  0.00000000000E+00 0.  1.
         13    1    5    5    0    0 -0.31007312195E+02  0.81419907776E+02 -0.25027236597E+03  0.26500360745E+03  0.00000000000E+00 0. -1.
        -13    1    5    5    0    0 -0.41538787678E+02  0.20777461553E+02 -0.43412972764E+03  0.43660713944E+03  0.00000000000E+00 0.  1.
          2    1    6    6  503    0  0.15725428095E+03  0.14332013095E+03 -0.11643644250E+03  0.24254280850E+03  0.00000000000E+00 0. -1.
         -2    1    6    6    0  503  0.51531237586E+03  0.69830669431E+03 -0.54349214243E+03  0.10239935512E+04  0.00000000000E+00 0.  1.
<mgrwt>
<rscale>  0 0.29081393E+04</rscale>
<asrwt>0</asrwt>
<pdfrwt beam="1">  1        2 0.32500232E+00 0.29081393E+04</pdfrwt>
<pdfrwt beam="2">  1       -1 0.15397749E+00 0.29081393E+04</pdfrwt>
<totfact> 0.18429986E+00</totfact>
</mgrwt>
</event>
<event>
12    7  0.1661464E-007  0.1188785E+04  0.7818608E-02  0.9122730E-01
          2   -1    0    0  501    0  0.00000000000E+00  0.00000000000E+00  0.18172554983E+04  0.18172554983E+04  0.00000000000E+00 0. -1.
         -1   -1    0    0    0  501 -0.00000000000E+00 -0.00000000000E+00 -0.19441541083E+03  0.19441541083E+03  0.00000000000E+00 0.  1.
         24    2    1    2    0    0  0.18048516197E+03 -0.16093714235E+03  0.29826538841E+03  0.39199153811E+03  0.78863594544E+02 0.  0.
        254    2    1    2    0    0 -0.18048516197E+03  0.16093714235E+03  0.13245746991E+04  0.16196793710E+04  0.90021523764E+03 0.  0.
         23    2    4    4    0    0  0.25583926140E+03 -0.28264223843E+02  0.79822324911E+02  0.28400723957E+03  0.89643262728E+02 0.  0.
         23    2    4    4    0    0 -0.43632442337E+03  0.18920136619E+03  0.12447523742E+04  0.13356721315E+04  0.91844490328E+02 0.  0.
          4    1    3    3  502    0  0.21933717534E+02 -0.65542753669E+01  0.31305861781E+01  0.23105130605E+02  0.00000000000E+00 0. -1.
         -3    1    3    3    0  502  0.15855144443E+03 -0.15438286698E+03  0.29513480224E+03  0.36888640750E+03  0.00000000000E+00 0.  1.
         13    1    5    5    0    0  0.13182983571E+03 -0.15296478609E+02  0.87699230563E+02  0.15907307404E+03  0.00000000000E+00 0. -1.
        -13    1    5    5    0    0  0.12400942569E+03 -0.12967745234E+02 -0.78769056528E+01  0.12493416554E+03  0.00000000000E+00 0.  1.
          2    1    6    6  503    0 -0.17377142128E+03  0.53041334498E+02  0.36856229420E+03  0.41091124921E+03  0.00000000000E+00 0. -1.
         -2    1    6    6    0  503 -0.26255300209E+03  0.13616003169E+03  0.87619007997E+03  0.92476088226E+03  0.00000000000E+00 0.  1.
<mgrwt>
<rscale>  0 0.11887851E+04</rscale>
<asrwt>0</asrwt>
<pdfrwt beam="1">  1        2 0.27957776E+00 0.11887851E+04</pdfrwt>
<pdfrwt beam="2">  1       -1 0.29910064E-01 0.11887851E+04</pdfrwt>
<totfact> 0.97432878E+01</totfact>
</mgrwt>
</event>
<event>
12    7  0.1661464E-007  0.2930596E+04  0.7818608E-02  0.8263832E-01
          2   -1    0    0  501    0  0.00000000000E+00  0.00000000000E+00  0.11326487224E+04  0.11326487224E+04  0.00000000000E+00 0. -1.
         -1   -1    0    0    0  501 -0.00000000000E+00 -0.00000000000E+00 -0.18956439085E+04  0.18956439085E+04  0.00000000000E+00 0.  1.
         24    2    1    2    0    0 -0.12768741278E+04 -0.19428284435E+03 -0.39287464619E+02  0.12945362958E+04  0.78277420076E+02 0.  0.
        254    2    1    2    0    0  0.12768741278E+04  0.19428284435E+03 -0.72370772146E+03  0.17337563352E+04  0.90222214660E+03 0.  0.
         23    2    4    4    0    0  0.24353167148E+03  0.29222151451E+03 -0.55378297072E+03  0.67807179409E+03  0.91677100294E+02 0.  0.
         23    2    4    4    0    0  0.10333424563E+04 -0.97938670155E+02 -0.16992475074E+03  0.10556845411E+04  0.90591469000E+02 0.  0.
          2    1    3    3  502    0 -0.91117968043E+03 -0.12622527530E+03  0.53296697445E+01  0.91989653523E+03  0.00000000000E+00 0. -1.
         -1    1    3    3    0  502 -0.36569444735E+03 -0.68057569052E+02 -0.44617134364E+02  0.37463976057E+03  0.00000000000E+00 0.  1.
         13    1    5    5    0    0  0.22312974244E+03  0.21623069682E+03 -0.46710873190E+03  0.56101084092E+03  0.00000000000E+00 0. -1.
        -13    1    5    5    0    0  0.20401929037E+02  0.75990817688E+02 -0.86674238821E+02  0.11706095317E+03  0.00000000000E+00 0.  1.
          1    1    6    6  503    0  0.33187474262E+03 -0.54048436649E+02 -0.18741709231E+02  0.33676895634E+03  0.00000000000E+00 0. -1.
         -1    1    6    6    0  503  0.70146771367E+03 -0.43890233506E+02 -0.15118304151E+03  0.71891558473E+03  0.00000000000E+00 0.  1.
<mgrwt>
<rscale>  0 0.29305963E+04</rscale>
<asrwt>0</asrwt>
<pdfrwt beam="1">  1        2 0.17425365E+00 0.29305963E+04</pdfrwt>
<pdfrwt beam="2">  1       -1 0.29163752E+00 0.29305963E+04</pdfrwt>
<totfact> 0.76344209E-01</totfact>
</mgrwt>
</event>
<event>
12    7  0.1661464E-007  0.1776923E+04  0.7818608E-02  0.8718669E-01
          2   -1    0    0  501    0  0.00000000000E+00  0.00000000000E+00  0.17299164387E+04  0.17299164387E+04  0.00000000000E+00 0. -1.
         -1   -1    0    0    0  501 -0.00000000000E+00 -0.00000000000E+00 -0.45630182223E+03  0.45630182223E+03  0.00000000000E+00 0.  1.
         24    2    1    2    0    0 -0.51291198735E+03 -0.31384011526E+02 -0.33854328315E+02  0.52118423408E+03  0.80145039561E+02 0.  0.
        254    2    1    2    0    0  0.51291198735E+03  0.31384011526E+02  0.13074689448E+04  0.16650340268E+04  0.89375589844E+03 0.  0.
         23    2    4    4    0    0  0.14740394497E+03 -0.41257220627E+03  0.56354795158E+03  0.71988882223E+03  0.93326707096E+02 0.  0.
         23    2    4    4    0    0  0.36550804238E+03  0.44395621780E+03  0.74392099317E+03  0.94514520458E+03  0.95852810566E+02 0.  0.
          4    1    3    3  502    0 -0.63646152679E+02  0.41621273965E+00 -0.30976324291E+02  0.70785158405E+02  0.00000000000E+00 0. -1.
         -3    1    3    3    0  502 -0.44926583467E+03 -0.31800224266E+02 -0.28780040237E+01  0.45039907568E+03  0.00000000000E+00 0.  1.
         13    1    5    5    0    0  0.67406190057E+02 -0.13795576776E+03  0.13383329552E+03  0.20368293818E+03  0.00000000000E+00 0.  1.
        -13    1    5    5    0    0  0.79997754914E+02 -0.27461643851E+03  0.42971465606E+03  0.51620588405E+03  0.00000000000E+00 0. -1.
          2    1    6    6  503    0  0.36117541148E+03  0.44864511303E+03  0.73971057209E+03  0.93749765107E+03  0.00000000000E+00 0. -1.
         -2    1    6    6    0  503  0.43326308965E+01 -0.46888952316E+01  0.42104210869E+01  0.76475535113E+01  0.00000000000E+00 0.  1.
<mgrwt>
<rscale>  0 0.17769232E+04</rscale>
<asrwt>0</asrwt>
<pdfrwt beam="1">  1        2 0.26614099E+00 0.17769232E+04</pdfrwt>
<pdfrwt beam="2">  1       -1 0.70200281E-01 0.17769232E+04</pdfrwt>
<totfact> 0.20855203E+01</totfact>
</mgrwt>
</event>
<event>
12    7  0.1661464E-007  0.2211513E+04  0.7818608E-02  0.8513651E-01
          2   -1    0    0  501    0  0.00000000000E+00  0.00000000000E+00  0.55783144674E+03  0.55783144674E+03  0.00000000000E+00 0. -1.
         -1   -1    0    0    0  501 -0.00000000000E+00 -0.00000000000E+00 -0.21918760185E+04  0.21918760185E+04  0.00000000000E+00 0.  1.
         24    2    1    2    0    0 -0.19644971871E+02  0.92189068146E+03 -0.76775162233E+03  0.12026504601E+04  0.81591801549E+02 0.  0.
        254    2    1    2    0    0  0.19644971871E+02 -0.92189068146E+03 -0.86629294941E+03  0.15470570051E+04  0.89031092853E+03 0.  0.
         23    2    4    4    0    0  0.42914913027E+03 -0.30965067334E+03 -0.40750778889E+03  0.67447969759E+03  0.93849608172E+02 0.  0.
         23    2    4    4    0    0 -0.40950415840E+03 -0.61224000813E+03 -0.45878516052E+03  0.87257730754E+03  0.91519674543E+02 0.  0.
          4    1    3    3  502    0 -0.15172550177E+02  0.88087052820E+03 -0.70901903358E+03  0.11308718246E+04  0.00000000000E+00 0. -1.
         -3    1    3    3    0  502 -0.44724216944E+01  0.41020153264E+02 -0.58732588752E+02  0.71778635478E+02  0.00000000000E+00 0.  1.
         13    1    5    5    0    0  0.38314259267E+01 -0.99380862372E+01 -0.29467450427E+02  0.31333305241E+02  0.00000000000E+00 0. -1.
        -13    1    5    5    0    0  0.42531770434E+03 -0.29971258710E+03 -0.37804033846E+03  0.64314639235E+03  0.00000000000E+00 0.  1.
          3    1    6    6  503    0 -0.21518066014E+03 -0.31208587420E+03 -0.18258679106E+03  0.42075913020E+03  0.00000000000E+00 0. -1.
         -3    1    6    6    0  503 -0.19432349826E+03 -0.30015413392E+03 -0.27619836946E+03  0.45181817734E+03  0.00000000000E+00 0.  1.
<mgrwt>
<rscale>  0 0.22115129E+04</rscale>
<asrwt>0</asrwt>
<pdfrwt beam="1">  1        2 0.85820223E-01 0.22115129E+04</pdfrwt>
<pdfrwt beam="2">  1       -1 0.33721169E+00 0.22115129E+04</pdfrwt>
<totfact> 0.10661172E+00</totfact>
</mgrwt>
</event>
<event>
12    7  0.1661464E-007  0.1654548E+04  0.7818608E-02  0.8787720E-01
          2   -1    0    0  501    0  0.00000000000E+00  0.00000000000E+00  0.20777893464E+04  0.20777893464E+04  0.00000000000E+00 0. -1.
         -1   -1    0    0    0  501 -0.00000000000E+00 -0.00000000000E+00 -0.32937999545E+03  0.32937999545E+03  0.00000000000E+00 0.  1.
         24    2    1    2    0    0  0.48395062803E+03 -0.29290442759E+03  0.85654819043E+03  0.10297085220E+04  0.81385648529E+02 0.  0.
        254    2    1    2    0    0 -0.48395062803E+03  0.29290442759E+03  0.89186116052E+03  0.13774608198E+04  0.88429676374E+03 0.  0.
         23    2    4    4    0    0  0.19475828639E+03 -0.12169900239E+03  0.24653509847E+03  0.34924430947E+03  0.91927121230E+02 0.  0.
         23    2    4    4    0    0 -0.67870891441E+03  0.41460342999E+03  0.64532606205E+03  0.10282165103E+04  0.90783649915E+02 0.  0.
          4    1    3    3  502    0  0.30514589046E+03 -0.16648090156E+03  0.58951790314E+03  0.68436924476E+03  0.00000000000E+00 0. -1.
         -3    1    3    3    0  502  0.17880473756E+03 -0.12642352604E+03  0.26703028729E+03  0.34533927729E+03  0.00000000000E+00 0.  1.
         13    1    5    5    0    0  0.18001590850E+03 -0.12291401765E+03  0.25225379917E+03  0.33338500603E+03  0.00000000000E+00 0. -1.
        -13    1    5    5    0    0  0.14742377885E+02  0.12150152545E+01 -0.57187007038E+01  0.15859303437E+02  0.00000000000E+00 0.  1.
          4    1    6    6  503    0 -0.17021839129E+03  0.70169471558E+02  0.11758822526E+03  0.21846062847E+03  0.00000000000E+00 0. -1.
         -4    1    6    6    0  503 -0.50849052313E+03  0.34443395843E+03  0.52773783679E+03  0.80975588186E+03  0.00000000000E+00 0.  1.
<mgrwt>
<rscale>  0 0.16545480E+04</rscale>
<asrwt>0</asrwt>
<pdfrwt beam="1">  1        2 0.31965989E+00 0.16545480E+04</pdfrwt>
<pdfrwt beam="2">  1       -1 0.50673847E-01 0.16545480E+04</pdfrwt>
<totfact> 0.25736693E+01</totfact>
</mgrwt>
</event>
<event>
12    7  0.1661464E-007  0.1197750E+04  0.7818608E-02  0.9114828E-01
         -1   -1    0    0    0  501 -0.00000000000E+00  0.00000000000E+00  0.65507144063E+03  0.65507144063E+03  0.00000000000E+00 0.  1.
          2   -1    0    0  501    0  0.00000000000E+00 -0.00000000000E+00 -0.54749982896E+03  0.54749982896E+03  0.00000000000E+00 0. -1.
         24    2    1    2    0    0  0.15646625275E+03  0.12132241185E+03  0.16392514776E+03  0.26878989685E+03  0.78585868388E+02 0.  0.
        254    2    1    2    0    0 -0.15646625275E+03 -0.12132241185E+03 -0.56353536093E+02  0.93378137275E+03  0.91080794639E+03 0.  0.
         23    2    4    4    0    0  0.31781448234E+03 -0.30552968278E+02 -0.23917283147E+03  0.40955874872E+03  0.92710281431E+02 0.  0.
         23    2    4    4    0    0 -0.47428073509E+03 -0.90769443575E+02  0.18281929538E+03  0.52422262403E+03  0.90582322899E+02 0.  0.
          2    1    3    3  502    0  0.64801179542E+02  0.60290127116E+02  0.25912181774E+02  0.92225449102E+02  0.00000000000E+00 0. -1.
         -1    1    3    3    0  502  0.91665073208E+02  0.61032284737E+02  0.13801296599E+03  0.17656444774E+03  0.00000000000E+00 0.  1.
         13    1    5    5    0    0  0.27041446805E+03 -0.51582759149E+02 -0.22569086499E+03  0.35597911753E+03  0.00000000000E+00 0.  1.
        -13    1    5    5    0    0  0.47400014290E+02  0.21029790871E+02 -0.13481966475E+02  0.53579631193E+02  0.00000000000E+00 0. -1.
          2    1    6    6  503    0 -0.22904181336E+03 -0.66385779418E+01  0.57431727782E+02  0.23622579525E+03  0.00000000000E+00 0. -1.
         -2    1    6    6    0  503 -0.24523892173E+03 -0.84130865634E+02  0.12538756759E+03  0.28799682879E+03  0.00000000000E+00 0.  1.
<mgrwt>
<rscale>  0 0.11977504E+04</rscale>
<asrwt>0</asrwt>
<pdfrwt beam="1">  1        2 0.84230743E-01 0.11977504E+04</pdfrwt>
<pdfrwt beam="2">  1       -1 0.10078022E+00 0.11977504E+04</pdfrwt>
<totfact> 0.58499063E+01</totfact>
</mgrwt>
</event>
<event>
12    7  0.1661464E-007  0.2435278E+04  0.7818608E-02  0.8426413E-01
         -1   -1    0    0    0  501 -0.00000000000E+00  0.00000000000E+00  0.82111269811E+03  0.82111269811E+03  0.00000000000E+00 0.  1.
          2   -1    0    0  501    0  0.00000000000E+00 -0.00000000000E+00 -0.18056532713E+04  0.18056532713E+04  0.00000000000E+00 0. -1.
         24    2    1    2    0    0  0.97100777447E+03  0.20385976564E+03 -0.78618961005E+03  0.12681105189E+04  0.74801624436E+02 0.  0.
        254    2    1    2    0    0 -0.97100777447E+03 -0.20385976564E+03 -0.19835096311E+03  0.13586554505E+04  0.90674507249E+03 0.  0.
         23    2    4    4    0    0  0.22033642638E+02 -0.30211390372E+03  0.63910420218E+02  0.32251238205E+03  0.90395810385E+02 0.  0.
         23    2    4    4    0    0 -0.99304141710E+03  0.98254138082E+02 -0.26226138332E+03  0.10361430684E+04  0.95006807012E+02 0.  0.
          2    1    3    3  502    0  0.25279428938E+00 -0.25037411118E+01 -0.24993268365E+01  0.35467251294E+01  0.00000000000E+00 0. -1.
         -1    1    3    3    0  502  0.97075498018E+03  0.20636350675E+03 -0.78369028321E+03  0.12645637937E+04  0.00000000000E+00 0.  1.
         13    1    5    5    0    0 -0.92841837538E+01 -0.63613153843E+02 -0.20668752382E+02  0.67527970019E+02  0.00000000000E+00 0.  1.
        -13    1    5    5    0    0  0.31317826392E+02 -0.23850074988E+03  0.84579172601E+02  0.25498441203E+03  0.00000000000E+00 0. -1.
          2    1    6    6  503    0 -0.55037586739E+03  0.72816543685E+02 -0.19068924921E+03  0.58700786554E+03  0.00000000000E+00 0. -1.
         -2    1    6    6    0  503 -0.44266554971E+03  0.25437594397E+02 -0.71572134113E+02  0.44913520291E+03  0.00000000000E+00 0.  1.
<mgrwt>
<rscale>  0 0.24352781E+04</rscale>
<asrwt>0</asrwt>
<pdfrwt beam="1">  1        2 0.27779281E+00 0.24352781E+04</pdfrwt>
<pdfrwt beam="2">  1       -1 0.12632503E+00 0.24352781E+04</pdfrwt>
<totfact> 0.47659934E+00</totfact>
</mgrwt>
</event>
<event>
12    7  0.1661464E-007  0.3104279E+04  0.7818608E-02  0.8214565E-01
          2   -1    0    0  501    0  0.00000000000E+00  0.00000000000E+00  0.13609054818E+04  0.13609054818E+04  0.00000000000E+00 0. -1.
         -1   -1    0    0    0  501 -0.00000000000E+00 -0.00000000000E+00 -0.17702453521E+04  0.17702453521E+04  0.00000000000E+00 0.  1.
         24    2    1    2    0    0 -0.24005402813E+03  0.23886659964E+03 -0.15800146689E+04  0.16179767510E+04  0.81970871562E+02 0.  0.
        254    2    1    2    0    0  0.24005402813E+03 -0.23886659964E+03  0.11706747986E+04  0.15131740830E+04  0.89695770946E+03 0.  0.
         23    2    4    4    0    0  0.30627575418E+03  0.21808372222E+03  0.20557420107E+03  0.43918587635E+03  0.96219199455E+02 0.  0.
         23    2    4    4    0    0 -0.66221726052E+02 -0.45695032186E+03  0.96510059754E+03  0.10739882067E+04  0.94035052134E+02 0.  0.
          2    1    3    3  502    0 -0.15711906932E+03  0.10351452037E+03 -0.78081603764E+03  0.80316582504E+03  0.00000000000E+00 0. -1.
         -1    1    3    3    0  502 -0.82934958807E+02  0.13535207928E+03 -0.79919863128E+03  0.81481092592E+03  0.00000000000E+00 0.  1.
         13    1    5    5    0    0  0.71176502627E+02  0.15329577490E+02  0.13297307213E+02  0.74012896521E+02  0.00000000000E+00 0.  1.
        -13    1    5    5    0    0  0.23509925155E+03  0.20275414473E+03  0.19227689386E+03  0.36517297983E+03  0.00000000000E+00 0. -1.
          3    1    6    6  503    0 -0.53910142829E+02 -0.23920556731E+03  0.60763397411E+03  0.65524396481E+03  0.00000000000E+00 0. -1.
         -3    1    6    6    0  503 -0.12311583223E+02 -0.21774475455E+03  0.35746662344E+03  0.41874424186E+03  0.00000000000E+00 0.  1.
<mgrwt>
<rscale>  0 0.31042787E+04</rscale>
<asrwt>0</asrwt>
<pdfrwt beam="1">  1        2 0.20937007E+00 0.31042787E+04</pdfrwt>
<pdfrwt beam="2">  1       -1 0.27234544E+00 0.31042787E+04</pdfrwt>
<totfact> 0.73484904E-01</totfact>
</mgrwt>
</event>
<event>
12    7  0.1661464E-007  0.1258925E+04  0.7818608E-02  0.9062788E-01
          2   -1    0    0  501    0  0.00000000000E+00  0.00000000000E+00  0.52913962493E+03  0.52913962493E+03  0.00000000000E+00 0. -1.
         -1   -1    0    0    0  501 -0.00000000000E+00 -0.00000000000E+00 -0.74880610692E+03  0.74880610692E+03  0.00000000000E+00 0.  1.
         24    2    1    2    0    0  0.23788064604E+03  0.11487849473E+03  0.84274031866E+02  0.28835090410E+03  0.79119284210E+02 0.  0.
        254    2    1    2    0    0 -0.23788064604E+03 -0.11487849473E+03 -0.30394051385E+03  0.98959482775E+03  0.90395454357E+03 0.  0.
         23    2    4    4    0    0 -0.35621568169E+03 -0.29288329854E+03  0.13829565118E+03  0.49009982450E+03  0.91661946288E+02 0.  0.
         23    2    4    4    0    0  0.11833503565E+03  0.17800480382E+03 -0.44223616503E+03  0.49949500325E+03  0.90738865814E+02 0.  0.
          4    1    3    3  502    0  0.23910939189E+03  0.98774083867E+02  0.84622688179E+02  0.27219592261E+03  0.00000000000E+00 0. -1.
         -3    1    3    3    0  502 -0.12287458438E+01  0.16104410862E+02 -0.34865631277E+00  0.16154981485E+02  0.00000000000E+00 0.  1.
         13    1    5    5    0    0 -0.28409307061E+03 -0.24844905897E+03  0.76087320455E+02  0.38500011429E+03  0.00000000000E+00 0.  1.
        -13    1    5    5    0    0 -0.72122611083E+02 -0.44434239578E+02  0.62208330723E+02  0.10509971022E+03  0.00000000000E+00 0. -1.
          1    1    6    6  503    0  0.90904878809E+00 -0.26600660868E+01 -0.64976502357E+02  0.65037282999E+02  0.00000000000E+00 0. -1.
         -1    1    6    6    0  503  0.11742598686E+03  0.18066486990E+03 -0.37725966267E+03  0.43445772025E+03  0.00000000000E+00 0.  1.
<mgrwt>
<rscale>  0 0.12589249E+04</rscale>
<asrwt>0</asrwt>
<pdfrwt beam="1">  1        2 0.81406096E-01 0.12589249E+04</pdfrwt>
<pdfrwt beam="2">  1       -1 0.11520094E+00 0.12589249E+04</pdfrwt>
<totfact> 0.44285557E+01</totfact>
</mgrwt>
</event>
<event>
12    7  0.1661464E-007  0.1529055E+04  0.7818608E-02  0.8865358E-01
          2   -1    0    0  501    0  0.00000000000E+00  0.00000000000E+00  0.63887408115E+03  0.63887408115E+03  0.00000000000E+00 0. -1.
         -1   -1    0    0    0  501 -0.00000000000E+00 -0.00000000000E+00 -0.91489487055E+03  0.91489487055E+03  0.00000000000E+00 0.  1.
         24    2    1    2    0    0  0.27550943525E+03 -0.17164385752E+02 -0.49356660305E+03  0.57123837435E+03  0.80654966582E+02 0.  0.
        254    2    1    2    0    0 -0.27550943525E+03  0.17164385752E+02  0.21754581365E+03  0.98253057735E+03  0.91751844088E+03 0.  0.
         23    2    4    4    0    0 -0.35173491802E+03 -0.14586793302E+03 -0.25559391347E+03  0.46783121313E+03  0.92427749832E+02 0.  0.
         23    2    4    4    0    0  0.76225482772E+02  0.16303231877E+03  0.47313972712E+03  0.51469936422E+03  0.93082613641E+02 0.  0.
          4    1    3    3  502    0  0.69350781527E+02  0.29997322929E+02 -0.11493745247E+03  0.13754994824E+03  0.00000000000E+00 0. -1.
         -3    1    3    3    0  502  0.20615865372E+03 -0.47161708681E+02 -0.37862915059E+03  0.43368842611E+03  0.00000000000E+00 0.  1.
         13    1    5    5    0    0 -0.11940897687E+03 -0.69389384196E+02 -0.14222218554E+03  0.19824363913E+03  0.00000000000E+00 0. -1.
        -13    1    5    5    0    0 -0.23232594115E+03 -0.76478548824E+02 -0.11337172793E+03  0.26958757400E+03  0.00000000000E+00 0.  1.
          4    1    6    6  503    0  0.98076558768E+02  0.13343374072E+03  0.37738956086E+03  0.41212432006E+03  0.00000000000E+00 0.  1.
         -4    1    6    6    0  503 -0.21851075996E+02  0.29598578051E+02  0.95750166263E+02  0.10257504416E+03  0.00000000000E+00 0. -1.
<mgrwt>
<rscale>  0 0.15290554E+04</rscale>
<asrwt>0</asrwt>
<pdfrwt beam="1">  1        2 0.98288320E-01 0.15290554E+04</pdfrwt>
<pdfrwt beam="2">  1       -1 0.14075306E+00 0.15290554E+04</pdfrwt>
<totfact> 0.20912375E+01</totfact>
</mgrwt>
</event>
<event>
12    7  0.1661464E-007  0.1747314E+04  0.7818608E-02  0.8734830E-01
         -1   -1    0    0    0  501 -0.00000000000E+00  0.00000000000E+00  0.13546402496E+04  0.13546402496E+04  0.00000000000E+00 0.  1.
          2   -1    0    0  501    0  0.00000000000E+00 -0.00000000000E+00 -0.56345338752E+03  0.56345338752E+03  0.00000000000E+00 0. -1.
         24    2    1    2    0    0 -0.30495280492E+02 -0.58537613398E+03  0.41013511665E+02  0.59302502286E+03  0.80008682240E+02 0.  0.
        254    2    1    2    0    0  0.30495280492E+02  0.58537613398E+03  0.75017335043E+03  0.13250686143E+04  0.92165698419E+03 0.  0.
         23    2    4    4    0    0  0.19162348289E+03 -0.17758666605E+03  0.34184131014E+03  0.44003537220E+03  0.92298777415E+02 0.  0.
         23    2    4    4    0    0 -0.16112820240E+03  0.76296280003E+03  0.40833204029E+03  0.88503324208E+03  0.92055703955E+02 0.  0.
          4    1    3    3  502    0 -0.15953029040E+02 -0.42376790403E+03 -0.59305126610E+01  0.42410954552E+03  0.00000000000E+00 0. -1.
         -3    1    3    3    0  502 -0.14542251452E+02 -0.16160822995E+03  0.46944024327E+02  0.16891547734E+03  0.00000000000E+00 0.  1.
         13    1    5    5    0    0  0.15027329178E+03 -0.83446477075E+02  0.24099866513E+03  0.29601644102E+03  0.00000000000E+00 0.  1.
        -13    1    5    5    0    0  0.41350191106E+02 -0.94140188975E+02  0.10084264502E+03  0.14401893118E+03  0.00000000000E+00 0. -1.
          1    1    6    6  503    0 -0.60108605305E+02  0.46274741801E+03  0.21352594478E+03  0.51316814632E+03  0.00000000000E+00 0. -1.
         -1    1    6    6    0  503 -0.10101959709E+03  0.30021538202E+03  0.19480609551E+03  0.37186509576E+03  0.00000000000E+00 0.  1.
<mgrwt>
<rscale>  0 0.17473141E+04</rscale>
<asrwt>0</asrwt>
<pdfrwt beam="1">  1        2 0.86685137E-01 0.17473141E+04</pdfrwt>
<pdfrwt beam="2">  1       -1 0.20840619E+00 0.17473141E+04</pdfrwt>
<totfact> 0.76352096E+00</totfact>
</mgrwt>
</event>
<event>
12    7  0.1661464E-007  0.1353463E+04  0.7818608E-02  0.8988211E-01
         -1   -1    0    0    0  501 -0.00000000000E+00  0.00000000000E+00  0.66321685281E+03  0.66321685281E+03  0.00000000000E+00 0.  1.
          2   -1    0    0  501    0  0.00000000000E+00 -0.00000000000E+00 -0.69052137092E+03  0.69052137092E+03  0.00000000000E+00 0. -1.
         24    2    1    2    0    0 -0.23961219769E+03 -0.17256670503E+03 -0.24406341164E+03  0.39042026911E+03  0.75284557973E+02 0.  0.
        254    2    1    2    0    0  0.23961219769E+03  0.17256670503E+03  0.21675889352E+03  0.96331795462E+03  0.89095667168E+03 0.  0.
         23    2    4    4    0    0  0.17598569264E+03 -0.31221544205E+03  0.27529793266E+03  0.46082216163E+03  0.90103643945E+02 0.  0.
         23    2    4    4    0    0  0.63626505053E+02  0.48478214708E+03 -0.58539039141E+02  0.50249579299E+03  0.10006568139E+03 0.  0.
          4    1    3    3  502    0 -0.22960319358E+03 -0.14875997117E+03 -0.24066621605E+03  0.36437258825E+03  0.00000000000E+00 0. -1.
         -3    1    3    3    0  502 -0.10009004116E+02 -0.23806733859E+02 -0.33971955860E+01  0.26047680862E+02  0.00000000000E+00 0.  1.
         13    1    5    5    0    0  0.42974679026E+02 -0.18219551270E+02  0.39795318316E+02  0.61338751583E+02  0.00000000000E+00 0.  1.
        -13    1    5    5    0    0  0.13301101361E+03 -0.29399589078E+03  0.23550261435E+03  0.39948341005E+03  0.00000000000E+00 0. -1.
          1    1    6    6  503    0  0.78308523727E+02  0.46890726528E+03 -0.65242535305E+02  0.47985710033E+03  0.00000000000E+00 0. -1.
         -1    1    6    6    0  503 -0.14682018674E+02  0.15874881799E+02  0.67034961639E+01  0.22638692659E+02  0.00000000000E+00 0.  1.
<mgrwt>
<rscale>  0 0.13534628E+04</rscale>
<asrwt>0</asrwt>
<pdfrwt beam="1">  1        2 0.10623406E+00 0.13534628E+04</pdfrwt>
<pdfrwt beam="2">  1       -1 0.10203336E+00 0.13534628E+04</pdfrwt>
<totfact> 0.42332293E+01</totfact>
</mgrwt>
</event>
<event>
12    7  0.1661464E-007  0.1315402E+04  0.7818608E-02  0.9017439E-01
         -1   -1    0    0    0  501 -0.00000000000E+00  0.00000000000E+00  0.14440039637E+04  0.14440039637E+04  0.00000000000E+00 0.  1.
          2   -1    0    0  501    0  0.00000000000E+00 -0.00000000000E+00 -0.29956347840E+03  0.29956347840E+03  0.00000000000E+00 0. -1.
         24    2    1    2    0    0  0.19772597214E+03 -0.46857916871E+02 -0.61107061940E+02  0.22583348253E+03  0.77301127945E+02 0.  0.
        254    2    1    2    0    0 -0.19772597214E+03  0.46857916871E+02  0.12055475472E+04  0.15177339596E+04  0.89937770650E+03 0.  0.
         23    2    4    4    0    0  0.31146972436E+03 -0.16307585207E+03  0.51217920860E+03  0.62788888705E+03  0.91158049756E+02 0.  0.
         23    2    4    4    0    0 -0.50919569650E+03  0.20993376894E+03  0.69336833863E+03  0.88984507251E+03  0.87818878345E+02 0.  0.
          4    1    3    3  502    0  0.49286536033E+02  0.13920900259E+02 -0.38009787357E+02  0.63778507611E+02  0.00000000000E+00 0. -1.
         -3    1    3    3    0  502  0.14843943611E+03 -0.60778817130E+02 -0.23097274582E+02  0.16205497492E+03  0.00000000000E+00 0.  1.
         13    1    5    5    0    0  0.56435286760E+02 -0.96026681318E+01  0.40421242372E+02  0.70078739014E+02  0.00000000000E+00 0. -1.
        -13    1    5    5    0    0  0.25503443760E+03 -0.15347318394E+03  0.47175796623E+03  0.55781014803E+03  0.00000000000E+00 0.  1.
          2    1    6    6  503    0 -0.23630577834E+02  0.33289137672E+02  0.57360841126E+02  0.70404808007E+02  0.00000000000E+00 0. -1.
         -2    1    6    6    0  503 -0.48556511866E+03  0.17664463127E+03  0.63600749750E+03  0.81944026451E+03  0.00000000000E+00 0.  1.
<mgrwt>
<rscale>  0 0.13154024E+04</rscale>
<asrwt>0</asrwt>
<pdfrwt beam="1">  1        2 0.46086690E-01 0.13154024E+04</pdfrwt>
<pdfrwt beam="2">  1       -1 0.22215445E+00 0.13154024E+04</pdfrwt>
<totfact> 0.13136947E+01</totfact>
</mgrwt>
</event>
<event>
12    7  0.1661464E-007  0.2605450E+04  0.7818608E-02  0.8366352E-01
         -1   -1    0    0    0  501 -0.00000000000E+00  0.00000000000E+00  0.13919940358E+04  0.13919940358E+04  0.00000000000E+00 0.  1.
          2   -1    0    0  501    0  0.00000000000E+00 -0.00000000000E+00 -0.12191812307E+04  0.12191812307E+04  0.00000000000E+00 0. -1.
         24    2    1    2    0    0  0.80725821242E+02  0.16766688864E+03  0.12037229641E+04  0.12206724172E+04  0.80394851114E+02 0.  0.
        254    2    1    2    0    0 -0.80725821242E+02 -0.16766688864E+03 -0.10309101589E+04  0.13905028493E+04  0.91438152555E+03 0.  0.
         23    2    4    4    0    0  0.32073351010E+03 -0.33066620215E+03 -0.38634173171E+03  0.60818248415E+03  0.91738097949E+02 0.  0.
         23    2    4    4    0    0 -0.40145933135E+03  0.16299931351E+03 -0.64456842724E+03  0.78232036513E+03  0.93905939011E+02 0.  0.
          2    1    3    3  502    0  0.43569754207E+02  0.16947373774E+02  0.32466229608E+03  0.32801088923E+03  0.00000000000E+00 0. -1.
         -3    1    3    3    0  502  0.37156067035E+02  0.15071951487E+03  0.87906066804E+03  0.89266152800E+03  0.00000000000E+00 0.  1.
         13    1    5    5    0    0  0.30610650007E+03 -0.33558932768E+03 -0.37204172810E+03  0.58714260081E+03  0.00000000000E+00 0.  1.
        -13    1    5    5    0    0  0.14627010032E+02  0.49231255337E+01 -0.14300003610E+02  0.21039883335E+02  0.00000000000E+00 0. -1.
          3    1    6    6  503    0 -0.36120273140E+03  0.13167814919E+03 -0.51196767361E+03  0.64024795741E+03  0.00000000000E+00 0. -1.
         -3    1    6    6    0  503 -0.40256599942E+02  0.31321164318E+02 -0.13260075363E+03  0.14207240773E+03  0.00000000000E+00 0.  1.
<mgrwt>
<rscale>  0 0.26054504E+04</rscale>
<asrwt>0</asrwt>
<pdfrwt beam="1">  1        2 0.18756634E+00 0.26054504E+04</pdfrwt>
<pdfrwt beam="2">  1       -1 0.21415293E+00 0.26054504E+04</pdfrwt>
<totfact> 0.22395627E+00</totfact>
</mgrwt>
</event>
<event>
12    7  0.1661464E-007  0.2151284E+04  0.7818608E-02  0.8538983E-01
         -1   -1    0    0    0  501 -0.00000000000E+00  0.00000000000E+00  0.47905265172E+03  0.47905265172E+03  0.00000000000E+00 0.  1.
          2   -1    0    0  501    0  0.00000000000E+00 -0.00000000000E+00 -0.24151946837E+04  0.24151946837E+04  0.00000000000E+00 0. -1.
         24    2    1    2    0    0  0.50626773518E+03  0.15017909437E+03  0.15645527922E+03  0.55646829804E+03  0.79485421649E+02 0.  0.
        254    2    1    2    0    0 -0.50626773518E+03 -0.15017909437E+03 -0.20925973112E+04  0.23377790374E+04  0.89854690513E+03 0.  0.
         23    2    4    4    0    0 -0.67815924499E+03  0.12967132809E+03 -0.12984728542E+04  0.14736578891E+04  0.94452136866E+02 0.  0.
         23    2    4    4    0    0  0.17189150981E+03 -0.27985042246E+03 -0.79412445706E+03  0.86412114833E+03  0.90602183097E+02 0.  0.
          2    1    3    3  502    0  0.58238850524E+02  0.40054606951E+01  0.40775567092E+02  0.71207122518E+02  0.00000000000E+00 0. -1.
         -1    1    3    3    0  502  0.44802888466E+03  0.14617363367E+03  0.11567971213E+03  0.48526117552E+03  0.00000000000E+00 0.  1.
         13    1    5    5    0    0 -0.30121268936E+03  0.34185396822E+02 -0.65630639487E+03  0.72293555006E+03  0.00000000000E+00 0. -1.
        -13    1    5    5    0    0 -0.37694655563E+03  0.95485931268E+02 -0.64216645931E+03  0.75072233904E+03  0.00000000000E+00 0.  1.
          1    1    6    6  503    0  0.16905563332E+03 -0.20496503958E+03 -0.62633517170E+03  0.68035742218E+03  0.00000000000E+00 0. -1.
         -1    1    6    6    0  503  0.28358764957E+01 -0.74885382880E+02 -0.16778928537E+03  0.18376372615E+03  0.00000000000E+00 0.  1.
<mgrwt>
<rscale>  0 0.21512837E+04</rscale>
<asrwt>0</asrwt>
<pdfrwt beam="1">  1        2 0.37156841E+00 0.21512837E+04</pdfrwt>
<pdfrwt beam="2">  1       -1 0.73700408E-01 0.21512837E+04</pdfrwt>
<totfact> 0.75473391E+00</totfact>
</mgrwt>
</event>
<event>
12    7  0.1661464E-007  0.3767925E+04  0.7818608E-02  0.8053073E-01
          2   -1    0    0  501    0  0.00000000000E+00  0.00000000000E+00  0.15365748625E+04  0.15365748625E+04  0.00000000000E+00 0. -1.
         -1   -1    0    0    0  501 -0.00000000000E+00 -0.00000000000E+00 -0.23098868166E+04  0.23098868166E+04  0.00000000000E+00 0.  1.
         24    2    1    2    0    0  0.11659250943E+04 -0.13414615905E+04 -0.38285005824E+03  0.18199148122E+04  0.81334078304E+02 0.  0.
        254    2    1    2    0    0 -0.11659250943E+04  0.13414615905E+04 -0.39046189580E+03  0.20265468669E+04  0.89192555038E+03 0.  0.
         23    2    4    4    0    0 -0.10820167776E+04  0.74193381392E+03 -0.26573448760E+02  0.13154703558E+04  0.92358094050E+02 0.  0.
         23    2    4    4    0    0 -0.83908316662E+02  0.59952777661E+03 -0.36388844704E+03  0.71107651112E+03  0.82102632407E+02 0.  0.
          4    1    3    3  502    0  0.64784875246E+02 -0.56905225647E+02 -0.53618575265E+01  0.86394642673E+02  0.00000000000E+00 0. -1.
         -1    1    3    3    0  502  0.11011402190E+04 -0.12845563649E+04 -0.37748820071E+03  0.17335201695E+04  0.00000000000E+00 0.  1.
         13    1    5    5    0    0 -0.34689078599E+03  0.19497745604E+03 -0.31494450267E+02  0.39917580859E+03  0.00000000000E+00 0. -1.
        -13    1    5    5    0    0 -0.73512599162E+03  0.54695635788E+03  0.49210015063E+01  0.91629454720E+03  0.00000000000E+00 0.  1.
          2    1    6    6  503    0 -0.93775805286E+02  0.44084243478E+03 -0.28834550769E+03  0.53505054505E+03  0.00000000000E+00 0.  1.
         -2    1    6    6    0  503  0.98674886243E+01  0.15868534184E+03 -0.75542939345E+02  0.17602596607E+03  0.00000000000E+00 0. -1.
<mgrwt>
<rscale>  0 0.37679246E+04</rscale>
<asrwt>0</asrwt>
<pdfrwt beam="1">  1        2 0.23639613E+00 0.37679246E+04</pdfrwt>
<pdfrwt beam="2">  1       -1 0.35536720E+00 0.37679246E+04</pdfrwt>
<totfact> 0.15852303E-01</totfact>
</mgrwt>
</event>
<event>
12    7  0.1661464E-007  0.1454147E+04  0.7818608E-02  0.8915531E-01
         -1   -1    0    0    0  501 -0.00000000000E+00  0.00000000000E+00  0.27067883472E+03  0.27067883472E+03  0.00000000000E+00 0.  1.
          2   -1    0    0  501    0  0.00000000000E+00 -0.00000000000E+00 -0.19530001419E+04  0.19530001419E+04  0.00000000000E+00 0. -1.
         24    2    1    2    0    0  0.34299200081E+02  0.40722634749E+03 -0.79373295977E+03  0.89621071560E+03  0.78561454291E+02 0.  0.
        254    2    1    2    0    0 -0.34299200081E+02 -0.40722634749E+03 -0.88858834741E+03  0.13274682610E+04  0.89753718566E+03 0.  0.
         23    2    4    4    0    0 -0.14301555528E+03  0.25239478585E+03 -0.20650332445E+03  0.36802535260E+03  0.92964832970E+02 0.  0.
         23    2    4    4    0    0  0.10871635520E+03 -0.65962113335E+03 -0.68208502295E+03  0.95944290841E+03  0.91495521832E+02 0.  0.
          4    1    3    3  502    0 -0.21997089294E+02  0.61831023506E+02 -0.10896065033E+03  0.12719815536E+03  0.00000000000E+00 0. -1.
         -3    1    3    3    0  502  0.56296289376E+02  0.34539532399E+03 -0.68477230944E+03  0.76901256024E+03  0.00000000000E+00 0.  1.
         13    1    5    5    0    0 -0.10114590118E+03  0.23520702002E+03 -0.15430032029E+03  0.29893381279E+03  0.00000000000E+00 0. -1.
        -13    1    5    5    0    0 -0.41869654109E+02  0.17187765839E+02 -0.52203004164E+02  0.69091539811E+02  0.00000000000E+00 0.  1.
          4    1    6    6  503    0  0.10930838529E+03 -0.41903331256E+03 -0.46450192732E+03  0.63505848598E+03  0.00000000000E+00 0.  1.
         -4    1    6    6    0  503 -0.59203009112E+00 -0.24058782078E+03 -0.21758309563E+03  0.32438442243E+03  0.00000000000E+00 0. -1.
<mgrwt>
<rscale>  0 0.14541469E+04</rscale>
<asrwt>0</asrwt>
<pdfrwt beam="1">  1        2 0.30046156E+00 0.14541469E+04</pdfrwt>
<pdfrwt beam="2">  1       -1 0.41642898E-01 0.14541469E+04</pdfrwt>
<totfact> 0.44338944E+01</totfact>
</mgrwt>
</event>
<event>
12    7  0.1661464E-007  0.2233780E+04  0.7818608E-02  0.8504498E-01
         -1   -1    0    0    0  501 -0.00000000000E+00  0.00000000000E+00  0.97142790253E+03  0.97142790253E+03  0.00000000000E+00 0.  1.
          2   -1    0    0  501    0  0.00000000000E+00 -0.00000000000E+00 -0.12841341468E+04  0.12841341468E+04  0.00000000000E+00 0. -1.
         24    2    1    2    0    0  0.52804823495E+03 -0.17777831409E+03 -0.88681943223E+03  0.10502928321E+04  0.78906656357E+02 0.  0.
        254    2    1    2    0    0 -0.52804823495E+03  0.17777831409E+03  0.57411318799E+03  0.12052692172E+04  0.90145874330E+03 0.  0.
         23    2    4    4    0    0 -0.64898754988E+03  0.40387274734E+03  0.31518937953E+03  0.83152720557E+03  0.88289935475E+02 0.  0.
         23    2    4    4    0    0  0.12093931492E+03 -0.22609443325E+03  0.25892380846E+03  0.37374201161E+03  0.83045421399E+02 0.  0.
          2    1    3    3  502    0  0.43733627193E+03 -0.17691001219E+03 -0.75509252949E+03  0.89035099553E+03  0.00000000000E+00 0. -1.
         -1    1    3    3    0  502  0.90711963023E+02 -0.86830190000E+00 -0.13172690274E+03  0.15994183658E+03  0.00000000000E+00 0.  1.
         13    1    5    5    0    0 -0.26957964442E+03  0.11730105958E+03  0.12242347836E+03  0.31846543191E+03  0.00000000000E+00 0.  1.
        -13    1    5    5    0    0 -0.37940790545E+03  0.28657168776E+03  0.19276590117E+03  0.51306177367E+03  0.00000000000E+00 0. -1.
          1    1    6    6  503    0  0.10143798672E+03 -0.22484621251E+03  0.25294131167E+03  0.35330552158E+03  0.00000000000E+00 0. -1.
         -1    1    6    6    0  503  0.19501328206E+02 -0.12482207334E+01  0.59824967888E+01  0.20436490027E+02  0.00000000000E+00 0.  1.
<mgrwt>
<rscale>  0 0.22337804E+04</rscale>
<asrwt>0</asrwt>
<pdfrwt beam="1">  1        2 0.19755910E+00 0.22337804E+04</pdfrwt>
<pdfrwt beam="2">  1       -1 0.14945045E+00 0.22337804E+04</pdfrwt>
<totfact> 0.61828654E+00</totfact>
</mgrwt>
</event>
<event>
12    7  0.1661464E-007  0.1583839E+04  0.7818608E-02  0.8830538E-01
         -1   -1    0    0    0  501 -0.00000000000E+00  0.00000000000E+00  0.29753369299E+03  0.29753369299E+03  0.00000000000E+00 0.  1.
          2   -1    0    0  501    0  0.00000000000E+00 -0.00000000000E+00 -0.21077838681E+04  0.21077838681E+04  0.00000000000E+00 0. -1.
         24    2    1    2    0    0  0.40990495585E+03 -0.35382600196E+03 -0.74938988088E+03  0.92793690659E+03  0.79163100938E+02 0.  0.
        254    2    1    2    0    0 -0.40990495585E+03  0.35382600196E+03 -0.10608602942E+04  0.14773806545E+04  0.87407901357E+03 0.  0.
         23    2    4    4    0    0 -0.40514502530E+03  0.58946238985E+03 -0.96996443902E+03  0.12086288521E+04  0.91347077640E+02 0.  0.
         23    2    4    4    0    0 -0.47599305544E+01 -0.23563638789E+03 -0.90895855215E+02  0.26875180242E+03  0.91751351876E+02 0.  0.
          2    1    3    3  502    0  0.21290553439E+03 -0.14531478036E+03 -0.40019965244E+03  0.47603037065E+03  0.00000000000E+00 0. -1.
         -1    1    3    3    0  502  0.19699942146E+03 -0.20851122160E+03 -0.34919022844E+03  0.45190653594E+03  0.00000000000E+00 0.  1.
         13    1    5    5    0    0 -0.39921543156E+03  0.54278325141E+03 -0.89869350475E+03  0.11232259943E+04  0.00000000000E+00 0.  1.
        -13    1    5    5    0    0 -0.59295937360E+01  0.46679138442E+02 -0.71270934265E+02  0.85402857789E+02  0.00000000000E+00 0. -1.
          1    1    6    6  503    0 -0.13000760314E+02 -0.10339138262E+03 -0.87721035586E+02  0.13621225295E+03  0.00000000000E+00 0. -1.
         -1    1    6    6    0  503  0.82408297593E+01 -0.13224500527E+03 -0.31748196290E+01  0.13253954947E+03  0.00000000000E+00 0.  1.
<mgrwt>
<rscale>  0 0.15838393E+04</rscale>
<asrwt>0</asrwt>
<pdfrwt beam="1">  1        2 0.32427445E+00 0.15838393E+04</pdfrwt>
<pdfrwt beam="2">  1       -1 0.45774413E-01 0.15838393E+04</pdfrwt>
<totfact> 0.30190275E+01</totfact>
</mgrwt>
</event>
<event>
12    7  0.1661464E-007  0.3259711E+04  0.7818608E-02  0.8173223E-01
          2   -1    0    0  501    0  0.00000000000E+00  0.00000000000E+00  0.86468255177E+03  0.86468255177E+03  0.00000000000E+00 0. -1.
         -1   -1    0    0    0  501 -0.00000000000E+00 -0.00000000000E+00 -0.30721432656E+04  0.30721432656E+04  0.00000000000E+00 0.  1.
         24    2    1    2    0    0  0.64975151591E+03  0.11334031757E+04 -0.19142534829E+04  0.23191198881E+04  0.84680973290E+02 0.  0.
        254    2    1    2    0    0 -0.64975151591E+03 -0.11334031757E+04 -0.29320723093E+03  0.16177059293E+04  0.90786684177E+03 0.  0.
         23    2    4    4    0    0 -0.30651603246E+02  0.66251981990E+02 -0.23397631903E+03  0.26341271969E+03  0.96501280445E+02 0.  0.
         23    2    4    4    0    0 -0.61909991266E+03 -0.11996551577E+04 -0.59230911901E+02  0.13542932096E+04  0.90247423792E+02 0.  0.
          2    1    3    3  502    0  0.54849450391E+02  0.14119089457E+03 -0.24880397509E+03  0.29128465277E+03  0.00000000000E+00 0. -1.
         -1    1    3    3    0  502  0.59490206552E+03  0.99221228114E+03 -0.16654495079E+04  0.20278352353E+04  0.00000000000E+00 0.  1.
         13    1    5    5    0    0  0.31671417001E+01  0.82411787527E+02 -0.17616357708E+03  0.19451308285E+03  0.00000000000E+00 0. -1.
        -13    1    5    5    0    0 -0.33818744946E+02 -0.16159805537E+02 -0.57812741947E+02  0.68899636836E+02  0.00000000000E+00 0.  1.
          1    1    6    6  503    0 -0.28994314227E+03 -0.55849292890E+03 -0.72655784838E+02  0.63345105608E+03  0.00000000000E+00 0.  1.
         -1    1    6    6    0  503 -0.32915677039E+03 -0.64116222880E+03  0.13424872937E+02  0.72084215356E+03  0.00000000000E+00 0. -1.
<mgrwt>
<rscale>  0 0.32597108E+04</rscale>
<asrwt>0</asrwt>
<pdfrwt beam="1">  1        2 0.13302808E+00 0.32597108E+04</pdfrwt>
<pdfrwt beam="2">  1       -1 0.47263743E+00 0.32597108E+04</pdfrwt>
<totfact> 0.66955570E-02</totfact>
</mgrwt>
</event>
<event>
12    7  0.1661464E-007  0.1922474E+04  0.7818608E-02  0.8643750E-01
         -1   -1    0    0    0  501 -0.00000000000E+00  0.00000000000E+00  0.10423986496E+04  0.10423986496E+04  0.00000000000E+00 0.  1.
          2   -1    0    0  501    0  0.00000000000E+00 -0.00000000000E+00 -0.88639492754E+03  0.88639492754E+03  0.00000000000E+00 0. -1.
         24    2    1    2    0    0  0.32118890092E+03  0.65041813894E+03  0.28889152281E+03  0.78496438110E+03  0.80651733413E+02 0.  0.
        254    2    1    2    0    0 -0.32118890092E+03 -0.65041813894E+03 -0.13288780073E+03  0.11438291961E+04  0.87434546757E+03 0.  0.
         23    2    4    4    0    0 -0.27328247785E+03 -0.46971604971E+03  0.32545447748E+03  0.64000891551E+03  0.91511283249E+02 0.  0.
         23    2    4    4    0    0 -0.47906423067E+02 -0.18070208923E+03 -0.45834227820E+03  0.50382028056E+03  0.93856063699E+02 0.  0.
          2    1    3    3  502    0  0.58040201374E+02  0.65296885292E+02  0.47831507854E+02  0.99600207570E+02  0.00000000000E+00 0. -1.
         -1    1    3    3    0  502  0.26314869955E+03  0.58512125365E+03  0.24106001496E+03  0.68536417353E+03  0.00000000000E+00 0.  1.
         13    1    5    5    0    0 -0.16033974705E+03 -0.28273913457E+03  0.24573798376E+03  0.40747688200E+03  0.00000000000E+00 0. -1.
        -13    1    5    5    0    0 -0.11294273080E+03 -0.18697691515E+03  0.79716493719E+02  0.23253203351E+03  0.00000000000E+00 0.  1.
          4    1    6    6  503    0 -0.10032381087E+02  0.10174171976E+02 -0.25117912183E+02  0.28897611633E+02  0.00000000000E+00 0. -1.
         -4    1    6    6    0  503 -0.37874041980E+02 -0.19087626120E+03 -0.43322436602E+03  0.47492266893E+03  0.00000000000E+00 0.  1.
<mgrwt>
<rscale>  0 0.19224743E+04</rscale>
<asrwt>0</asrwt>
<pdfrwt beam="1">  1        2 0.13636845E+00 0.19224743E+04</pdfrwt>
<pdfrwt beam="2">  1       -1 0.16036902E+00 0.19224743E+04</pdfrwt>
<totfact> 0.92784373E+00</totfact>
</mgrwt>
</event>
<event>
12    7  0.1661464E-007  0.1917091E+04  0.7818608E-02  0.8646395E-01
          2   -1    0    0  501    0  0.00000000000E+00  0.00000000000E+00  0.21159967243E+04  0.21159967243E+04  0.00000000000E+00 0. -1.
         -1   -1    0    0    0  501 -0.00000000000E+00 -0.00000000000E+00 -0.43422074568E+03  0.43422074568E+03  0.00000000000E+00 0.  1.
         24    2    1    2    0    0 -0.18516447552E+03  0.30762786150E+01  0.16156596332E+04  0.16280450832E+04  0.76677220797E+02 0.  0.
        254    2    1    2    0    0  0.18516447552E+03 -0.30762786150E+01  0.66116345424E+02  0.92217238676E+03  0.90096348055E+03 0.  0.
         23    2    4    4    0    0  0.23818579454E+03 -0.41819794851E+03  0.69318733415E+02  0.49381860465E+03  0.86195885308E+02 0.  0.
         23    2    4    4    0    0 -0.53021319016E+02  0.41512166989E+03 -0.32023879914E+01  0.42835378211E+03  0.91320568735E+02 0.  0.
          2    1    3    3  502    0 -0.16732935328E+03  0.27756073337E+02  0.13320577086E+04  0.13428131855E+04  0.00000000000E+00 0. -1.
         -1    1    3    3    0  502 -0.17835122240E+02 -0.24679794722E+02  0.28360192454E+03  0.28523189768E+03  0.00000000000E+00 0.  1.
         13    1    5    5    0    0  0.42769814561E+02 -0.15423072594E+03  0.12810404325E+02  0.16056301043E+03  0.00000000000E+00 0.  1.
        -13    1    5    5    0    0  0.19541597998E+03 -0.26396722257E+03  0.56508329091E+02  0.33325559422E+03  0.00000000000E+00 0. -1.
          4    1    6    6  503    0 -0.79125057571E+02  0.30411406167E+03 -0.57066187369E+01  0.31429079327E+03  0.00000000000E+00 0. -1.
         -4    1    6    6    0  503  0.26103738555E+02  0.11100760822E+03  0.25042307454E+01  0.11406298883E+03  0.00000000000E+00 0.  1.
<mgrwt>
<rscale>  0 0.19170912E+04</rscale>
<asrwt>0</asrwt>
<pdfrwt beam="1">  1        2 0.32553795E+00 0.19170912E+04</pdfrwt>
<pdfrwt beam="2">  1       -1 0.66803193E-01 0.19170912E+04</pdfrwt>
<totfact> 0.13916363E+01</totfact>
</mgrwt>
</event>
<event>
12    7  0.1661464E-007  0.1838005E+04  0.7818608E-02  0.8686346E-01
          2   -1    0    0  501    0  0.00000000000E+00  0.00000000000E+00  0.92391265633E+03  0.92391265633E+03  0.00000000000E+00 0. -1.
         -1   -1    0    0    0  501 -0.00000000000E+00 -0.00000000000E+00 -0.91411818035E+03  0.91411818035E+03  0.00000000000E+00 0.  1.
         24    2    1    2    0    0 -0.25991412860E+03  0.42019249861E+03 -0.48380071033E+03  0.69575581579E+03  0.76785009950E+02 0.  0.
        254    2    1    2    0    0  0.25991412860E+03 -0.42019249861E+03  0.49359518631E+03  0.11422750209E+04  0.90390205514E+03 0.  0.
         23    2    4    4    0    0 -0.26359445400E+03 -0.12461045615E+02  0.36665414381E+03  0.46082892817E+03  0.91053424034E+02 0.  0.
         23    2    4    4    0    0  0.52350858260E+03 -0.40773145299E+03  0.12694104250E+03  0.68144609272E+03  0.89154782302E+02 0.  0.
          4    1    3    3  502    0 -0.34141966677E+02  0.11387673550E+03 -0.10096348234E+03  0.15597182291E+03  0.00000000000E+00 0. -1.
         -3    1    3    3    0  502 -0.22577216192E+03  0.30631576311E+03 -0.38283722799E+03  0.53978399288E+03  0.00000000000E+00 0.  1.
         13    1    5    5    0    0 -0.23795364049E+03 -0.25074581849E+02  0.35867684855E+03  0.43116093441E+03  0.00000000000E+00 0. -1.
        -13    1    5    5    0    0 -0.25640813512E+02  0.12613536234E+02  0.79772952550E+01  0.29667993755E+02  0.00000000000E+00 0.  1.
          1    1    6    6  503    0  0.14945069208E+03 -0.13054731973E+03 -0.16614470936E+01  0.19844614498E+03  0.00000000000E+00 0. -1.
         -1    1    6    6    0  503  0.37405789052E+03 -0.27718413327E+03  0.12860248959E+03  0.48299994775E+03  0.00000000000E+00 0.  1.
<mgrwt>
<rscale>  0 0.18380047E+04</rscale>
<asrwt>0</asrwt>
<pdfrwt beam="1">  1        2 0.14214041E+00 0.18380047E+04</pdfrwt>
<pdfrwt beam="2">  1       -1 0.14063357E+00 0.18380047E+04</pdfrwt>
<totfact> 0.12570809E+01</totfact>
</mgrwt>
</event>
<event>
12    7  0.1661464E-007  0.1513598E+04  0.7818608E-02  0.8875461E-01
         -1   -1    0    0    0  501 -0.00000000000E+00  0.00000000000E+00  0.35453981778E+03  0.35453981778E+03  0.00000000000E+00 0.  1.
          2   -1    0    0  501    0  0.00000000000E+00 -0.00000000000E+00 -0.16154588458E+04  0.16154588458E+04  0.00000000000E+00 0. -1.
         24    2    1    2    0    0  0.18376526915E+03 -0.37744240612E+03 -0.88420130775E+02  0.43635830149E+03  0.79737090924E+02 0.  0.
        254    2    1    2    0    0 -0.18376526915E+03  0.37744240612E+03 -0.11724988973E+04  0.15336403621E+04  0.89502326903E+03 0.  0.
         23    2    4    4    0    0  0.56634107562E+02 -0.10747291439E+03  0.76508661432E+02  0.16948568402E+03  0.90077590700E+02 0.  0.
         23    2    4    4    0    0 -0.24039937672E+03  0.48491532051E+03 -0.12490075587E+04  0.13641546781E+04  0.89237747990E+02 0.  0.
          2    1    3    3  502    0  0.11440887075E+03 -0.24054601960E+03 -0.94874458150E+02  0.28275950924E+03  0.00000000000E+00 0. -1.
         -1    1    3    3    0  502  0.69356398402E+02 -0.13689638651E+03  0.64543273749E+01  0.15359879225E+03  0.00000000000E+00 0.  1.
         13    1    5    5    0    0  0.49218499180E+02 -0.21536044573E+02  0.61965373508E+02  0.82012007605E+02  0.00000000000E+00 0. -1.
        -13    1    5    5    0    0  0.74156083819E+01 -0.85936869818E+02  0.14543287924E+02  0.87473676414E+02  0.00000000000E+00 0.  1.
          1    1    6    6  503    0 -0.92989409358E+02  0.22910006199E+03 -0.67103010005E+03  0.71513303925E+03  0.00000000000E+00 0. -1.
         -1    1    6    6    0  503 -0.14740996736E+03  0.25581525852E+03 -0.57797745864E+03  0.64902163883E+03  0.00000000000E+00 0.  1.
<mgrwt>
<rscale>  0 0.15135977E+04</rscale>
<asrwt>0</asrwt>
<pdfrwt beam="1">  1        2 0.24853213E+00 0.15135977E+04</pdfrwt>
<pdfrwt beam="2">  1       -1 0.54544588E-01 0.15135977E+04</pdfrwt>
<totfact> 0.40816861E+01</totfact>
</mgrwt>
</event>
<event>
12    7  0.1661464E-007  0.1684415E+04  0.7818608E-02  0.8770303E-01
         -1   -1    0    0    0  501 -0.00000000000E+00  0.00000000000E+00  0.60342501544E+03  0.60342501544E+03  0.00000000000E+00 0.  1.
          2   -1    0    0  501    0  0.00000000000E+00 -0.00000000000E+00 -0.11754792408E+04  0.11754792408E+04  0.00000000000E+00 0. -1.
         24    2    1    2    0    0  0.89699943275E+02  0.35723763324E+03  0.29263976266E+03  0.47703126661E+03  0.79094830475E+02 0.  0.
        254    2    1    2    0    0 -0.89699943275E+02 -0.35723763324E+03 -0.86469398806E+03  0.13018729897E+04  0.90084004232E+03 0.  0.
         23    2    4    4    0    0 -0.10893839356E+03 -0.31664589270E+03 -0.10419749805E+04  0.10982808989E+04  0.91525285899E+02 0.  0.
         23    2    4    4    0    0  0.19238450285E+02 -0.40591740544E+02  0.17728099244E+03  0.20359209078E+03  0.89461621823E+02 0.  0.
          4    1    3    3  502    0  0.66571574321E+02  0.20890424344E+03  0.12657884802E+03  0.25316982877E+03  0.00000000000E+00 0. -1.
         -3    1    3    3    0  502  0.23128368954E+02  0.14833338980E+03  0.16606091464E+03  0.22386143784E+03  0.00000000000E+00 0.  1.
         13    1    5    5    0    0 -0.16547181451E+01 -0.60245937270E+02 -0.10628712690E+03  0.12218536899E+03  0.00000000000E+00 0. -1.
        -13    1    5    5    0    0 -0.10728367541E+03 -0.25639995543E+03 -0.93568785360E+03  0.97609552991E+03  0.00000000000E+00 0.  1.
          2    1    6    6  503    0  0.27176267772E+02 -0.63744337431E+02  0.93950649664E+02  0.11674165776E+03  0.00000000000E+00 0.  1.
         -2    1    6    6    0  503 -0.79378174869E+01  0.23152596887E+02  0.83330342771E+02  0.86850433018E+02  0.00000000000E+00 0. -1.
<mgrwt>
<rscale>  0 0.16844151E+04</rscale>
<asrwt>0</asrwt>
<pdfrwt beam="1">  1        2 0.18084296E+00 0.16844151E+04</pdfrwt>
<pdfrwt beam="2">  1       -1 0.92834619E-01 0.16844151E+04</pdfrwt>
<totfact> 0.24005698E+01</totfact>
</mgrwt>
</event>
<event>
12    7  0.1661464E-007  0.1862336E+04  0.7818608E-02  0.8673835E-01
          2   -1    0    0  501    0  0.00000000000E+00  0.00000000000E+00  0.73146298507E+03  0.73146298507E+03  0.00000000000E+00 0. -1.
         -1   -1    0    0    0  501 -0.00000000000E+00 -0.00000000000E+00 -0.11853970832E+04  0.11853970832E+04  0.00000000000E+00 0.  1.
         24    2    1    2    0    0 -0.18063623070E+03 -0.10113503665E+03 -0.86649301647E+03  0.89446873231E+03  0.80040127450E+02 0.  0.
        254    2    1    2    0    0  0.18063623070E+03  0.10113503665E+03  0.41255891830E+03  0.10223913360E+04  0.91226171650E+03 0.  0.
         23    2    4    4    0    0  0.48768853491E+03  0.25186115099E+03  0.35652191704E+03  0.66095966226E+03  0.92117595187E+02 0.  0.
         23    2    4    4    0    0 -0.30705230421E+03 -0.15072611435E+03  0.56037001254E+02  0.36143167374E+03  0.10243646912E+03 0.  0.
          2    1    3    3  502    0 -0.44810130908E+02 -0.16034117478E+02 -0.92188242912E+02  0.10374831510E+03  0.00000000000E+00 0. -1.
         -1    1    3    3    0  502 -0.13582609979E+03 -0.85100919168E+02 -0.77430477356E+03  0.79072041721E+03  0.00000000000E+00 0.  1.
         13    1    5    5    0    0  0.19392421833E+03  0.14870761370E+03  0.17479576924E+03  0.30045651561E+03  0.00000000000E+00 0. -1.
        -13    1    5    5    0    0  0.29376431658E+03  0.10315353729E+03  0.18172614780E+03  0.36050314665E+03  0.00000000000E+00 0.  1.
          2    1    6    6  503    0 -0.22828708917E+03 -0.12684733825E+03 -0.12290970312E+01  0.26116422607E+03  0.00000000000E+00 0. -1.
         -2    1    6    6    0  503 -0.78765215041E+02 -0.23878776100E+02  0.57266098285E+02  0.10026744767E+03  0.00000000000E+00 0.  1.
<mgrwt>
<rscale>  0 0.18623363E+04</rscale>
<asrwt>0</asrwt>
<pdfrwt beam="1">  1        2 0.11253277E+00 0.18623363E+04</pdfrwt>
<pdfrwt beam="2">  1       -1 0.18236878E+00 0.18623363E+04</pdfrwt>
<totfact> 0.83126678E+00</totfact>
</mgrwt>
</event>
<event>
12    7  0.1661464E-007  0.2851804E+04  0.7818608E-02  0.8287363E-01
         -1   -1    0    0    0  501 -0.00000000000E+00  0.00000000000E+00  0.14065775910E+04  0.14065775910E+04  0.00000000000E+00 0.  1.
          2   -1    0    0  501    0  0.00000000000E+00 -0.00000000000E+00 -0.14454918545E+04  0.14454918545E+04  0.00000000000E+00 0. -1.
         24    2    1    2    0    0 -0.10212385705E+04  0.35209268578E+02 -0.80281389062E+03  0.13019000871E+04  0.79156701071E+02 0.  0.
        254    2    1    2    0    0  0.10212385705E+04 -0.35209268578E+02  0.76389962709E+03  0.15501693585E+04  0.88051944282E+03 0.  0.
         23    2    4    4    0    0 -0.72742775659E+02  0.11418116793E+03 -0.57936492193E+02  0.17071709487E+03  0.86364569316E+02 0.  0.
         23    2    4    4    0    0  0.10939813461E+04 -0.14939043651E+03  0.82183611929E+03  0.13794522636E+04  0.91439883618E+02 0.  0.
          2    1    3    3  502    0 -0.77276677635E+03  0.27833220145E+02 -0.64944935557E+03  0.10098156486E+04  0.00000000000E+00 0. -1.
         -1    1    3    3    0  502 -0.24847179413E+03  0.73760484327E+01 -0.15336453505E+03  0.29208443844E+03  0.00000000000E+00 0.  1.
         13    1    5    5    0    0 -0.21309773048E+02  0.42486367691E+02 -0.66858113234E+02  0.82031732714E+02  0.00000000000E+00 0.  1.
        -13    1    5    5    0    0 -0.51433002611E+02  0.71694800240E+02  0.89216210402E+01  0.88685362158E+02  0.00000000000E+00 0. -1.
          1    1    6    6  503    0  0.39802918174E+03 -0.28654466178E+02  0.25264550369E+03  0.47231139990E+03  0.00000000000E+00 0. -1.
         -1    1    6    6    0  503  0.69595216441E+03 -0.12073597033E+03  0.56919061560E+03  0.90714086368E+03  0.00000000000E+00 0.  1.
<mgrwt>
<rscale>  0 0.28518040E+04</rscale>
<asrwt>0</asrwt>
<pdfrwt beam="1">  1        2 0.22238336E+00 0.28518040E+04</pdfrwt>
<pdfrwt beam="2">  1       -1 0.21639655E+00 0.28518040E+04</pdfrwt>
<totfact> 0.15651416E+00</totfact>
</mgrwt>
</event>
<event>
12    7  0.1661464E-007  0.1910441E+04  0.7818608E-02  0.8649677E-01
         -1   -1    0    0    0  501 -0.00000000000E+00  0.00000000000E+00  0.81418724966E+03  0.81418724966E+03  0.00000000000E+00 0.  1.
          2   -1    0    0  501    0  0.00000000000E+00 -0.00000000000E+00 -0.11206836574E+04  0.11206836574E+04  0.00000000000E+00 0. -1.
         24    2    1    2    0    0 -0.19971419703E+03 -0.20379145784E+03  0.58224205261E+03  0.65337686132E+03  0.80490970237E+02 0.  0.
        254    2    1    2    0    0  0.19971419703E+03  0.20379145784E+03 -0.88873846035E+03  0.12814940457E+04  0.87803998746E+03 0.  0.
         23    2    4    4    0    0  0.25345198841E+03 -0.17803913721E+03 -0.16878105782E+02  0.32383781977E+03  0.93006549526E+02 0.  0.
         23    2    4    4    0    0 -0.53737791372E+02  0.38183059506E+03 -0.87186035457E+03  0.95765622597E+03  0.91008877188E+02 0.  0.
          4    1    3    3  502    0 -0.38004914485E+02 -0.54743148893E+02  0.73947961195E+02  0.99546405463E+02  0.00000000000E+00 0. -1.
         -1    1    3    3    0  502 -0.16170928255E+03 -0.14904830895E+03  0.50829409142E+03  0.55383045586E+03  0.00000000000E+00 0.  1.
         13    1    5    5    0    0  0.12116584431E+02 -0.28121303782E+02 -0.25124443049E+02  0.39608799316E+02  0.00000000000E+00 0.  1.
        -13    1    5    5    0    0  0.24133540397E+03 -0.14991783343E+03  0.82463372674E+01  0.28422902046E+03  0.00000000000E+00 0. -1.
          3    1    6    6  503    0 -0.73383984504E+02  0.31002949791E+03 -0.65497127096E+03  0.72834803805E+03  0.00000000000E+00 0. -1.
         -3    1    6    6    0  503  0.19646193133E+02  0.71801097149E+02 -0.21688908361E+03  0.22930818792E+03  0.00000000000E+00 0.  1.
<mgrwt>
<rscale>  0 0.19104411E+04</rscale>
<asrwt>0</asrwt>
<pdfrwt beam="1">  1        2 0.17241287E+00 0.19104411E+04</pdfrwt>
<pdfrwt beam="2">  1       -1 0.12525958E+00 0.19104411E+04</pdfrwt>
<totfact> 0.12571561E+01</totfact>
</mgrwt>
</event>
<event>
12    7  0.1661464E-007  0.2000875E+04  0.7818608E-02  0.8606212E-01
          2   -1    0    0  501    0  0.00000000000E+00  0.00000000000E+00  0.25027695566E+04  0.25027695566E+04  0.00000000000E+00 0. -1.
         -1   -1    0    0    0  501 -0.00000000000E+00 -0.00000000000E+00 -0.39990701230E+03  0.39990701230E+03  0.00000000000E+00 0.  1.
         24    2    1    2    0    0  0.56503545853E+02  0.38169873815E+02 -0.31021836780E+03  0.32806519692E+03  0.82108146672E+02 0.  0.
        254    2    1    2    0    0 -0.56503545853E+02 -0.38169873815E+02  0.24130809121E+04  0.25746113719E+04  0.89499421136E+03 0.  0.
         23    2    4    4    0    0 -0.26074782725E+03 -0.10384999606E+03  0.21808880709E+03  0.36732668795E+03  0.92692593055E+02 0.  0.
         23    2    4    4    0    0  0.20424428139E+03  0.65680122245E+02  0.21949921050E+04  0.22072846840E+04  0.89920689002E+02 0.  0.
          2    1    3    3  502    0 -0.35979567862E+01 -0.20422145944E+02 -0.90864849547E+02  0.93201020495E+02  0.00000000000E+00 0. -1.
         -1    1    3    3    0  502  0.60101502639E+02  0.58592019760E+02 -0.21935351825E+03  0.23486417643E+03  0.00000000000E+00 0.  1.
         13    1    5    5    0    0 -0.19384704191E+03 -0.11620432455E+03  0.15121438025E+03  0.27192997167E+03  0.00000000000E+00 0. -1.
        -13    1    5    5    0    0 -0.66900785340E+02  0.12354328486E+02  0.66874426843E+02  0.95396716280E+02  0.00000000000E+00 0.  1.
          4    1    6    6  503    0  0.15048859127E+03  0.83600979529E+02  0.18061389730E+04  0.18143246483E+04  0.00000000000E+00 0. -1.
         -4    1    6    6    0  503  0.53755690127E+02 -0.17920857283E+02  0.38885313203E+03  0.39296003568E+03  0.00000000000E+00 0.  1.
<mgrwt>
<rscale>  0 0.20008749E+04</rscale>
<asrwt>0</asrwt>
<pdfrwt beam="1">  1        2 0.38504146E+00 0.20008749E+04</pdfrwt>
<pdfrwt beam="2">  1       -1 0.61524157E-01 0.20008749E+04</pdfrwt>
<totfact> 0.98329914E+00</totfact>
</mgrwt>
</event>
<event>
12    7  0.1661464E-007  0.1532525E+04  0.7818608E-02  0.8863108E-01
          2   -1    0    0  501    0  0.00000000000E+00  0.00000000000E+00  0.22886947021E+04  0.22886947021E+04  0.00000000000E+00 0. -1.
         -1   -1    0    0    0  501 -0.00000000000E+00 -0.00000000000E+00 -0.25654706216E+03  0.25654706216E+03  0.00000000000E+00 0.  1.
         24    2    1    2    0    0  0.23741879254E+03  0.10538629608E+03  0.13638747678E+04  0.13908023152E+04  0.81870283211E+02 0.  0.
        254    2    1    2    0    0 -0.23741879254E+03 -0.10538629608E+03  0.66827287219E+03  0.11544394491E+04  0.90480266108E+03 0.  0.
         23    2    4    4    0    0 -0.44089114747E+03  0.24673985291E+03  0.28265066330E+03  0.58650162416E+03  0.93953173167E+02 0.  0.
         23    2    4    4    0    0  0.20347235493E+03 -0.35212614899E+03  0.38562220888E+03  0.56793782494E+03  0.91951405611E+02 0.  0.
          4    1    3    3  502    0  0.17845728349E+03  0.97203162884E+02  0.11845857693E+04  0.12018897211E+04  0.00000000000E+00 0. -1.
         -3    1    3    3    0  502  0.58961509052E+02  0.81831331949E+01  0.17928899844E+03  0.18891259403E+03  0.00000000000E+00 0.  1.
         13    1    5    5    0    0 -0.69826203898E+02  0.29071990638E+01  0.39268102353E+02  0.80163173712E+02  0.00000000000E+00 0. -1.
        -13    1    5    5    0    0 -0.37106494357E+03  0.24383265385E+03  0.24338256095E+03  0.50633845045E+03  0.00000000000E+00 0.  1.
          1    1    6    6  503    0  0.53998827583E+02 -0.44672376080E+02  0.35366678255E+02  0.78500296151E+02  0.00000000000E+00 0. -1.
         -1    1    6    6    0  503  0.14947352734E+03 -0.30745377291E+03  0.35025553063E+03  0.48943752879E+03  0.00000000000E+00 0.  1.
<mgrwt>
<rscale>  0 0.15325246E+04</rscale>
<asrwt>0</asrwt>
<pdfrwt beam="1">  1        2 0.35210686E+00 0.15325246E+04</pdfrwt>
<pdfrwt beam="2">  1       -1 0.39468780E-01 0.15325246E+04</pdfrwt>
<totfact> 0.31569023E+01</totfact>
</mgrwt>
</event>
<event>
12    7  0.1661464E-007  0.1914404E+04  0.7818608E-02  0.8647720E-01
          2   -1    0    0  501    0  0.00000000000E+00  0.00000000000E+00  0.16640123956E+04  0.16640123956E+04  0.00000000000E+00 0. -1.
         -3   -1    0    0    0  501 -0.00000000000E+00 -0.00000000000E+00 -0.55061806180E+03  0.55061806180E+03  0.00000000000E+00 0.  1.
         24    2    1    2    0    0 -0.92242219736E+02  0.10003117024E+03 -0.41401487383E+03  0.44301028060E+03  0.79592278812E+02 0.  0.
        254    2    1    2    0    0  0.92242219736E+02 -0.10003117024E+03  0.15274092076E+04  0.17716201768E+04  0.88721153125E+03 0.  0.
         23    2    4    4    0    0 -0.30111716537E+03  0.21642067619E+03  0.58556260705E+03  0.69927117553E+03  0.92666896910E+02 0.  0.
         23    2    4    4    0    0  0.39335938511E+03 -0.31645184644E+03  0.94184660060E+03  0.10723490013E+04  0.89353145119E+02 0.  0.
          4    1    3    3  502    0 -0.90826764344E+01  0.34988380064E+02 -0.21211843786E+03  0.21517647044E+03  0.00000000000E+00 0. -1.
         -3    1    3    3    0  502 -0.83159543302E+02  0.65042790181E+02 -0.20189643596E+03  0.22783381016E+03  0.00000000000E+00 0.  1.
         13    1    5    5    0    0 -0.25757951461E+03  0.21860308494E+03  0.50331108169E+03  0.60618195292E+03  0.00000000000E+00 0.  1.
        -13    1    5    5    0    0 -0.43537650764E+02 -0.21824087486E+01  0.82251525358E+02  0.93089222608E+02  0.00000000000E+00 0. -1.
          3    1    6    6  503    0  0.97779627679E+02 -0.49440657355E+02  0.14767465169E+03  0.18388321550E+03  0.00000000000E+00 0. -1.
         -3    1    6    6    0  503  0.29557975743E+03 -0.26701118908E+03  0.79417194891E+03  0.88846578579E+03  0.00000000000E+00 0.  1.
<mgrwt>
<rscale>  0 0.19144036E+04</rscale>
<asrwt>0</asrwt>
<pdfrwt beam="1">  1        2 0.25600190E+00 0.19144036E+04</pdfrwt>
<pdfrwt beam="2">  1       -3 0.84710472E-01 0.19144036E+04</pdfrwt>
<totfact> 0.78381697E+00</totfact>
</mgrwt>
</event>
<event>
12    7  0.1661464E-007  0.2678394E+04  0.7818608E-02  0.8342050E-01
          2   -1    0    0  501    0  0.00000000000E+00  0.00000000000E+00  0.99119071921E+03  0.99119071921E+03  0.00000000000E+00 0. -1.
         -1   -1    0    0    0  501 -0.00000000000E+00 -0.00000000000E+00 -0.18093881363E+04  0.18093881363E+04  0.00000000000E+00 0.  1.
         24    2    1    2    0    0  0.63363449777E+03  0.99509176096E+03 -0.56444649481E+03  0.13102402989E+04  0.80184199655E+02 0.  0.
        254    2    1    2    0    0 -0.63363449777E+03 -0.99509176096E+03 -0.25375092233E+03  0.14903385566E+04  0.87465375627E+03 0.  0.
         23    2    4    4    0    0 -0.32340684850E+03 -0.44296887724E+03 -0.55281951567E+03  0.78405281012E+03  0.91191974914E+02 0.  0.
         23    2    4    4    0    0 -0.31022764927E+03 -0.55212288372E+03  0.29906859334E+03  0.70628574653E+03  0.91195718830E+02 0.  0.
          4    1    3    3  502    0  0.48695134867E+03  0.77520339261E+03 -0.47384402464E+03  0.10308200985E+04  0.00000000000E+00 0. -1.
         -3    1    3    3    0  502  0.14668314910E+03  0.21988836835E+03 -0.90602470169E+02  0.27942020035E+03  0.00000000000E+00 0.  1.
         13    1    5    5    0    0 -0.32387708143E+03 -0.41952379228E+03 -0.51162981672E+03  0.73665571709E+03  0.00000000000E+00 0.  1.
        -13    1    5    5    0    0  0.47023293294E+00 -0.23445084959E+02 -0.41189698951E+02  0.47397093027E+02  0.00000000000E+00 0. -1.
          1    1    6    6  503    0 -0.12422893876E+02 -0.43532750980E+02  0.47067083569E+02  0.65304969611E+02  0.00000000000E+00 0. -1.
         -1    1    6    6    0  503 -0.29780475540E+03 -0.50859013274E+03  0.25200150977E+03  0.64098077692E+03  0.00000000000E+00 0.  1.
<mgrwt>
<rscale>  0 0.26783941E+04</rscale>
<asrwt>0</asrwt>
<pdfrwt beam="1">  1        2 0.15249088E+00 0.26783941E+04</pdfrwt>
<pdfrwt beam="2">  1       -1 0.27836741E+00 0.26783941E+04</pdfrwt>
<totfact> 0.11658858E+00</totfact>
</mgrwt>
</event>
<event>
12    7  0.1661464E-007  0.5119559E+04  0.7818608E-02  0.7810324E-01
         -1   -1    0    0    0  501 -0.00000000000E+00  0.00000000000E+00  0.19144465196E+04  0.19144465196E+04  0.00000000000E+00 0.  1.
          2   -1    0    0  501    0  0.00000000000E+00 -0.00000000000E+00 -0.34226457908E+04  0.34226457908E+04  0.00000000000E+00 0. -1.
         24    2    1    2    0    0  0.47039154620E+03  0.12074888370E+03  0.18026303652E+04  0.18685875740E+04  0.79339704342E+02 0.  0.
        254    2    1    2    0    0 -0.47039154620E+03 -0.12074888370E+03 -0.33108296363E+04  0.34685047364E+04  0.91273420332E+03 0.  0.
         23    2    4    4    0    0  0.22652523052E+03  0.14084934683E+03 -0.81521684597E+03  0.86259143506E+03  0.91286687539E+02 0.  0.
         23    2    4    4    0    0 -0.69691677672E+03 -0.26159823053E+03 -0.24956127904E+04  0.26059133013E+04  0.92597552621E+02 0.  0.
          4    1    3    3  502    0  0.98692245992E+02  0.51902528842E+02  0.49556057401E+03  0.50795109453E+03  0.00000000000E+00 0. -1.
         -3    1    3    3    0  502  0.37169930020E+03  0.68846354859E+02  0.13070697912E+04  0.13606364795E+04  0.00000000000E+00 0.  1.
         13    1    5    5    0    0  0.23016733214E+03  0.14540317226E+03 -0.76427718637E+03  0.81131911163E+03  0.00000000000E+00 0. -1.
        -13    1    5    5    0    0 -0.36421016112E+01 -0.45538254308E+01 -0.50939659601E+02  0.51272323435E+02  0.00000000000E+00 0.  1.
          4    1    6    6  503    0 -0.60815272176E+03 -0.22137847938E+03 -0.22626403433E+04  0.23533804382E+04  0.00000000000E+00 0. -1.
         -4    1    6    6    0  503 -0.88764054960E+02 -0.40219751150E+02 -0.23297244709E+03  0.25253286309E+03  0.00000000000E+00 0.  1.
<mgrwt>
<rscale>  0 0.51195595E+04</rscale>
<asrwt>0</asrwt>
<pdfrwt beam="1">  1        2 0.52656089E+00 0.51195595E+04</pdfrwt>
<pdfrwt beam="2">  1       -1 0.29453023E+00 0.51195595E+04</pdfrwt>
<totfact> 0.26961456E-02</totfact>
</mgrwt>
</event>
<event>
12    7  0.1661464E-007  0.1742266E+04  0.7818608E-02  0.8737619E-01
          2   -1    0    0  501    0  0.00000000000E+00  0.00000000000E+00  0.48234612834E+03  0.48234612834E+03  0.00000000000E+00 0. -1.
         -1   -1    0    0    0  501 -0.00000000000E+00 -0.00000000000E+00 -0.15732956459E+04  0.15732956459E+04  0.00000000000E+00 0.  1.
         24    2    1    2    0    0 -0.28881811999E+03 -0.54679129622E+03 -0.54540463313E+03  0.82841367755E+03  0.80039860436E+02 0.  0.
        254    2    1    2    0    0  0.28881811999E+03  0.54679129622E+03 -0.54554488448E+03  0.12272280967E+04  0.90888555517E+03 0.  0.
         23    2    4    4    0    0  0.42323569375E+02 -0.10618067718E+03 -0.50144184515E+03  0.52196618978E+03  0.89101955554E+02 0.  0.
         23    2    4    4    0    0  0.24649455062E+03  0.65297197340E+03 -0.44103039335E+02  0.70526190696E+03  0.91199330060E+02 0.  0.
          4    1    3    3  502    0 -0.18286176521E+03 -0.41264281716E+03 -0.37167931334E+03  0.58468626775E+03  0.00000000000E+00 0. -1.
         -3    1    3    3    0  502 -0.10595635478E+03 -0.13414847905E+03 -0.17372531979E+03  0.24372740980E+03  0.00000000000E+00 0.  1.
         13    1    5    5    0    0  0.37957192861E+02  0.27250264497E+00 -0.11474033869E+03  0.12085598070E+03  0.00000000000E+00 0.  1.
        -13    1    5    5    0    0  0.43663765145E+01 -0.10645317983E+03 -0.38670150645E+03  0.40111020908E+03  0.00000000000E+00 0. -1.
          3    1    6    6  503    0  0.13899193649E+03  0.36044377220E+03 -0.69719278037E+02  0.39255477205E+03  0.00000000000E+00 0. -1.
         -3    1    6    6    0  503  0.10750261412E+03  0.29252820120E+03  0.25616238702E+02  0.31270713491E+03  0.00000000000E+00 0.  1.
<mgrwt>
<rscale>  0 0.17422664E+04</rscale>
<asrwt>0</asrwt>
<pdfrwt beam="1">  1        2 0.74207097E-01 0.17422664E+04</pdfrwt>
<pdfrwt beam="2">  1       -1 0.24204548E+00 0.17422664E+04</pdfrwt>
<totfact> 0.54710262E+00</totfact>
</mgrwt>
</event>
<event>
12    7  0.1661464E-007  0.1877751E+04  0.7818608E-02  0.8666011E-01
          2   -1    0    0  501    0  0.00000000000E+00  0.00000000000E+00  0.22362613228E+04  0.22362613228E+04  0.00000000000E+00 0. -1.
         -1   -1    0    0    0  501 -0.00000000000E+00 -0.00000000000E+00 -0.39417903268E+03  0.39417903268E+03  0.00000000000E+00 0.  1.
         24    2    1    2    0    0  0.64819955804E+03 -0.28650065939E+03  0.52403125009E+03  0.88468335315E+03  0.76227222123E+02 0.  0.
        254    2    1    2    0    0 -0.64819955804E+03  0.28650065939E+03  0.13180510400E+04  0.17457570023E+04  0.89897923901E+03 0.  0.
         23    2    4    4    0    0 -0.33405988807E+03  0.55436727051E+03  0.49286756461E+03  0.81855581559E+03  0.90532356447E+02 0.  0.
         23    2    4    4    0    0 -0.31413966997E+03 -0.26786661112E+03  0.82518347538E+03  0.92720118670E+03  0.91312753664E+02 0.  0.
          2    1    3    3  502    0  0.97130418230E+02 -0.27337942671E+02  0.48020225430E+02  0.11174803491E+03  0.00000000000E+00 0. -1.
         -1    1    3    3    0  502  0.55106913981E+03 -0.25916271672E+03  0.47601102466E+03  0.77293531824E+03  0.00000000000E+00 0.  1.
         13    1    5    5    0    0 -0.24142178006E+03  0.44813646103E+03  0.34921171654E+03  0.61730024021E+03  0.00000000000E+00 0. -1.
        -13    1    5    5    0    0 -0.92638108009E+02  0.10623080948E+03  0.14365584807E+03  0.20125557539E+03  0.00000000000E+00 0.  1.
          3    1    6    6  503    0 -0.29237614262E+03 -0.25339779797E+03  0.80819095224E+03  0.89602838575E+03  0.00000000000E+00 0. -1.
         -3    1    6    6    0  503 -0.21763527347E+02 -0.14468813153E+02  0.16992523145E+02  0.31172800956E+02  0.00000000000E+00 0.  1.
<mgrwt>
<rscale>  0 0.18777511E+04</rscale>
<asrwt>0</asrwt>
<pdfrwt beam="1">  1        2 0.34404020E+00 0.18777511E+04</pdfrwt>
<pdfrwt beam="2">  1       -1 0.60642929E-01 0.18777511E+04</pdfrwt>
<totfact> 0.14515680E+01</totfact>
</mgrwt>
</event>
<event>
12    7  0.1661464E-007  0.1456566E+04  0.7818608E-02  0.8913861E-01
          2   -1    0    0  501    0  0.00000000000E+00  0.00000000000E+00  0.19756858592E+04  0.19756858592E+04  0.00000000000E+00 0. -1.
         -1   -1    0    0    0  501 -0.00000000000E+00 -0.00000000000E+00 -0.26846166713E+03  0.26846166713E+03  0.00000000000E+00 0.  1.
         24    2    1    2    0    0 -0.35908781407E+03  0.27554576736E+03  0.49378656556E+03  0.67456540695E+03  0.79647898955E+02 0.  0.
        254    2    1    2    0    0  0.35908781407E+03 -0.27554576736E+03  0.12134376265E+04  0.15695821193E+04  0.88672861005E+03 0.  0.
         23    2    4    4    0    0  0.34265999742E+03 -0.18885702559E+03  0.13359714928E+04  0.13945916023E+04  0.83564692086E+02 0.  0.
         23    2    4    4    0    0  0.16427816652E+02 -0.86688741769E+02 -0.12253386633E+03  0.17499051700E+03  0.88443889178E+02 0.  0.
          2    1    3    3  502    0 -0.32573861245E+03  0.24294592954E+03  0.47277776993E+03  0.62341574255E+03  0.00000000000E+00 0. -1.
         -1    1    3    3    0  502 -0.33349201621E+02  0.32599837822E+02  0.21008795629E+02  0.51149664403E+02  0.00000000000E+00 0.  1.
         13    1    5    5    0    0  0.46608266817E+02 -0.15326067030E+02  0.27983138968E+03  0.28410002731E+03  0.00000000000E+00 0. -1.
        -13    1    5    5    0    0  0.29605173060E+03 -0.17353095856E+03  0.10561401031E+04  0.11104915750E+04  0.00000000000E+00 0.  1.
          1    1    6    6  503    0  0.49666550041E+02 -0.48410532311E+02 -0.46126296105E+02  0.83294543783E+02  0.00000000000E+00 0. -1.
         -1    1    6    6    0  503 -0.33238733390E+02 -0.38278209459E+02 -0.76407570226E+02  0.91695973219E+02  0.00000000000E+00 0.  1.
<mgrwt>
<rscale>  0 0.14565657E+04</rscale>
<asrwt>0</asrwt>
<pdfrwt beam="1">  1        2 0.30395166E+00 0.14565657E+04</pdfrwt>
<pdfrwt beam="2">  1       -1 0.41301796E-01 0.14565657E+04</pdfrwt>
<totfact> 0.43722352E+01</totfact>
</mgrwt>
</event>
<event>
12    7  0.1661464E-007  0.2437412E+04  0.7818608E-02  0.8425629E-01
         -1   -1    0    0    0  501 -0.00000000000E+00  0.00000000000E+00  0.17898036875E+04  0.17898036875E+04  0.00000000000E+00 0.  1.
          2   -1    0    0  501    0  0.00000000000E+00 -0.00000000000E+00 -0.82983622744E+03  0.82983622744E+03  0.00000000000E+00 0. -1.
         24    2    1    2    0    0  0.16114164563E+03 -0.46914672752E+03  0.14233838517E+04  0.15096325789E+04  0.83088219135E+02 0.  0.
        254    2    1    2    0    0 -0.16114164563E+03  0.46914672752E+03 -0.46341639168E+03  0.11100073360E+04  0.87823473624E+03 0.  0.
         23    2    4    4    0    0 -0.94303648656E+02 -0.68552742972E+02  0.19918636634E+03  0.24855489186E+03  0.92258706974E+02 0.  0.
         23    2    4    4    0    0 -0.66837996975E+02  0.53769947049E+03 -0.66260275802E+03  0.86145244411E+03  0.97313206313E+02 0.  0.
          4    1    3    3  502    0  0.88067587722E+02 -0.17917306102E+03  0.47599021282E+03  0.51616428441E+03  0.00000000000E+00 0. -1.
         -3    1    3    3    0  502  0.73074057909E+02 -0.28997366650E+03  0.94739363890E+03  0.99346829452E+03  0.00000000000E+00 0.  1.
         13    1    5    5    0    0  0.71632729792E+01 -0.97968813895E+00 -0.63249051823E+01  0.96060758996E+01  0.00000000000E+00 0. -1.
        -13    1    5    5    0    0 -0.10146692164E+03 -0.67573054833E+02  0.20551127152E+03  0.23894881596E+03  0.00000000000E+00 0.  1.
          3    1    6    6  503    0 -0.17172519921E+02  0.24080676496E+03 -0.22290820246E+03  0.32858919675E+03  0.00000000000E+00 0. -1.
         -3    1    6    6    0  503 -0.49665477054E+02  0.29689270553E+03 -0.43969455556E+03  0.53286324737E+03  0.00000000000E+00 0.  1.
<mgrwt>
<rscale>  0 0.24374117E+04</rscale>
<asrwt>0</asrwt>
<pdfrwt beam="1">  1        2 0.12766711E+00 0.24374117E+04</pdfrwt>
<pdfrwt beam="2">  1       -1 0.27535441E+00 0.24374117E+04</pdfrwt>
<totfact> 0.15994210E+00</totfact>
</mgrwt>
</event>
<event>
12    7  0.1661464E-007  0.1392317E+04  0.7818608E-02  0.8959399E-01
          2   -1    0    0  501    0  0.00000000000E+00  0.00000000000E+00  0.11354017099E+04  0.11354017099E+04  0.00000000000E+00 0. -1.
         -1   -1    0    0    0  501 -0.00000000000E+00 -0.00000000000E+00 -0.42684177223E+03  0.42684177223E+03  0.00000000000E+00 0.  1.
         24    2    1    2    0    0 -0.19246616222E+02 -0.24927727336E+03 -0.13933800544E+03  0.29618451077E+03  0.76161626869E+02 0.  0.
        254    2    1    2    0    0  0.19246616222E+02  0.24927727336E+03  0.84789794309E+03  0.12660589714E+04  0.90634695663E+03 0.  0.
         23    2    4    4    0    0  0.11002017954E+03  0.40296480332E+03  0.94933347101E+03  0.10411540477E+04  0.91009006876E+02 0.  0.
         23    2    4    4    0    0 -0.90773563322E+02 -0.15368752996E+03 -0.10143552792E+03  0.22490492361E+03  0.91833336401E+02 0.  0.
          4    1    3    3  502    0  0.76307310277E+00 -0.13681965574E+02 -0.35295519157E+02  0.37862278525E+02  0.00000000000E+00 0. -1.
         -3    1    3    3    0  502 -0.20009689325E+02 -0.23559530779E+03 -0.10404248628E+03  0.25832223224E+03  0.00000000000E+00 0.  1.
         13    1    5    5    0    0  0.11777990126E+03  0.36947704113E+03  0.81600129527E+03  0.90346195434E+03  0.00000000000E+00 0. -1.
        -13    1    5    5    0    0 -0.77597217185E+01  0.33487762192E+02  0.13333217574E+03  0.13769209340E+03  0.00000000000E+00 0.  1.
          4    1    6    6  503    0 -0.42894596396E+02 -0.63468505401E+02  0.57865110872E+01  0.76822400954E+02  0.00000000000E+00 0.  1.
         -4    1    6    6    0  503 -0.47878966926E+02 -0.90219024562E+02 -0.10722203901E+03  0.14808252265E+03  0.00000000000E+00 0. -1.
<mgrwt>
<rscale>  0 0.13923173E+04</rscale>
<asrwt>0</asrwt>
<pdfrwt beam="1">  1        2 0.17467718E+00 0.13923173E+04</pdfrwt>
<pdfrwt beam="2">  1       -1 0.65667966E-01 0.13923173E+04</pdfrwt>
<totfact> 0.54098895E+01</totfact>
</mgrwt>
</event>
<event>
12    7  0.1661464E-007  0.1627801E+04  0.7818608E-02  0.8803649E-01
         -1   -1    0    0    0  501 -0.00000000000E+00  0.00000000000E+00  0.35575376011E+03  0.35575376011E+03  0.00000000000E+00 0.  1.
          2   -1    0    0  501    0  0.00000000000E+00 -0.00000000000E+00 -0.18620566651E+04  0.18620566651E+04  0.00000000000E+00 0. -1.
         24    2    1    2    0    0  0.31530878715E+03 -0.36080373391E+03 -0.91322077045E+03  0.10344247723E+04  0.80395697651E+02 0.  0.
        254    2    1    2    0    0 -0.31530878715E+03  0.36080373391E+03 -0.59308213456E+03  0.11833856530E+04  0.90501724828E+03 0.  0.
         23    2    4    4    0    0 -0.53312991527E+03  0.49967622145E+03 -0.34151572792E+03  0.81167301392E+03  0.90973931862E+02 0.  0.
         23    2    4    4    0    0  0.21782112811E+03 -0.13887248754E+03 -0.25156640664E+03  0.37171263906E+03  0.90294060918E+02 0.  0.
          4    1    3    3  502    0  0.25714597008E+03 -0.30477929672E+03 -0.68861124521E+03  0.79573859821E+03  0.00000000000E+00 0. -1.
         -3    1    3    3    0  502  0.58162817071E+02 -0.56024437183E+02 -0.22460952524E+03  0.23868617404E+03  0.00000000000E+00 0.  1.
         13    1    5    5    0    0  0.27800258852E+01  0.10018680019E+02 -0.52923282366E+01  0.11666671823E+02  0.00000000000E+00 0. -1.
        -13    1    5    5    0    0 -0.53590994115E+03  0.48965754143E+03 -0.33622339968E+03  0.80000634210E+03  0.00000000000E+00 0.  1.
          1    1    6    6  503    0  0.68617131951E+02 -0.34792147671E+02 -0.24460428975E+02  0.80728662335E+02  0.00000000000E+00 0. -1.
         -1    1    6    6    0  503  0.14920399616E+03 -0.10408033987E+03 -0.22710597766E+03  0.29098397672E+03  0.00000000000E+00 0.  1.
<mgrwt>
<rscale>  0 0.16278006E+04</rscale>
<asrwt>0</asrwt>
<pdfrwt beam="1">  1        2 0.28647026E+00 0.16278006E+04</pdfrwt>
<pdfrwt beam="2">  1       -1 0.54731347E-01 0.16278006E+04</pdfrwt>
<totfact> 0.29305571E+01</totfact>
</mgrwt>
</event>
<event>
12    7  0.1661464E-007  0.2542093E+04  0.7818608E-02  0.8388141E-01
         -1   -1    0    0    0  501 -0.00000000000E+00  0.00000000000E+00  0.18413345454E+04  0.18413345454E+04  0.00000000000E+00 0.  1.
          2   -1    0    0  501    0  0.00000000000E+00 -0.00000000000E+00 -0.87738482529E+03  0.87738482529E+03  0.00000000000E+00 0. -1.
         24    2    1    2    0    0  0.87025597853E+03  0.76726672126E+02  0.11375137182E+04  0.14364312342E+04  0.78516119813E+02 0.  0.
        254    2    1    2    0    0 -0.87025597853E+03 -0.76726672126E+02 -0.17356399813E+03  0.12822881365E+04  0.92244563696E+03 0.  0.
         23    2    4    4    0    0 -0.19641662356E+03 -0.35418019782E+03  0.19740648714E+03  0.45957899107E+03  0.90666561269E+02 0.  0.
         23    2    4    4    0    0 -0.67383935496E+03  0.27745352569E+03 -0.37097048527E+03  0.82270914541E+03  0.90505810759E+02 0.  0.
          4    1    3    3  502    0  0.37753417950E+03  0.48429782352E+02  0.43702421144E+03  0.57954090614E+03  0.00000000000E+00 0. -1.
         -3    1    3    3    0  502  0.49272179902E+03  0.28296889774E+02  0.70048950679E+03  0.85689032806E+03  0.00000000000E+00 0.  1.
         13    1    5    5    0    0 -0.18440387796E+03 -0.26557892774E+03  0.13411957362E+03  0.35003573688E+03  0.00000000000E+00 0.  1.
        -13    1    5    5    0    0 -0.12012745609E+02 -0.88601270073E+02  0.63286913524E+02  0.10954325419E+03  0.00000000000E+00 0. -1.
          1    1    6    6  503    0 -0.37203247431E+03  0.11689899660E+03 -0.16374002387E+03  0.42294719855E+03  0.00000000000E+00 0. -1.
         -1    1    6    6    0  503 -0.30180688065E+03  0.16055452909E+03 -0.20723046140E+03  0.39976194685E+03  0.00000000000E+00 0.  1.
<mgrwt>
<rscale>  0 0.25420928E+04</rscale>
<asrwt>0</asrwt>
<pdfrwt beam="1">  1        2 0.13498228E+00 0.25420928E+04</pdfrwt>
<pdfrwt beam="2">  1       -1 0.28328224E+00 0.25420928E+04</pdfrwt>
<totfact> 0.13050672E+00</totfact>
</mgrwt>
</event>
<event>
12    7  0.1661464E-007  0.2973839E+04  0.7818608E-02  0.8251241E-01
         -1   -1    0    0    0  501 -0.00000000000E+00  0.00000000000E+00  0.15366002255E+04  0.15366002255E+04  0.00000000000E+00 0.  1.
          2   -1    0    0  501    0  0.00000000000E+00 -0.00000000000E+00 -0.14388450278E+04  0.14388450278E+04  0.00000000000E+00 0. -1.
         24    2    1    2    0    0  0.53679320061E+03  0.12477270195E+03 -0.11874685058E+04  0.13116149634E+04  0.80852907431E+02 0.  0.
        254    2    1    2    0    0 -0.53679320061E+03 -0.12477270195E+03  0.12852237035E+04  0.16638302899E+04  0.90156314150E+03 0.  0.
         23    2    4    4    0    0 -0.67695896293E+03  0.15204618780E+03  0.10618535796E+04  0.12717921022E+04  0.92361497150E+02 0.  0.
         23    2    4    4    0    0  0.14016576233E+03 -0.27681888975E+03  0.22337012391E+03  0.39203818762E+03  0.86744392586E+02 0.  0.
          2    1    3    3  502    0  0.39949122384E+03  0.74722163865E+02 -0.94205691538E+03  0.10259862921E+04  0.00000000000E+00 0. -1.
         -1    1    3    3    0  502  0.13730197676E+03  0.50050538088E+02 -0.24541159039E+03  0.28562867133E+03  0.00000000000E+00 0.  1.
         13    1    5    5    0    0 -0.61220968361E+03  0.14248163372E+03  0.90543265961E+03  0.11022295649E+04  0.00000000000E+00 0. -1.
        -13    1    5    5    0    0 -0.64749279327E+02  0.95645540742E+01  0.15642091997E+03  0.16956253735E+03  0.00000000000E+00 0.  1.
          4    1    6    6  503    0  0.90563139901E+02 -0.12213263084E+03  0.65620337736E+02  0.16560220575E+03  0.00000000000E+00 0. -1.
         -4    1    6    6    0  503  0.49602622425E+02 -0.15468625892E+03  0.15774978618E+03  0.22643598187E+03  0.00000000000E+00 0.  1.
<mgrwt>
<rscale>  0 0.29738390E+04</rscale>
<asrwt>0</asrwt>
<pdfrwt beam="1">  1        2 0.22136077E+00 0.29738390E+04</pdfrwt>
<pdfrwt beam="2">  1       -1 0.23640004E+00 0.29738390E+04</pdfrwt>
<totfact> 0.11501140E+00</totfact>
</mgrwt>
</event>
<event>
12    7  0.1661464E-007  0.2135868E+04  0.7818608E-02  0.8545606E-01
          4   -1    0    0  501    0  0.00000000000E+00  0.00000000000E+00  0.28408718976E+04  0.28408718976E+04  0.00000000000E+00 0. -1.
         -3   -1    0    0    0  501 -0.00000000000E+00 -0.00000000000E+00 -0.40145527797E+03  0.40145527797E+03  0.00000000000E+00 0.  1.
         24    2    1    2    0    0  0.31236215389E+03 -0.37144020445E+03  0.21007688302E+04  0.21576234253E+04  0.81063104325E+02 0.  0.
        254    2    1    2    0    0 -0.31236215389E+03  0.37144020445E+03  0.33864778947E+03  0.10847037503E+04  0.90904453133E+03 0.  0.
         23    2    4    4    0    0  0.11167119948E+03  0.16428389916E+03 -0.24498595747E+03  0.32864049046E+03  0.92340653534E+02 0.  0.
         23    2    4    4    0    0 -0.42403335337E+03  0.20715630528E+03  0.58363374694E+03  0.75606325984E+03  0.91023528395E+02 0.  0.
          2    1    3    3  502    0  0.62138007278E+02 -0.12347460745E+03  0.67168447476E+03  0.68576026734E+03  0.00000000000E+00 0. -1.
         -1    1    3    3    0  502  0.25022414661E+03 -0.24796559699E+03  0.14290843554E+04  0.14718631579E+04  0.00000000000E+00 0.  1.
         13    1    5    5    0    0  0.23894619587E+02  0.95012062747E+02 -0.67878018257E+02  0.11918754245E+03  0.00000000000E+00 0. -1.
        -13    1    5    5    0    0  0.87776579897E+02  0.69271836415E+02 -0.17710793921E+03  0.20945294801E+03  0.00000000000E+00 0.  1.
          2    1    6    6  503    0 -0.34167682632E+01  0.98074322241E+01  0.40248635989E+00  0.10393364588E+02  0.00000000000E+00 0. -1.
         -2    1    6    6    0  503 -0.42061658511E+03  0.19734887306E+03  0.58323126058E+03  0.74566989525E+03  0.00000000000E+00 0.  1.
<mgrwt>
<rscale>  0 0.21358680E+04</rscale>
<asrwt>0</asrwt>
<pdfrwt beam="1">  1        4 0.43705720E+00 0.21358680E+04</pdfrwt>
<pdfrwt beam="2">  1       -3 0.61762352E-01 0.21358680E+04</pdfrwt>
<totfact> 0.19838091E-02</totfact>
</mgrwt>
</event>
<event>
12    7  0.1661464E-007  0.1894107E+04  0.7818608E-02  0.8657795E-01
          2   -1    0    0  501    0  0.00000000000E+00  0.00000000000E+00  0.99990700968E+03  0.99990700968E+03  0.00000000000E+00 0. -1.
         -1   -1    0    0    0  501 -0.00000000000E+00 -0.00000000000E+00 -0.89699419559E+03  0.89699419559E+03  0.00000000000E+00 0.  1.
         24    2    1    2    0    0 -0.16314489766E+03 -0.16963394799E+03 -0.65303947047E+03  0.69849821958E+03  0.77764251564E+02 0.  0.
        254    2    1    2    0    0  0.16314489766E+03  0.16963394799E+03  0.75595228457E+03  0.11984029857E+04  0.89961876682E+03 0.  0.
         23    2    4    4    0    0 -0.21168635303E+03 -0.22008999319E+03  0.50158061213E+03  0.59381297169E+03  0.88204408739E+02 0.  0.
         23    2    4    4    0    0  0.37483125070E+03  0.38972394118E+03  0.25437167243E+03  0.60459001399E+03  0.91874482049E+02 0.  0.
          4    1    3    3  502    0 -0.88151370606E+02 -0.37576091403E+02 -0.23988737779E+03  0.25831875814E+03  0.00000000000E+00 0. -1.
         -3    1    3    3    0  502 -0.74993527057E+02 -0.13205785659E+03 -0.41315209268E+03  0.44017946144E+03  0.00000000000E+00 0.  1.
         13    1    5    5    0    0 -0.21980549050E+03 -0.21423942829E+03  0.47642218845E+03  0.56673723006E+03  0.00000000000E+00 0.  1.
        -13    1    5    5    0    0  0.81191374671E+01 -0.58505649023E+01  0.25158423679E+02  0.27075741632E+02  0.00000000000E+00 0. -1.
          3    1    6    6  503    0  0.92107084194E+00  0.27936181742E+02  0.16969676584E+02  0.32699366128E+02  0.00000000000E+00 0. -1.
         -3    1    6    6    0  503  0.37391017985E+03  0.36178775944E+03  0.23740199585E+03  0.57189064786E+03  0.00000000000E+00 0.  1.
<mgrwt>
<rscale>  0 0.18941075E+04</rscale>
<asrwt>0</asrwt>
<pdfrwt beam="1">  1        2 0.15383185E+00 0.18941075E+04</pdfrwt>
<pdfrwt beam="2">  1       -1 0.13799911E+00 0.18941075E+04</pdfrwt>
<totfact> 0.11720721E+01</totfact>
</mgrwt>
</event>
<event>
12    7  0.1661464E-007  0.1386417E+04  0.7818608E-02  0.8963710E-01
          2   -1    0    0  501    0  0.00000000000E+00  0.00000000000E+00  0.12574711297E+04  0.12574711297E+04  0.00000000000E+00 0. -1.
         -1   -1    0    0    0  501 -0.00000000000E+00 -0.00000000000E+00 -0.38214641133E+03  0.38214641133E+03  0.00000000000E+00 0.  1.
         24    2    1    2    0    0  0.12396681672E+03 -0.37398701752E+03  0.34513806242E+03  0.53049846056E+03  0.84108701155E+02 0.  0.
        254    2    1    2    0    0 -0.12396681672E+03  0.37398701752E+03  0.53018665597E+03  0.11091190805E+04  0.89096194284E+03 0.  0.
         23    2    4    4    0    0  0.90539884082E+02 -0.25427836394E+03  0.63945393985E+02  0.29265198814E+03  0.93280307520E+02 0.  0.
         23    2    4    4    0    0 -0.21450670080E+03  0.62826538146E+03  0.46624126198E+03  0.81646709234E+03  0.92233856438E+02 0.  0.
          4    1    3    3  502    0  0.91047813743E+02 -0.14615037440E+03  0.16058404008E+03  0.23545035624E+03  0.00000000000E+00 0. -1.
         -3    1    3    3    0  502  0.32919002978E+02 -0.22783664311E+03  0.18455402234E+03  0.29504810432E+03  0.00000000000E+00 0.  1.
         13    1    5    5    0    0  0.23957377080E+02 -0.19261981940E+03  0.53258364119E+02  0.20127792748E+03  0.00000000000E+00 0.  1.
        -13    1    5    5    0    0  0.66582507001E+02 -0.61658544538E+02  0.10687029866E+02  0.91374060655E+02  0.00000000000E+00 0. -1.
          2    1    6    6  503    0 -0.72153125038E+02  0.35214099228E+03  0.24190187298E+03  0.43327343335E+03  0.00000000000E+00 0.  1.
         -2    1    6    6    0  503 -0.14235357576E+03  0.27612438917E+03  0.22433938901E+03  0.38319365899E+03  0.00000000000E+00 0. -1.
<mgrwt>
<rscale>  0 0.13864171E+04</rscale>
<asrwt>0</asrwt>
<pdfrwt beam="1">  1        2 0.19345709E+00 0.13864171E+04</pdfrwt>
<pdfrwt beam="2">  1       -1 0.58791756E-01 0.13864171E+04</pdfrwt>
<totfact> 0.57018672E+01</totfact>
</mgrwt>
</event>
<event>
12    7  0.1661464E-007  0.1528752E+04  0.7818608E-02  0.8865555E-01
         -1   -1    0    0    0  501 -0.00000000000E+00  0.00000000000E+00  0.40672835086E+03  0.40672835086E+03  0.00000000000E+00 0.  1.
          2   -1    0    0  501    0  0.00000000000E+00 -0.00000000000E+00 -0.14365141581E+04  0.14365141581E+04  0.00000000000E+00 0. -1.
         24    2    1    2    0    0 -0.21541719851E+03 -0.17650611216E+03 -0.83583295973E+03  0.88430289632E+03  0.76262040553E+02 0.  0.
        254    2    1    2    0    0  0.21541719851E+03  0.17650611216E+03 -0.19395284753E+03  0.95893961265E+03  0.89687707999E+03 0.  0.
         23    2    4    4    0    0 -0.26984133749E+03 -0.10217069045E+03  0.10195174860E+03  0.31922044065E+03  0.90853361405E+02 0.  0.
         23    2    4    4    0    0  0.48525853600E+03  0.27867680260E+03 -0.29590459613E+03  0.63971917201E+03  0.92436367055E+02 0.  0.
          2    1    3    3  502    0 -0.21485938973E+03 -0.16380466046E+03 -0.82310434074E+03  0.86631246088E+03  0.00000000000E+00 0. -1.
         -1    1    3    3    0  502 -0.55780877591E+00 -0.12701451693E+02 -0.12728618998E+02  0.17990435440E+02  0.00000000000E+00 0.  1.
         13    1    5    5    0    0 -0.25021525310E+03 -0.63089967598E+02  0.94791031643E+02  0.27490608683E+03  0.00000000000E+00 0.  1.
        -13    1    5    5    0    0 -0.19626084389E+02 -0.39080722848E+02  0.71607169561E+01  0.44314353816E+02  0.00000000000E+00 0. -1.
          4    1    6    6  503    0  0.10566263380E+02  0.40464852634E+01 -0.26279546545E+02  0.28611790077E+02  0.00000000000E+00 0. -1.
         -4    1    6    6    0  503  0.47469227262E+03  0.27463031734E+03 -0.26962504958E+03  0.61110738193E+03  0.00000000000E+00 0.  1.
<mgrwt>
<rscale>  0 0.15287525E+04</rscale>
<asrwt>0</asrwt>
<pdfrwt beam="1">  1        2 0.22100218E+00 0.15287525E+04</pdfrwt>
<pdfrwt beam="2">  1       -1 0.62573592E-01 0.15287525E+04</pdfrwt>
<totfact> 0.39253228E+01</totfact>
</mgrwt>
</event>
<event>
12    7  0.1661464E-007  0.2119743E+04  0.7818608E-02  0.8552596E-01
          2   -1    0    0  501    0  0.00000000000E+00  0.00000000000E+00  0.13730019428E+04  0.13730019428E+04  0.00000000000E+00 0. -1.
         -1   -1    0    0    0  501 -0.00000000000E+00 -0.00000000000E+00 -0.81815421633E+03  0.81815421633E+03  0.00000000000E+00 0.  1.
         24    2    1    2    0    0  0.34228216314E+03 -0.45164232752E+03 -0.44976600476E+03  0.72740939402E+03  0.75479111374E+02 0.  0.
        254    2    1    2    0    0 -0.34228216314E+03  0.45164232752E+03  0.10046137312E+04  0.14637467651E+04  0.90120362414E+03 0.  0.
         23    2    4    4    0    0 -0.16682193002E+03  0.41360963274E+03  0.11360331476E+04  0.12232835012E+04  0.83359025392E+02 0.  0.
         23    2    4    4    0    0 -0.17546023312E+03  0.38032694783E+02 -0.13141941640E+03  0.24046326393E+03  0.91207121512E+02 0.  0.
          2    1    3    3  502    0  0.66184726896E+02 -0.14252916783E+03 -0.12924769728E+03  0.20346977419E+03  0.00000000000E+00 0. -1.
         -1    1    3    3    0  502  0.27609743624E+03 -0.30911315969E+03 -0.32051830748E+03  0.52393961983E+03  0.00000000000E+00 0.  1.
         13    1    5    5    0    0 -0.16478162027E+03  0.34438030217E+03  0.90887332624E+03  0.98579992800E+03  0.00000000000E+00 0.  1.
        -13    1    5    5    0    0 -0.20403097523E+01  0.69229330572E+02  0.22715982138E+03  0.23748357317E+03  0.00000000000E+00 0. -1.
          1    1    6    6  503    0 -0.23569758149E+02  0.23508608843E+01  0.13715963026E+02  0.27371293134E+02  0.00000000000E+00 0. -1.
         -1    1    6    6    0  503 -0.15189047497E+03  0.35681833898E+02 -0.14513537943E+03  0.21309197080E+03  0.00000000000E+00 0.  1.
<mgrwt>
<rscale>  0 0.21197427E+04</rscale>
<asrwt>0</asrwt>
<pdfrwt beam="1">  1        2 0.21123107E+00 0.21197427E+04</pdfrwt>
<pdfrwt beam="2">  1       -1 0.12586988E+00 0.21197427E+04</pdfrwt>
<totfact> 0.86492333E+00</totfact>
</mgrwt>
</event>
<event>
12    7  0.1661464E-007  0.1725937E+04  0.7818608E-02  0.8746708E-01
         -1   -1    0    0    0  501 -0.00000000000E+00  0.00000000000E+00  0.66482782664E+03  0.66482782664E+03  0.00000000000E+00 0.  1.
          2   -1    0    0  501    0  0.00000000000E+00 -0.00000000000E+00 -0.11201620272E+04  0.11201620272E+04  0.00000000000E+00 0. -1.
         24    2    1    2    0    0  0.11723955141E+03  0.55251044287E+03  0.10201612167E+03  0.57932073187E+03  0.78691291753E+02 0.  0.
        254    2    1    2    0    0 -0.11723955141E+03 -0.55251044287E+03 -0.55735032226E+03  0.12056691220E+04  0.90773660725E+03 0.  0.
         23    2    4    4    0    0 -0.27058790242E+03 -0.34483207823E+03  0.12952388871E+03  0.46643618000E+03  0.93055344574E+02 0.  0.
         23    2    4    4    0    0  0.15334835101E+03 -0.20767836464E+03 -0.68687421097E+03  0.73923294201E+03  0.89571987589E+02 0.  0.
          2    1    3    3  502    0  0.60648273831E+02  0.34838257521E+03  0.27189404138E+02  0.35466589282E+03  0.00000000000E+00 0. -1.
         -1    1    3    3    0  502  0.56591277580E+02  0.20412786765E+03  0.74826717537E+02  0.22465483905E+03  0.00000000000E+00 0.  1.
         13    1    5    5    0    0 -0.88144799639E+02 -0.14543061974E+03  0.92658445371E+02  0.19366248568E+03  0.00000000000E+00 0. -1.
        -13    1    5    5    0    0 -0.18244310278E+03 -0.19940145849E+03  0.36865443340E+02  0.27277369432E+03  0.00000000000E+00 0.  1.
          4    1    6    6  503    0  0.14896953671E+03 -0.20660102791E+03 -0.59471599951E+03  0.64696447172E+03  0.00000000000E+00 0.  1.
         -4    1    6    6    0  503  0.43788142984E+01 -0.10773367273E+01 -0.92158211463E+02  0.92268470288E+02  0.00000000000E+00 0. -1.
<mgrwt>
<rscale>  0 0.17259373E+04</rscale>
<asrwt>0</asrwt>
<pdfrwt beam="1">  1        2 0.17233262E+00 0.17259373E+04</pdfrwt>
<pdfrwt beam="2">  1       -1 0.10228121E+00 0.17259373E+04</pdfrwt>
<totfact> 0.20751919E+01</totfact>
</mgrwt>
</event>
<event>
12    7  0.1661464E-007  0.1714335E+04  0.7818608E-02  0.8753230E-01
         -1   -1    0    0    0  501 -0.00000000000E+00  0.00000000000E+00  0.29550595219E+03  0.29550595219E+03  0.00000000000E+00 0.  1.
          2   -1    0    0  501    0  0.00000000000E+00 -0.00000000000E+00 -0.24863677018E+04  0.24863677018E+04  0.00000000000E+00 0. -1.
         24    2    1    2    0    0 -0.39312962886E+03 -0.34336133849E+03 -0.24050034552E+03  0.58018640016E+03  0.79548280170E+02 0.  0.
        254    2    1    2    0    0  0.39312962886E+03  0.34336133849E+03 -0.19503614041E+04  0.22016872538E+04  0.87810548527E+03 0.  0.
         23    2    4    4    0    0  0.35682404444E+03  0.16410202370E+02 -0.20072303164E+03  0.41907378094E+03  0.87979571543E+02 0.  0.
         23    2    4    4    0    0  0.36305584418E+02  0.32695113613E+03 -0.17496383725E+04  0.17826134729E+04  0.90891245461E+02 0.  0.
          4    1    3    3  502    0 -0.15282517232E+03 -0.16511568211E+03 -0.13791748260E+03  0.26389383051E+03  0.00000000000E+00 0. -1.
         -3    1    3    3    0  502 -0.24030445654E+03 -0.17824565638E+03 -0.10258286291E+03  0.31629256965E+03  0.00000000000E+00 0.  1.
         13    1    5    5    0    0  0.26145800730E+03  0.47736808756E+02 -0.16333549372E+03  0.31195765097E+03  0.00000000000E+00 0.  1.
        -13    1    5    5    0    0  0.95366037139E+02 -0.31326606386E+02 -0.37387537912E+02  0.10711612996E+03  0.00000000000E+00 0. -1.
          1    1    6    6  503    0 -0.57159285465E+01  0.19323750737E+03 -0.11951632112E+04  0.12106975293E+04  0.00000000000E+00 0. -1.
         -1    1    6    6    0  503  0.42021512964E+02  0.13371362875E+03 -0.55447516128E+03  0.57191594360E+03  0.00000000000E+00 0.  1.
<mgrwt>
<rscale>  0 0.17143354E+04</rscale>
<asrwt>0</asrwt>
<pdfrwt beam="1">  1        2 0.38251810E+00 0.17143354E+04</pdfrwt>
<pdfrwt beam="2">  1       -1 0.45462455E-01 0.17143354E+04</pdfrwt>
<totfact> 0.18462173E+01</totfact>
</mgrwt>
</event>
<event>
12    7  0.1661464E-007  0.1094013E+04  0.7818608E-02  0.9211047E-01
          2   -1    0    0  501    0  0.00000000000E+00  0.00000000000E+00  0.12784658513E+04  0.12784658513E+04  0.00000000000E+00 0. -1.
         -1   -1    0    0    0  501 -0.00000000000E+00 -0.00000000000E+00 -0.23404312272E+03  0.23404312272E+03  0.00000000000E+00 0.  1.
         24    2    1    2    0    0  0.25937129800E+02  0.77223561634E+02  0.40390198363E+03  0.41962014297E+03  0.79423163063E+02 0.  0.
        254    2    1    2    0    0 -0.25937129800E+02 -0.77223561634E+02  0.64052074498E+03  0.10928888311E+04  0.88176128242E+03 0.  0.
         23    2    4    4    0    0  0.18561718520E+03  0.72633607970E+02  0.76305800651E+03  0.79317149194E+03  0.84463683786E+02 0.  0.
         23    2    4    4    0    0 -0.21155431500E+03 -0.14985716960E+03 -0.12253726153E+03  0.29971733914E+03  0.87193482813E+02 0.  0.
          2    1    3    3  502    0  0.51997250371E+02  0.69081580474E+02  0.30889652676E+03  0.32076945467E+03  0.00000000000E+00 0. -1.
         -1    1    3    3    0  502 -0.26060120571E+02  0.81419811608E+01  0.95005456872E+02  0.98850688297E+02  0.00000000000E+00 0.  1.
         13    1    5    5    0    0  0.16265611636E+03  0.53265226976E+02  0.50167227560E+03  0.53006534380E+03  0.00000000000E+00 0. -1.
        -13    1    5    5    0    0  0.22961068837E+02  0.19368380994E+02  0.26138573090E+03  0.26310614813E+03  0.00000000000E+00 0.  1.
          3    1    6    6  503    0 -0.15304607478E+03 -0.13752975464E+03 -0.62641827178E+02  0.21508494352E+03  0.00000000000E+00 0. -1.
         -3    1    6    6    0  503 -0.58508240214E+02 -0.12327414966E+02 -0.59895434353E+02  0.84632395624E+02  0.00000000000E+00 0.  1.
<mgrwt>
<rscale>  0 0.10940131E+04</rscale>
<asrwt>0</asrwt>
<pdfrwt beam="1">  1        2 0.19668705E+00 0.10940131E+04</pdfrwt>
<pdfrwt beam="2">  1       -1 0.36006635E-01 0.10940131E+04</pdfrwt>
<totfact> 0.14191620E+02</totfact>
</mgrwt>
</event>
<event>
12    7  0.1661464E-007  0.5188174E+04  0.7818608E-02  0.7800118E-01
          2   -1    0    0  501    0  0.00000000000E+00  0.00000000000E+00  0.37436458896E+04  0.37436458896E+04  0.00000000000E+00 0. -1.
         -1   -1    0    0    0  501 -0.00000000000E+00 -0.00000000000E+00 -0.17975224236E+04  0.17975224236E+04  0.00000000000E+00 0.  1.
         24    2    1    2    0    0 -0.20218093527E+04  0.31774363674E+03 -0.61282177284E+03  0.21378713684E+04  0.79179449228E+02 0.  0.
        254    2    1    2    0    0  0.20218093527E+04 -0.31774363674E+03  0.25589452388E+04  0.34032969449E+04  0.91954079971E+03 0.  0.
         23    2    4    4    0    0  0.16123708484E+04  0.98296621184E+02  0.21215436656E+04  0.26681133841E+04  0.92084349304E+02 0.  0.
         23    2    4    4    0    0  0.40943850434E+03 -0.41604025793E+03  0.43740157327E+03  0.73518356073E+03  0.91898567046E+02 0.  0.
          2    1    3    3  502    0 -0.78447762087E+03  0.15627422966E+03 -0.26106742551E+03  0.84141724083E+03  0.00000000000E+00 0. -1.
         -1    1    3    3    0  502 -0.12373317318E+04  0.16146940708E+03 -0.35175434733E+03  0.12964541276E+04  0.00000000000E+00 0.  1.
         13    1    5    5    0    0  0.18191027460E+03 -0.17700740600E+02  0.24708178820E+03  0.30733381572E+03  0.00000000000E+00 0.  1.
        -13    1    5    5    0    0  0.14304605738E+04  0.11599736178E+03  0.18744618774E+04  0.23607795684E+04  0.00000000000E+00 0. -1.
          3    1    6    6  503    0  0.41329672085E+03 -0.41646680584E+03  0.43621673315E+03  0.73112503589E+03  0.00000000000E+00 0. -1.
         -3    1    6    6    0  503 -0.38582165118E+01  0.42654791143E+00  0.11848401188E+01  0.40585248403E+01  0.00000000000E+00 0.  1.
<mgrwt>
<rscale>  0 0.51881740E+04</rscale>
<asrwt>0</asrwt>
<pdfrwt beam="1">  1        2 0.57594552E+00 0.51881740E+04</pdfrwt>
<pdfrwt beam="2">  1       -1 0.27654191E+00 0.51881740E+04</pdfrwt>
<totfact> 0.20607836E-02</totfact>
</mgrwt>
</event>
<event>
12    7  0.1661464E-007  0.1335975E+04  0.7818608E-02  0.9001514E-01
          2   -1    0    0  501    0  0.00000000000E+00  0.00000000000E+00  0.12756553001E+04  0.12756553001E+04  0.00000000000E+00 0. -1.
         -1   -1    0    0    0  501 -0.00000000000E+00 -0.00000000000E+00 -0.34978652773E+03  0.34978652773E+03  0.00000000000E+00 0.  1.
         24    2    1    2    0    0  0.36227701885E+03 -0.11394252841E+03  0.35348088256E+03  0.52702118693E+03  0.92601614279E+02 0.  0.
        254    2    1    2    0    0 -0.36227701885E+03  0.11394252841E+03  0.57238788982E+03  0.10984206409E+04  0.85713036920E+03 0.  0.
         23    2    4    4    0    0  0.15355165812E+03  0.32183336030E+03  0.16974220269E+03  0.40583698074E+03  0.93468797200E+02 0.  0.
         23    2    4    4    0    0 -0.51582867697E+03 -0.20789083189E+03  0.40264568712E+03  0.69258366017E+03  0.90833666695E+02 0.  0.
          2    1    3    3  502    0  0.23265205104E+03 -0.69986177210E+02  0.28328349118E+03  0.37319509406E+03  0.00000000000E+00 0. -1.
         -1    1    3    3    0  502  0.12962496781E+03 -0.43956351202E+02  0.70197391380E+02  0.15382609287E+03  0.00000000000E+00 0.  1.
         13    1    5    5    0    0  0.11307078606E+03  0.16803411525E+03  0.13394563337E+03  0.24282071421E+03  0.00000000000E+00 0. -1.
        -13    1    5    5    0    0  0.40480872060E+02  0.15379924505E+03  0.35796569323E+02  0.16301626654E+03  0.00000000000E+00 0.  1.
          4    1    6    6  503    0 -0.16600111792E+03 -0.80481587127E+02  0.84729546611E+02  0.20300924384E+03  0.00000000000E+00 0. -1.
         -4    1    6    6    0  503 -0.34982755906E+03 -0.12740924476E+03  0.31791614051E+03  0.48957441633E+03  0.00000000000E+00 0.  1.
<mgrwt>
<rscale>  0 0.13359746E+04</rscale>
<asrwt>0</asrwt>
<pdfrwt beam="1">  1        2 0.19625466E+00 0.13359746E+04</pdfrwt>
<pdfrwt beam="2">  1       -1 0.53813313E-01 0.13359746E+04</pdfrwt>
<totfact> 0.66353139E+01</totfact>
</mgrwt>
</event>
<event>
12    7  0.1661464E-007  0.1223608E+04  0.7818608E-02  0.9092440E-01
          2   -1    0    0  501    0  0.00000000000E+00  0.00000000000E+00  0.11106081126E+04  0.11106081126E+04  0.00000000000E+00 0. -1.
         -1   -1    0    0    0  501 -0.00000000000E+00 -0.00000000000E+00 -0.33702613846E+03  0.33702613846E+03  0.00000000000E+00 0.  1.
         24    2    1    2    0    0  0.13500139693E+03 -0.17170353814E+03  0.36512736758E+03  0.43324550551E+03  0.81707963539E+02 0.  0.
        254    2    1    2    0    0 -0.13500139693E+03  0.17170353814E+03  0.40845460652E+03  0.10143887455E+04  0.90246433683E+03 0.  0.
         23    2    4    4    0    0 -0.44051825487E+03  0.61270714047E+00  0.46494976039E+03  0.64721523737E+03  0.93019221164E+02 0.  0.
         23    2    4    4    0    0  0.30551685794E+03  0.17109083100E+03 -0.56495153868E+02  0.36717350815E+03  0.94931868916E+02 0.  0.
          2    1    3    3  502    0  0.77503944035E+02 -0.14129395679E+03  0.30355451766E+03  0.34368035842E+03  0.00000000000E+00 0. -1.
         -1    1    3    3    0  502  0.57497452894E+02 -0.30409581345E+02  0.61572849917E+02  0.89565147093E+02  0.00000000000E+00 0.  1.
         13    1    5    5    0    0 -0.43352034323E+03 -0.95692603408E+01  0.46359735476E+03  0.63478655159E+03  0.00000000000E+00 0. -1.
        -13    1    5    5    0    0 -0.69979116416E+01  0.10181967481E+02  0.13524056296E+01  0.12428685776E+02  0.00000000000E+00 0.  1.
          1    1    6    6  503    0  0.31226407584E+03  0.16774621269E+03 -0.58769267314E+02  0.35930693246E+03  0.00000000000E+00 0. -1.
         -1    1    6    6    0  503 -0.67472179018E+01  0.33446183090E+01  0.22741134462E+01  0.78665756854E+01  0.00000000000E+00 0.  1.
<mgrwt>
<rscale>  0 0.12236077E+04</rscale>
<asrwt>0</asrwt>
<pdfrwt beam="1">  1        2 0.17086278E+00 0.12236077E+04</pdfrwt>
<pdfrwt beam="2">  1       -1 0.51850176E-01 0.12236077E+04</pdfrwt>
<totfact> 0.90253111E+01</totfact>
</mgrwt>
</event>
<event>
12    7  0.1661464E-007  0.1039820E+04  0.7818608E-02  0.9265917E-01
          2   -1    0    0  501    0  0.00000000000E+00  0.00000000000E+00  0.68784591164E+03  0.68784591164E+03  0.00000000000E+00 0. -1.
         -1   -1    0    0    0  501 -0.00000000000E+00 -0.00000000000E+00 -0.39297545166E+03  0.39297545166E+03  0.00000000000E+00 0.  1.
         24    2    1    2    0    0 -0.10369782375E+03 -0.13184176856E+02 -0.14308109946E+02  0.13247023017E+03  0.80103549874E+02 0.  0.
        254    2    1    2    0    0  0.10369782375E+03  0.13184176856E+02  0.30917856992E+03  0.94835113312E+03  0.89042204736E+03 0.  0.
         23    2    4    4    0    0  0.54557465331E+02 -0.88834055897E+02 -0.29580995477E+03  0.32630480311E+03  0.90018268597E+02 0.  0.
         23    2    4    4    0    0  0.49140358419E+02  0.10201823275E+03  0.60498852469E+03  0.62204633002E+03  0.90044583648E+02 0.  0.
          4    1    3    3  502    0  0.94701279793E+01  0.11508417932E+02  0.34189722124E+01  0.15291055498E+02  0.00000000000E+00 0. -1.
         -3    1    3    3    0  502 -0.11316795173E+03 -0.24692594788E+02 -0.17727082159E+02  0.11717917468E+03  0.00000000000E+00 0.  1.
         13    1    5    5    0    0  0.48799680443E+02 -0.78505074061E+00 -0.12144054072E+03  0.13088097664E+03  0.00000000000E+00 0. -1.
        -13    1    5    5    0    0  0.57577848883E+01 -0.88049005157E+02 -0.17436941405E+03  0.19542382647E+03  0.00000000000E+00 0.  1.
          4    1    6    6  503    0  0.30338596266E+01  0.16384170145E+02  0.32901587422E+03  0.32943753706E+03  0.00000000000E+00 0. -1.
         -4    1    6    6    0  503  0.46106498793E+02  0.85634062608E+02  0.27597265047E+03  0.29260879296E+03  0.00000000000E+00 0.  1.
<mgrwt>
<rscale>  0 0.10398203E+04</rscale>
<asrwt>0</asrwt>
<pdfrwt beam="1">  1        2 0.10582245E+00 0.10398203E+04</pdfrwt>
<pdfrwt beam="2">  1       -1 0.60457762E-01 0.10398203E+04</pdfrwt>
<totfact> 0.13225628E+02</totfact>
</mgrwt>
</event>
<event>
12    7  0.1661464E-007  0.1694506E+04  0.7818608E-02  0.8764504E-01
          2   -1    0    0  501    0  0.00000000000E+00  0.00000000000E+00  0.21799194429E+04  0.21799194429E+04  0.00000000000E+00 0. -1.
         -1   -1    0    0    0  501 -0.00000000000E+00 -0.00000000000E+00 -0.32929561529E+03  0.32929561529E+03  0.00000000000E+00 0.  1.
         24    2    1    2    0    0  0.71133378359E+02  0.10817395203E+03  0.15407225276E+04  0.15482560172E+04  0.80679777276E+02 0.  0.
        254    2    1    2    0    0 -0.71133378359E+02 -0.10817395203E+03  0.30990130008E+03  0.96095904101E+03  0.90035654121E+03 0.  0.
         23    2    4    4    0    0 -0.28178427237E+03 -0.71399451543E+02  0.54874560602E+03  0.62766342108E+03  0.91320163133E+02 0.  0.
         23    2    4    4    0    0  0.21065089401E+03 -0.36774500488E+02 -0.23884430594E+03  0.33329561994E+03  0.91176777495E+02 0.  0.
          4    1    3    3  502    0  0.87669151071E+02  0.10236006621E+03  0.13896896387E+04  0.13962094238E+04  0.00000000000E+00 0. -1.
         -3    1    3    3    0  502 -0.16535772712E+02  0.58138858185E+01  0.15103288885E+03  0.15204659339E+03  0.00000000000E+00 0.  1.
         13    1    5    5    0    0 -0.91329733104E+02 -0.65940435370E+02  0.17435283276E+03  0.20757690492E+03  0.00000000000E+00 0.  1.
        -13    1    5    5    0    0 -0.19045453927E+03 -0.54590161727E+01  0.37439277326E+03  0.42008651616E+03  0.00000000000E+00 0. -1.
          3    1    6    6  503    0  0.17223329728E+03 -0.25210867222E+02 -0.12989069503E+03  0.21718998405E+03  0.00000000000E+00 0. -1.
         -3    1    6    6    0  503  0.38417596734E+02 -0.11563633266E+02 -0.10895361092E+03  0.11610563589E+03  0.00000000000E+00 0.  1.
<mgrwt>
<rscale>  0 0.16945063E+04</rscale>
<asrwt>0</asrwt>
<pdfrwt beam="1">  1        2 0.33537221E+00 0.16945063E+04</pdfrwt>
<pdfrwt beam="2">  1       -1 0.50660865E-01 0.16945063E+04</pdfrwt>
<totfact> 0.22502731E+01</totfact>
</mgrwt>
</event>
<event>
12    7  0.1661464E-007  0.1235308E+04  0.7818608E-02  0.9082501E-01
          2   -1    0    0  501    0  0.00000000000E+00  0.00000000000E+00  0.15088533516E+04  0.15088533516E+04  0.00000000000E+00 0. -1.
         -1   -1    0    0    0  501 -0.00000000000E+00 -0.00000000000E+00 -0.25283851218E+03  0.25283851218E+03  0.00000000000E+00 0.  1.
         24    2    1    2    0    0  0.12951556998E+03  0.21370010750E+03  0.54517234710E+03  0.60445716151E+03  0.75588049665E+02 0.  0.
        254    2    1    2    0    0 -0.12951556998E+03 -0.21370010750E+03  0.71084249231E+03  0.11572347022E+04  0.87832402244E+03 0.  0.
         23    2    4    4    0    0  0.23552041064E+03 -0.35405092136E+03  0.13577840714E+03  0.45576209872E+03  0.91985846987E+02 0.  0.
         23    2    4    4    0    0 -0.36503598062E+03  0.14035081386E+03  0.57506408517E+03  0.70147260352E+03  0.91735998050E+02 0.  0.
          2    1    3    3  502    0  0.11726627018E+03  0.20523612844E+03  0.53859150882E+03  0.58817859526E+03  0.00000000000E+00 0. -1.
         -1    1    3    3    0  502  0.12249299799E+02  0.84639790566E+01  0.65808382755E+01  0.16278566259E+02  0.00000000000E+00 0.  1.
         13    1    5    5    0    0  0.16582304549E+03 -0.19367867486E+03  0.45592561839E+02  0.25901234180E+03  0.00000000000E+00 0. -1.
        -13    1    5    5    0    0  0.69697365143E+02 -0.16037224650E+03  0.90185845297E+02  0.19674975692E+03  0.00000000000E+00 0.  1.
          3    1    6    6  503    0 -0.35270627637E+03  0.11083083531E+03  0.52982360366E+03  0.64606365201E+03  0.00000000000E+00 0. -1.
         -3    1    6    6    0  503 -0.12329704245E+02  0.29519978553E+02  0.45240481511E+02  0.55408951514E+02  0.00000000000E+00 0.  1.
<mgrwt>
<rscale>  0 0.12353076E+04</rscale>
<asrwt>0</asrwt>
<pdfrwt beam="1">  1        2 0.23213128E+00 0.12353076E+04</pdfrwt>
<pdfrwt beam="2">  1       -1 0.38898233E-01 0.12353076E+04</pdfrwt>
<totfact> 0.90191358E+01</totfact>
</mgrwt>
</event>
<event>
12    7  0.1661464E-007  0.1784584E+04  0.7818608E-02  0.8714540E-01
         -1   -1    0    0    0  501 -0.00000000000E+00  0.00000000000E+00  0.40640902168E+03  0.40640902168E+03  0.00000000000E+00 0.  1.
          2   -1    0    0  501    0  0.00000000000E+00 -0.00000000000E+00 -0.19590741648E+04  0.19590741648E+04  0.00000000000E+00 0. -1.
         24    2    1    2    0    0  0.12411101680E+03 -0.59342139925E+03 -0.24036259521E+03  0.65703137887E+03  0.79771887661E+02 0.  0.
        254    2    1    2    0    0 -0.12411101680E+03  0.59342139925E+03 -0.13123025479E+04  0.17084518076E+04  0.91055867472E+03 0.  0.
         23    2    4    4    0    0 -0.26441835783E+03 -0.23453583417E+02 -0.91165901793E+03  0.95396470005E+03  0.91974699996E+02 0.  0.
         23    2    4    4    0    0  0.14030734103E+03  0.61687498267E+03 -0.40064353000E+03  0.75448710758E+03  0.92274932584E+02 0.  0.
          2    1    3    3  502    0  0.24868689775E+02 -0.28271080684E+02 -0.16540334725E+02  0.41125276984E+02  0.00000000000E+00 0. -1.
         -1    1    3    3    0  502  0.99242327023E+02 -0.56515031857E+03 -0.22382226049E+03  0.61590610189E+03  0.00000000000E+00 0.  1.
         13    1    5    5    0    0 -0.71294755997E+02 -0.25027580294E+02 -0.39990623400E+03  0.40698196274E+03  0.00000000000E+00 0.  1.
        -13    1    5    5    0    0 -0.19312360183E+03  0.15739968779E+01 -0.51175278393E+03  0.54698273731E+03  0.00000000000E+00 0. -1.
          3    1    6    6  503    0  0.76754502431E+02  0.17691392808E+03 -0.14876832488E+03  0.24356068254E+03  0.00000000000E+00 0. -1.
         -3    1    6    6    0  503  0.63552838602E+02  0.43996105459E+03 -0.25187520513E+03  0.51092642505E+03  0.00000000000E+00 0.  1.
<mgrwt>
<rscale>  0 0.17845844E+04</rscale>
<asrwt>0</asrwt>
<pdfrwt beam="1">  1        2 0.30139603E+00 0.17845844E+04</pdfrwt>
<pdfrwt beam="2">  1       -1 0.62524464E-01 0.17845844E+04</pdfrwt>
<totfact> 0.19665015E+01</totfact>
</mgrwt>
</event>
<event>
12    7  0.1661464E-007  0.1881757E+04  0.7818608E-02  0.8663991E-01
          2   -1    0    0  501    0  0.00000000000E+00  0.00000000000E+00  0.12774361462E+04  0.12774361462E+04  0.00000000000E+00 0. -1.
         -1   -1    0    0    0  501 -0.00000000000E+00 -0.00000000000E+00 -0.69299149618E+03  0.69299149618E+03  0.00000000000E+00 0.  1.
         24    2    1    2    0    0  0.17774904577E+03 -0.32279155355E+03  0.87166456242E+03  0.94958697599E+03  0.78276466980E+02 0.  0.
        254    2    1    2    0    0 -0.17774904577E+03  0.32279155355E+03 -0.28721991244E+03  0.10208406663E+04  0.90765151773E+03 0.  0.
         23    2    4    4    0    0 -0.28538314858E+03  0.56719369152E+03 -0.34873447596E+02  0.64238726437E+03  0.91065991954E+02 0.  0.
         23    2    4    4    0    0  0.10763410282E+03 -0.24440213797E+03 -0.25234646485E+03  0.37845340197E+03  0.90723392811E+02 0.  0.
          4    1    3    3  502    0  0.14629010326E+03 -0.30861711490E+03  0.80691359202E+03  0.87621621926E+03  0.00000000000E+00 0. -1.
         -3    1    3    3    0  502  0.31458942505E+02 -0.14174438644E+02  0.64750970401E+02  0.73370756725E+02  0.00000000000E+00 0.  1.
         13    1    5    5    0    0 -0.63309906513E+02  0.58516731500E+02 -0.10023326787E+02  0.86791815328E+02  0.00000000000E+00 0.  1.
        -13    1    5    5    0    0 -0.22207324207E+03  0.50867696002E+03 -0.24850120809E+02  0.55559544905E+03  0.00000000000E+00 0. -1.
          1    1    6    6  503    0  0.60894409318E+02 -0.20524471852E+03 -0.22811116957E+03  0.31283898294E+03  0.00000000000E+00 0. -1.
         -1    1    6    6    0  503  0.46739693498E+02 -0.39157419456E+02 -0.24235295281E+02  0.65614419026E+02  0.00000000000E+00 0.  1.
<mgrwt>
<rscale>  0 0.18817570E+04</rscale>
<asrwt>0</asrwt>
<pdfrwt beam="1">  1        2 0.19652864E+00 0.18817570E+04</pdfrwt>
<pdfrwt beam="2">  1       -1 0.10661408E+00 0.18817570E+04</pdfrwt>
<totfact> 0.14970970E+01</totfact>
</mgrwt>
</event>
<event>
12    7  0.1661464E-007  0.2345634E+04  0.7818608E-02  0.8460143E-01
         -1   -1    0    0    0  501 -0.00000000000E+00  0.00000000000E+00  0.82276274494E+03  0.82276274494E+03  0.00000000000E+00 0.  1.
          2   -1    0    0  501    0  0.00000000000E+00 -0.00000000000E+00 -0.16718053565E+04  0.16718053565E+04  0.00000000000E+00 0. -1.
         24    2    1    2    0    0  0.18144161549E+03  0.13907001970E+02 -0.14045707733E+04  0.14186720043E+04  0.81833574662E+02 0.  0.
        254    2    1    2    0    0 -0.18144161549E+03 -0.13907001970E+02  0.55552816169E+03  0.10758960972E+04  0.90323109393E+03 0.  0.
         23    2    4    4    0    0 -0.31003692766E+03 -0.25864416470E+03 -0.37710169285E+02  0.41510233003E+03  0.88702802006E+02 0.  0.
         23    2    4    4    0    0  0.12859531217E+03  0.24473716273E+03  0.59323833097E+03  0.66079376719E+03  0.91014571813E+02 0.  0.
          4    1    3    3  502    0  0.10000104345E+03  0.39055147521E+02 -0.96169497361E+03  0.96766871165E+03  0.00000000000E+00 0. -1.
         -3    1    3    3    0  502  0.81440572040E+02 -0.25148145551E+02 -0.44287579967E+03  0.45100329260E+03  0.00000000000E+00 0.  1.
         13    1    5    5    0    0  0.71309280409E-01 -0.24560164240E+02 -0.59294417321E+01  0.25265886721E+02  0.00000000000E+00 0.  1.
        -13    1    5    5    0    0 -0.31010823694E+03 -0.23408400046E+03 -0.31780727553E+02  0.38983644331E+03  0.00000000000E+00 0. -1.
          1    1    6    6  503    0  0.11927908560E+03  0.19858151713E+03  0.55029755083E+03  0.59706742806E+03  0.00000000000E+00 0. -1.
         -1    1    6    6    0  503  0.93162265727E+01  0.46155645603E+02  0.42940780144E+02  0.63726339122E+02  0.00000000000E+00 0.  1.
<mgrwt>
<rscale>  0 0.23456335E+04</rscale>
<asrwt>0</asrwt>
<pdfrwt beam="1">  1        2 0.25720082E+00 0.23456335E+04</pdfrwt>
<pdfrwt beam="2">  1       -1 0.12657889E+00 0.23456335E+04</pdfrwt>
<totfact> 0.56720081E+00</totfact>
</mgrwt>
</event>
<event>
12    7  0.1661464E-007  0.1290373E+04  0.7818608E-02  0.9037234E-01
         -1   -1    0    0    0  501 -0.00000000000E+00  0.00000000000E+00  0.55029286908E+03  0.55029286908E+03  0.00000000000E+00 0.  1.
          2   -1    0    0  501    0  0.00000000000E+00 -0.00000000000E+00 -0.75644400009E+03  0.75644400009E+03  0.00000000000E+00 0. -1.
         24    2    1    2    0    0 -0.16936741420E+03 -0.85717152154E+02  0.11331566300E+03  0.23446737265E+03  0.78113751617E+02 0.  0.
        254    2    1    2    0    0  0.16936741420E+03  0.85717152154E+02 -0.31946679401E+03  0.10722694965E+04  0.10058181195E+04 0.  0.
         23    2    4    4    0    0  0.48074179218E+03  0.27502498786E+03  0.25479135259E+02  0.56278080049E+03  0.96548580375E+02 0.  0.
         23    2    4    4    0    0 -0.31137437799E+03 -0.18930783570E+03 -0.34494592927E+03  0.50948869603E+03  0.88315215750E+02 0.  0.
          2    1    3    3  502    0 -0.27723759751E+02 -0.24884962172E+02 -0.82384292393E+01  0.38154159843E+02  0.00000000000E+00 0. -1.
         -1    1    3    3    0  502 -0.14164365445E+03 -0.60832189982E+02  0.12155409224E+03  0.19631321281E+03  0.00000000000E+00 0.  1.
         13    1    5    5    0    0  0.42849592261E+03  0.27310939241E+03  0.98993447729E+01  0.50822779631E+03  0.00000000000E+00 0. -1.
        -13    1    5    5    0    0  0.52245869573E+02  0.19155954412E+01  0.15579790486E+02  0.54553004179E+02  0.00000000000E+00 0.  1.
          1    1    6    6  503    0 -0.16125430539E+03 -0.11012500212E+03 -0.24210541799E+03  0.31103938741E+03  0.00000000000E+00 0. -1.
         -1    1    6    6    0  503 -0.15012007260E+03 -0.79182833578E+02 -0.10284051128E+03  0.19844930861E+03  0.00000000000E+00 0.  1.
<mgrwt>
<rscale>  0 0.12903732E+04</rscale>
<asrwt>0</asrwt>
<pdfrwt beam="1">  1        2 0.11637600E+00 0.12903732E+04</pdfrwt>
<pdfrwt beam="2">  1       -1 0.84660442E-01 0.12903732E+04</pdfrwt>
<totfact> 0.57388228E+01</totfact>
</mgrwt>
</event>
<event>
12    7  0.1661464E-007  0.1509562E+04  0.7818608E-02  0.8878119E-01
          2   -1    0    0  501    0  0.00000000000E+00  0.00000000000E+00  0.24280082033E+04  0.24280082033E+04  0.00000000000E+00 0. -1.
         -1   -1    0    0    0  501 -0.00000000000E+00 -0.00000000000E+00 -0.23463440508E+03  0.23463440508E+03  0.00000000000E+00 0.  1.
         24    2    1    2    0    0 -0.10957988173E+03 -0.40662356725E+03  0.30467080903E+03  0.52579859208E+03  0.79305621728E+02 0.  0.
        254    2    1    2    0    0  0.10957988173E+03  0.40662356725E+03  0.18887029892E+04  0.21368440163E+04  0.90639554978E+03 0.  0.
         23    2    4    4    0    0 -0.29824772608E+03  0.42211952462E+03  0.68560922585E+03  0.86344740952E+03  0.91349982273E+02 0.  0.
         23    2    4    4    0    0  0.40782760782E+03 -0.15495957370E+02  0.12030937634E+04  0.12733966068E+04  0.86837966025E+02 0.  0.
          2    1    3    3  502    0 -0.10998099604E+02 -0.43705906463E+02  0.67587865568E+02  0.81235977416E+02  0.00000000000E+00 0. -1.
         -1    1    3    3    0  502 -0.98581782129E+02 -0.36291766079E+03  0.23708294346E+03  0.44456261466E+03  0.00000000000E+00 0.  1.
         13    1    5    5    0    0 -0.73147061421E+02  0.16460323363E+03  0.27927026132E+03  0.33232002042E+03  0.00000000000E+00 0.  1.
        -13    1    5    5    0    0 -0.22510066466E+03  0.25751629099E+03  0.40633896453E+03  0.53112738910E+03  0.00000000000E+00 0. -1.
          2    1    6    6  503    0  0.37578905197E+03 -0.38474531726E+02  0.10963990949E+04  0.11596502389E+04  0.00000000000E+00 0. -1.
         -2    1    6    6    0  503  0.32038555849E+02  0.22978574356E+02  0.10669466847E+03  0.11374636795E+03  0.00000000000E+00 0.  1.
<mgrwt>
<rscale>  0 0.15095619E+04</rscale>
<asrwt>0</asrwt>
<pdfrwt beam="1">  1        2 0.37353971E+00 0.15095619E+04</pdfrwt>
<pdfrwt beam="2">  1       -1 0.36097602E-01 0.15095619E+04</pdfrwt>
<totfact> 0.30990676E+01</totfact>
</mgrwt>
</event>
<event>
12    7  0.1661464E-007  0.1336186E+04  0.7818608E-02  0.9001351E-01
          2   -1    0    0  501    0  0.00000000000E+00  0.00000000000E+00  0.29923325058E+04  0.29923325058E+04  0.00000000000E+00 0. -1.
         -1   -1    0    0    0  501 -0.00000000000E+00 -0.00000000000E+00 -0.14916407270E+03  0.14916407270E+03  0.00000000000E+00 0.  1.
         24    2    1    2    0    0 -0.26528144278E+03 -0.84303801356E+02  0.13097636593E+04  0.13414049707E+04  0.80031728631E+02 0.  0.
        254    2    1    2    0    0  0.26528144278E+03  0.84303801356E+02  0.15334047739E+04  0.18000916078E+04  0.90084306133E+03 0.  0.
         23    2    4    4    0    0  0.19298354849E+03  0.48173508796E+03  0.92014088682E+03  0.10602698204E+04  0.90562108269E+02 0.  0.
         23    2    4    4    0    0  0.72297894292E+02 -0.39743128660E+03  0.61326388705E+03  0.73982178743E+03  0.89805728637E+02 0.  0.
          4    1    3    3  502    0 -0.21731256727E+03 -0.51457208151E+02  0.88788610092E+03  0.91554045480E+03  0.00000000000E+00 0. -1.
         -3    1    3    3    0  502 -0.47968875504E+02 -0.32846593205E+02  0.42187755835E+03  0.42586451595E+03  0.00000000000E+00 0.  1.
         13    1    5    5    0    0  0.43251431687E+02  0.11055852936E+03  0.14085806566E+03  0.18421419440E+03  0.00000000000E+00 0. -1.
        -13    1    5    5    0    0  0.14973211680E+03  0.37117655860E+03  0.77928282116E+03  0.87605562598E+03  0.00000000000E+00 0.  1.
          3    1    6    6  503    0  0.18052638949E+02 -0.25504269213E+02  0.92136841711E+02  0.97291125605E+02  0.00000000000E+00 0. -1.
         -3    1    6    6    0  503  0.54245255343E+02 -0.37192701739E+03  0.52112704534E+03  0.64253066182E+03  0.00000000000E+00 0.  1.
<mgrwt>
<rscale>  0 0.13361864E+04</rscale>
<asrwt>0</asrwt>
<pdfrwt beam="1">  1        2 0.46035880E+00 0.13361864E+04</pdfrwt>
<pdfrwt beam="2">  1       -1 0.22948321E-01 0.13361864E+04</pdfrwt>
<totfact> 0.32121566E+01</totfact>
</mgrwt>
</event>
<event>
12    7  0.1661464E-007  0.3053070E+04  0.7818608E-02  0.8228737E-01
          2   -1    0    0  501    0  0.00000000000E+00  0.00000000000E+00  0.24159547206E+04  0.24159547206E+04  0.00000000000E+00 0. -1.
         -1   -1    0    0    0  501 -0.00000000000E+00 -0.00000000000E+00 -0.96454977751E+03  0.96454977751E+03  0.00000000000E+00 0.  1.
         24    2    1    2    0    0 -0.12524645066E+04  0.35140358151E+03  0.11463728406E+03  0.13082661764E+04  0.79163526613E+02 0.  0.
        254    2    1    2    0    0  0.12524645066E+04 -0.35140358151E+03  0.13367676590E+04  0.20722383217E+04  0.90281341947E+03 0.  0.
         23    2    4    4    0    0  0.39240691843E+03  0.14818476685E+03  0.86896064052E+03  0.96928540621E+03  0.92085227634E+02 0.  0.
         23    2    4    4    0    0  0.86005758819E+03 -0.49958834836E+03  0.46780701850E+03  0.11029529155E+04  0.91510406345E+02 0.  0.
          4    1    3    3  502    0 -0.20275419356E+03  0.79174943364E+02  0.39601111448E+02  0.22123784191E+03  0.00000000000E+00 0. -1.
         -3    1    3    3    0  502 -0.10497103131E+04  0.27222863815E+03  0.75036172614E+02  0.10870283345E+04  0.00000000000E+00 0.  1.
         13    1    5    5    0    0  0.36052518822E+03  0.15973915010E+03  0.77838550872E+03  0.87257034536E+03  0.00000000000E+00 0.  1.
        -13    1    5    5    0    0  0.31881730207E+02 -0.11554383249E+02  0.90575131804E+02  0.96715060846E+02  0.00000000000E+00 0. -1.
          1    1    6    6  503    0  0.11902505678E+03 -0.65760681476E+02  0.30643973194E+02  0.13939327266E+03  0.00000000000E+00 0. -1.
         -1    1    6    6    0  503  0.74103253141E+03 -0.43382766689E+03  0.43716304531E+03  0.96355964286E+03  0.00000000000E+00 0.  1.
<mgrwt>
<rscale>  0 0.30530697E+04</rscale>
<asrwt>0</asrwt>
<pdfrwt beam="1">  1        2 0.37168534E+00 0.30530697E+04</pdfrwt>
<pdfrwt beam="2">  1       -1 0.14839227E+00 0.30530697E+04</pdfrwt>
<totfact> 0.13542601E+00</totfact>
</mgrwt>
</event>
<event>
12    7  0.1661464E-007  0.1753205E+04  0.7818608E-02  0.8731588E-01
         -1   -1    0    0    0  501 -0.00000000000E+00  0.00000000000E+00  0.44805949855E+03  0.44805949855E+03  0.00000000000E+00 0.  1.
          2   -1    0    0  501    0  0.00000000000E+00 -0.00000000000E+00 -0.17150223387E+04  0.17150223387E+04  0.00000000000E+00 0. -1.
         24    2    1    2    0    0 -0.41991366327E+03  0.31284671655E+03 -0.13124986814E+02  0.52969411176E+03  0.78759342940E+02 0.  0.
        254    2    1    2    0    0  0.41991366327E+03 -0.31284671655E+03 -0.12538378534E+04  0.16333877255E+04  0.90644665959E+03 0.  0.
         23    2    4    4    0    0 -0.63202473827E+02 -0.25303802814E+03  0.10040762579E+02  0.27598890977E+03  0.89700975564E+02 0.  0.
         23    2    4    4    0    0  0.48311613710E+03 -0.59808688407E+02 -0.12638786160E+04  0.13573988158E+04  0.90355453764E+02 0.  0.
          2    1    3    3  502    0 -0.59396792815E+02  0.58987663058E+02  0.24340862882E+02  0.87177984581E+02  0.00000000000E+00 0. -1.
         -1    1    3    3    0  502 -0.36051687045E+03  0.25385905349E+03 -0.37465849696E+02  0.44251612718E+03  0.00000000000E+00 0.  1.
         13    1    5    5    0    0 -0.84125287751E+02 -0.19021847586E+03 -0.51580271712E+01  0.20805465110E+03  0.00000000000E+00 0.  1.
        -13    1    5    5    0    0  0.20922813925E+02 -0.62819552280E+02  0.15198789750E+02  0.67934258670E+02  0.00000000000E+00 0. -1.
          1    1    6    6  503    0  0.64409791636E+02 -0.23829139502E+02 -0.26417258519E+03  0.27295348306E+03  0.00000000000E+00 0. -1.
         -1    1    6    6    0  503  0.41870634546E+03 -0.35979548905E+02 -0.99970603076E+03  0.10844453327E+04  0.00000000000E+00 0.  1.
<mgrwt>
<rscale>  0 0.17532051E+04</rscale>
<asrwt>0</asrwt>
<pdfrwt beam="1">  1        2 0.26384959E+00 0.17532051E+04</pdfrwt>
<pdfrwt beam="2">  1       -1 0.68932231E-01 0.17532051E+04</pdfrwt>
<totfact> 0.22110131E+01</totfact>
</mgrwt>
</event>
<event>
12    7  0.1661464E-007  0.2083058E+04  0.7818608E-02  0.8568744E-01
          2   -1    0    0  501    0  0.00000000000E+00  0.00000000000E+00  0.11644884877E+04  0.11644884877E+04  0.00000000000E+00 0. -1.
         -1   -1    0    0    0  501 -0.00000000000E+00 -0.00000000000E+00 -0.93155252482E+03  0.93155252482E+03  0.00000000000E+00 0.  1.
         24    2    1    2    0    0 -0.79263203597E+03  0.97674368806E+02  0.40168947600E+03  0.89756338828E+03  0.80372719797E+02 0.  0.
        254    2    1    2    0    0  0.79263203597E+03 -0.97674368806E+02 -0.16875351314E+03  0.11984776242E+04  0.87753349839E+03 0.  0.
         23    2    4    4    0    0  0.60565318365E+02 -0.25773402876E+02 -0.40527907034E+03  0.42053414391E+03  0.90914329202E+02 0.  0.
         23    2    4    4    0    0  0.73206671760E+03 -0.71900965930E+02  0.23652555720E+03  0.77794348031E+03  0.90334331379E+02 0.  0.
          4    1    3    3  502    0 -0.45413411463E+03  0.53418842709E+02  0.18531985256E+03  0.49339113752E+03  0.00000000000E+00 0. -1.
         -3    1    3    3    0  502 -0.33849792134E+03  0.44255526096E+02  0.21636962343E+03  0.40417225076E+03  0.00000000000E+00 0.  1.
         13    1    5    5    0    0 -0.17532827898E+02 -0.29312285459E+01 -0.20007804604E+02  0.26763863696E+02  0.00000000000E+00 0. -1.
        -13    1    5    5    0    0  0.78098146263E+02 -0.22842174330E+02 -0.38527126574E+03  0.39377028022E+03  0.00000000000E+00 0.  1.
          3    1    6    6  503    0  0.30487465694E+03 -0.50231210126E+00  0.62754209932E+02  0.31126660538E+03  0.00000000000E+00 0. -1.
         -3    1    6    6    0  503  0.42719206066E+03 -0.71398653829E+02  0.17377134727E+03  0.46667687493E+03  0.00000000000E+00 0.  1.
<mgrwt>
<rscale>  0 0.20830576E+04</rscale>
<asrwt>0</asrwt>
<pdfrwt beam="1">  1        2 0.17915207E+00 0.20830576E+04</pdfrwt>
<pdfrwt beam="2">  1       -1 0.14331577E+00 0.20830576E+04</pdfrwt>
<totfact> 0.82509831E+00</totfact>
</mgrwt>
</event>
<event>
12    7  0.1661464E-007  0.1906421E+04  0.7818608E-02  0.8651667E-01
          2   -1    0    0  501    0  0.00000000000E+00  0.00000000000E+00  0.13854145721E+04  0.13854145721E+04  0.00000000000E+00 0. -1.
         -1   -1    0    0    0  501 -0.00000000000E+00 -0.00000000000E+00 -0.65584009790E+03  0.65584009790E+03  0.00000000000E+00 0.  1.
         24    2    1    2    0    0  0.26339883291E+03 -0.46898151711E+03 -0.24155257254E+03  0.59490655636E+03  0.79016181496E+02 0.  0.
        254    2    1    2    0    0 -0.26339883291E+03  0.46898151711E+03  0.97112704672E+03  0.14463481136E+04  0.92709897872E+03 0.  0.
         23    2    4    4    0    0  0.18597887466E+03  0.56052880489E+03  0.46919093235E+03  0.75945111611E+03  0.88573042378E+02 0.  0.
         23    2    4    4    0    0 -0.44937770757E+03 -0.91547287785E+02  0.50193611437E+03  0.68689699751E+03  0.97807935866E+02 0.  0.
          4    1    3    3  502    0  0.11652485584E+03 -0.16066283282E+03 -0.12252186672E+03  0.23324278275E+03  0.00000000000E+00 0. -1.
         -3    1    3    3    0  502  0.14687397706E+03 -0.30831868428E+03 -0.11903070582E+03  0.36166377361E+03  0.00000000000E+00 0.  1.
         13    1    5    5    0    0  0.23769460512E+02  0.15751234414E+03  0.90958062803E+02  0.18343526106E+03  0.00000000000E+00 0. -1.
        -13    1    5    5    0    0  0.16220941415E+03  0.40301646075E+03  0.37823286955E+03  0.57601585506E+03  0.00000000000E+00 0.  1.
          2    1    6    6  503    0 -0.13983972794E+02 -0.22573898757E+02  0.16931834657E+02  0.31493164736E+02  0.00000000000E+00 0. -1.
         -2    1    6    6    0  503 -0.43539373477E+03 -0.68973389028E+02  0.48500427972E+03  0.65540383277E+03  0.00000000000E+00 0.  1.
<mgrwt>
<rscale>  0 0.19064212E+04</rscale>
<asrwt>0</asrwt>
<pdfrwt beam="1">  1        2 0.21314070E+00 0.19064212E+04</pdfrwt>
<pdfrwt beam="2">  1       -1 0.10089848E+00 0.19064212E+04</pdfrwt>
<totfact> 0.14696166E+01</totfact>
</mgrwt>
</event>
<event>
12    7  0.1661464E-007  0.1510656E+04  0.7818608E-02  0.8877398E-01
          2   -1    0    0  501    0  0.00000000000E+00  0.00000000000E+00  0.21783998644E+04  0.21783998644E+04  0.00000000000E+00 0. -1.
         -1   -1    0    0    0  501 -0.00000000000E+00 -0.00000000000E+00 -0.26189874683E+03  0.26189874683E+03  0.00000000000E+00 0.  1.
         24    2    1    2    0    0 -0.73391268695E+02 -0.43571265767E+03  0.83899617968E+03  0.95151987861E+03  0.79017032959E+02 0.  0.
        254    2    1    2    0    0  0.73391268695E+02  0.43571265767E+03  0.10775049379E+04  0.14887787326E+04  0.92747691353E+03 0.  0.
         23    2    4    4    0    0 -0.35117835386E+03  0.38590842896E+03  0.33325564639E+03  0.62557269576E+03  0.89612053130E+02 0.  0.
         23    2    4    4    0    0  0.42456962256E+03  0.49804228704E+02  0.74424929148E+03  0.86320603684E+03  0.92075124551E+02 0.  0.
          4    1    3    3  502    0 -0.55097178976E+02 -0.32430537421E+03  0.69167062140E+03  0.76590986636E+03  0.00000000000E+00 0. -1.
         -3    1    3    3    0  502 -0.18294089719E+02 -0.11140728346E+03  0.14732555828E+03  0.18561001225E+03  0.00000000000E+00 0.  1.
         13    1    5    5    0    0 -0.20205763750E+03  0.15551431780E+03  0.16054013654E+03  0.30130570415E+03  0.00000000000E+00 0. -1.
        -13    1    5    5    0    0 -0.14912071637E+03  0.23039411116E+03  0.17271550984E+03  0.32426699161E+03  0.00000000000E+00 0.  1.
          1    1    6    6  503    0  0.40124682114E+03  0.29675452752E+02  0.65408495473E+03  0.76792367588E+03  0.00000000000E+00 0. -1.
         -1    1    6    6    0  503  0.23322801416E+02  0.20128775953E+02  0.90164336752E+02  0.95282360955E+02  0.00000000000E+00 0.  1.
<mgrwt>
<rscale>  0 0.15106557E+04</rscale>
<asrwt>0</asrwt>
<pdfrwt beam="1">  1        2 0.33513843E+00 0.15106557E+04</pdfrwt>
<pdfrwt beam="2">  1       -1 0.40292116E-01 0.15106557E+04</pdfrwt>
<totfact> 0.35128099E+01</totfact>
</mgrwt>
</event>
<event>
12    7  0.1661464E-007  0.1709758E+04  0.7818608E-02  0.8755819E-01
          2   -1    0    0  501    0  0.00000000000E+00  0.00000000000E+00  0.13039151519E+04  0.13039151519E+04  0.00000000000E+00 0. -1.
         -1   -1    0    0    0  501 -0.00000000000E+00 -0.00000000000E+00 -0.56047965791E+03  0.56047965791E+03  0.00000000000E+00 0.  1.
         24    2    1    2    0    0 -0.51500652729E+03 -0.33099945854E+03  0.25680254161E+03  0.66844870086E+03  0.77998433357E+02 0.  0.
        254    2    1    2    0    0  0.51500652729E+03  0.33099945854E+03  0.48663295243E+03  0.11959461090E+04  0.90481108553E+03 0.  0.
         23    2    4    4    0    0  0.29672628580E+03  0.62666352770E+03  0.22364525753E+03  0.73433583765E+03  0.92077443498E+02 0.  0.
         23    2    4    4    0    0  0.21828024149E+03 -0.29566406917E+03  0.26298769490E+03  0.46161027134E+03  0.94116998011E+02 0.  0.
          2    1    3    3  502    0 -0.36147594108E+03 -0.21330494472E+03  0.21043509437E+03  0.46951760815E+03  0.00000000000E+00 0. -1.
         -1    1    3    3    0  502 -0.15353058621E+03 -0.11769451381E+03  0.46367447240E+02  0.19893109271E+03  0.00000000000E+00 0.  1.
         13    1    5    5    0    0  0.20812188924E+03  0.34505880970E+03  0.15088363765E+03  0.43028615484E+03  0.00000000000E+00 0. -1.
        -13    1    5    5    0    0  0.88604396564E+02  0.28160471800E+03  0.72761619875E+02  0.30404968281E+03  0.00000000000E+00 0.  1.
          3    1    6    6  503    0  0.17760917827E+03 -0.27870179662E+03  0.20546043832E+03  0.38914483597E+03  0.00000000000E+00 0. -1.
         -3    1    6    6    0  503  0.40671063224E+02 -0.16962272542E+02  0.57527256582E+02  0.72465435370E+02  0.00000000000E+00 0.  1.
<mgrwt>
<rscale>  0 0.17097578E+04</rscale>
<asrwt>0</asrwt>
<pdfrwt beam="1">  1        2 0.20060233E+00 0.17097578E+04</pdfrwt>
<pdfrwt beam="2">  1       -1 0.86227640E-01 0.17097578E+04</pdfrwt>
<totfact> 0.23655382E+01</totfact>
</mgrwt>
</event>
<event>
12    7  0.1661464E-007  0.1699342E+04  0.7818608E-02  0.8761740E-01
          2   -1    0    0  501    0  0.00000000000E+00  0.00000000000E+00  0.65449781057E+03  0.65449781057E+03  0.00000000000E+00 0. -1.
         -1   -1    0    0    0  501 -0.00000000000E+00 -0.00000000000E+00 -0.11030450705E+04  0.11030450705E+04  0.00000000000E+00 0.  1.
         24    2    1    2    0    0 -0.32546750118E+03  0.39241698377E+02 -0.68904403452E+03  0.76732551899E+03  0.80856449191E+02 0.  0.
        254    2    1    2    0    0  0.32546750118E+03 -0.39241698377E+02  0.24049677462E+03  0.99021736205E+03  0.90289684920E+03 0.  0.
         23    2    4    4    0    0  0.19803679172E+03  0.41059624991E+03  0.18755619411E+02  0.46502846347E+03  0.89954695633E+02 0.  0.
         23    2    4    4    0    0  0.12743070947E+03 -0.44983794828E+03  0.22174115520E+03  0.52518889858E+03  0.89785710725E+02 0.  0.
          2    1    3    3  502    0 -0.69278577321E+02 -0.20061107909E+02 -0.19018509903E+03  0.20340192040E+03  0.00000000000E+00 0. -1.
         -1    1    3    3    0  502 -0.25618892386E+03  0.59302806286E+02 -0.49885893549E+03  0.56392359860E+03  0.00000000000E+00 0.  1.
         13    1    5    5    0    0 -0.26547438480E+01 -0.21928547747E+00 -0.65924914479E+01  0.71103230946E+01  0.00000000000E+00 0. -1.
        -13    1    5    5    0    0  0.20069153556E+03  0.41081553538E+03  0.25348110859E+02  0.45791814037E+03  0.00000000000E+00 0.  1.
          2    1    6    6  503    0 -0.18037580824E+01 -0.17880493464E+02 -0.73909641731E+01  0.19431725120E+02  0.00000000000E+00 0. -1.
         -2    1    6    6    0  503  0.12923446755E+03 -0.43195745482E+03  0.22913211938E+03  0.50575717346E+03  0.00000000000E+00 0.  1.
<mgrwt>
<rscale>  0 0.16993417E+04</rscale>
<asrwt>0</asrwt>
<pdfrwt beam="1">  1        2 0.10069197E+00 0.16993417E+04</pdfrwt>
<pdfrwt beam="2">  1       -1 0.16969924E+00 0.16993417E+04</pdfrwt>
<totfact> 0.11982675E+01</totfact>
</mgrwt>
</event>
<event>
12    7  0.1661464E-007  0.1412217E+04  0.7818608E-02  0.8945023E-01
          2   -1    0    0  501    0  0.00000000000E+00  0.00000000000E+00  0.28521306316E+04  0.28521306316E+04  0.00000000000E+00 0. -1.
         -1   -1    0    0    0  501 -0.00000000000E+00 -0.00000000000E+00 -0.17481287206E+03  0.17481287206E+03  0.00000000000E+00 0.  1.
         24    2    1    2    0    0  0.35337344625E+03 -0.18682656833E+03  0.10139793230E+04  0.10928109481E+04  0.79402403419E+02 0.  0.
        254    2    1    2    0    0 -0.35337344625E+03  0.18682656833E+03  0.16633384365E+04  0.19341325555E+04  0.90243948764E+03 0.  0.
         23    2    4    4    0    0 -0.46619186152E+03  0.33250719034E+03  0.16240807616E+04  0.17246356099E+04  0.93988207134E+02 0.  0.
         23    2    4    4    0    0  0.11281841527E+03 -0.14568062201E+03  0.39257674846E+02  0.20949694565E+03  0.91634964673E+02 0.  0.
          4    1    3    3  502    0  0.99466839619E+02 -0.44097616887E+02  0.19112130189E+03  0.21992181346E+03  0.00000000000E+00 0. -1.
         -3    1    3    3    0  502  0.25390660664E+03 -0.14272895144E+03  0.82285802113E+03  0.87288913466E+03  0.00000000000E+00 0.  1.
         13    1    5    5    0    0 -0.16918721673E+03  0.96607229120E+02  0.43775632151E+03  0.47915328241E+03  0.00000000000E+00 0. -1.
        -13    1    5    5    0    0 -0.29700464480E+03  0.23589996122E+03  0.11863244401E+04  0.12454823275E+04  0.00000000000E+00 0.  1.
          1    1    6    6  503    0  0.90285681655E+02 -0.44185714448E+02  0.75405475277E+01  0.10080050362E+03  0.00000000000E+00 0. -1.
         -1    1    6    6    0  503  0.22532733615E+02 -0.10149490756E+03  0.31717127318E+02  0.10869644203E+03  0.00000000000E+00 0.  1.
<mgrwt>
<rscale>  0 0.14122169E+04</rscale>
<asrwt>0</asrwt>
<pdfrwt beam="1">  1        2 0.43878930E+00 0.14122169E+04</pdfrwt>
<pdfrwt beam="2">  1       -1 0.26894290E-01 0.14122169E+04</pdfrwt>
<totfact> 0.29606004E+01</totfact>
</mgrwt>
</event>
<event>
12    7  0.1661464E-007  0.2540241E+04  0.7818608E-02  0.8388788E-01
         -1   -1    0    0    0  501 -0.00000000000E+00  0.00000000000E+00  0.11963243571E+04  0.11963243571E+04  0.00000000000E+00 0.  1.
          2   -1    0    0  501    0  0.00000000000E+00 -0.00000000000E+00 -0.13484692261E+04  0.13484692261E+04  0.00000000000E+00 0. -1.
         24    2    1    2    0    0  0.92837102804E+03 -0.83798739172E+02 -0.66889109958E+03  0.11498677224E+04  0.76716891497E+02 0.  0.
        254    2    1    2    0    0 -0.92837102804E+03  0.83798739172E+02  0.51674623060E+03  0.13949258608E+04  0.89994249596E+03 0.  0.
         23    2    4    4    0    0 -0.10220591341E+03 -0.33651203232E+03  0.11259631984E+03  0.37953241059E+03  0.87638592017E+02 0.  0.
         23    2    4    4    0    0 -0.82616511463E+03  0.42031077150E+03  0.40414991076E+03  0.10153934503E+04  0.92069360809E+02 0.  0.
          4    1    3    3  502    0  0.71250152553E+03 -0.54671010391E+02 -0.47336794682E+03  0.85716075291E+03  0.00000000000E+00 0. -1.
         -3    1    3    3    0  502  0.21586950251E+03 -0.29127728781E+02 -0.19552315276E+03  0.29270696945E+03  0.00000000000E+00 0.  1.
         13    1    5    5    0    0 -0.68761717953E+02 -0.30596008012E+03  0.11539117450E+03  0.33414797266E+03  0.00000000000E+00 0.  1.
        -13    1    5    5    0    0 -0.33444195456E+02 -0.30551952206E+02 -0.27948546603E+01  0.45384437926E+02  0.00000000000E+00 0. -1.
          2    1    6    6  503    0 -0.34779072009E+03  0.21571644247E+03  0.21063781499E+03  0.46028280180E+03  0.00000000000E+00 0. -1.
         -2    1    6    6    0  503 -0.47837439454E+03  0.20459432902E+03  0.19351209577E+03  0.55511064846E+03  0.00000000000E+00 0.  1.
<mgrwt>
<rscale>  0 0.25402414E+04</rscale>
<asrwt>0</asrwt>
<pdfrwt beam="1">  1        2 0.20745680E+00 0.25402414E+04</pdfrwt>
<pdfrwt beam="2">  1       -1 0.18404990E+00 0.25402414E+04</pdfrwt>
<totfact> 0.30548708E+00</totfact>
</mgrwt>
</event>
<event>
12    7  0.1661464E-007  0.1300193E+04  0.7818608E-02  0.9029412E-01
         -1   -1    0    0    0  501 -0.00000000000E+00  0.00000000000E+00  0.22922878301E+03  0.22922878301E+03  0.00000000000E+00 0.  1.
          2   -1    0    0  501    0  0.00000000000E+00 -0.00000000000E+00 -0.18436832013E+04  0.18436832013E+04  0.00000000000E+00 0. -1.
         24    2    1    2    0    0 -0.21795095330E+03  0.22307326546E+03 -0.36083986612E+03  0.48397230785E+03  0.82216093152E+02 0.  0.
        254    2    1    2    0    0  0.21795095330E+03 -0.22307326546E+03 -0.12536145522E+04  0.15889396765E+04  0.92515704086E+03 0.  0.
         23    2    4    4    0    0  0.27505823263E+01 -0.54892986244E+03 -0.57341728972E+03  0.79919597611E+03  0.92602702449E+02 0.  0.
         23    2    4    4    0    0  0.21520037098E+03  0.32585659698E+03 -0.68019726249E+03  0.78974370039E+03  0.92374644537E+02 0.  0.
          2    1    3    3  502    0 -0.45471638313E+02  0.47054229162E+02 -0.31459800958E+02  0.72605023581E+02  0.00000000000E+00 0. -1.
         -1    1    3    3    0  502 -0.17247931499E+03  0.17601903630E+03 -0.32938006516E+03  0.41136728427E+03  0.00000000000E+00 0.  1.
         13    1    5    5    0    0  0.25662148268E+01 -0.15546768087E+03 -0.22588795099E+03  0.27423010713E+03  0.00000000000E+00 0. -1.
        -13    1    5    5    0    0  0.18436749948E+00 -0.39346218158E+03 -0.34752933873E+03  0.52496586899E+03  0.00000000000E+00 0.  1.
          4    1    6    6  503    0  0.12725048310E+03  0.26530164538E+03 -0.51144258344E+03  0.59004335828E+03  0.00000000000E+00 0.  1.
         -4    1    6    6    0  503  0.87949887882E+02  0.60554951594E+02 -0.16875467904E+03  0.19970034211E+03  0.00000000000E+00 0. -1.
<mgrwt>
<rscale>  0 0.13001927E+04</rscale>
<asrwt>0</asrwt>
<pdfrwt beam="1">  1        2 0.28364355E+00 0.13001927E+04</pdfrwt>
<pdfrwt beam="2">  1       -1 0.35265968E-01 0.13001927E+04</pdfrwt>
<totfact> 0.69767734E+01</totfact>
</mgrwt>
</event>
<event>
12    7  0.1661464E-007  0.1700329E+04  0.7818608E-02  0.8761177E-01
          2   -1    0    0  501    0  0.00000000000E+00  0.00000000000E+00  0.17651788550E+04  0.17651788550E+04  0.00000000000E+00 0. -1.
         -1   -1    0    0    0  501 -0.00000000000E+00 -0.00000000000E+00 -0.40946549828E+03  0.40946549828E+03  0.00000000000E+00 0.  1.
         24    2    1    2    0    0  0.15255208273E+03  0.43314936090E+03  0.91251824021E+03  0.10246549014E+04  0.79609179386E+02 0.  0.
        254    2    1    2    0    0 -0.15255208273E+03 -0.43314936090E+03  0.44319511652E+03  0.11499894519E+04  0.95664168912E+03 0.  0.
         23    2    4    4    0    0  0.27786921417E+03 -0.53042886405E+03  0.19832843911E+03  0.63700649458E+03  0.88752602071E+02 0.  0.
         23    2    4    4    0    0 -0.43042129691E+03  0.97279503148E+02  0.24486667741E+03  0.51298295731E+03  0.92011033179E+02 0.  0.
          4    1    3    3  502    0  0.15818237758E+03  0.42736911322E+03  0.90646943346E+03  0.10145702821E+04  0.00000000000E+00 0. -1.
         -3    1    3    3    0  502 -0.56302948467E+01  0.57802476879E+01  0.60488067471E+01  0.10084619302E+02  0.00000000000E+00 0.  1.
         13    1    5    5    0    0  0.10776574595E+03 -0.22177709639E+03  0.12731020530E+03  0.27750031505E+03  0.00000000000E+00 0. -1.
        -13    1    5    5    0    0  0.17010346823E+03 -0.30865176766E+03  0.71018233809E+02  0.35950617953E+03  0.00000000000E+00 0.  1.
          3    1    6    6  503    0 -0.18094638994E+02  0.25271222088E+02  0.82188150503E+01  0.32149643031E+02  0.00000000000E+00 0. -1.
         -3    1    6    6    0  503 -0.41232665791E+03  0.72008281059E+02  0.23664786236E+03  0.48083331428E+03  0.00000000000E+00 0.  1.
<mgrwt>
<rscale>  0 0.17003292E+04</rscale>
<asrwt>0</asrwt>
<pdfrwt beam="1">  1        2 0.27156597E+00 0.17003292E+04</pdfrwt>
<pdfrwt beam="2">  1       -1 0.62994693E-01 0.17003292E+04</pdfrwt>
<totfact> 0.24991765E+01</totfact>
</mgrwt>
</event>
<event>
12    7  0.1661464E-007  0.1364455E+04  0.7818608E-02  0.8979958E-01
         -1   -1    0    0    0  501 -0.00000000000E+00  0.00000000000E+00  0.10690020650E+04  0.10690020650E+04  0.00000000000E+00 0.  1.
          2   -1    0    0  501    0  0.00000000000E+00 -0.00000000000E+00 -0.43539133047E+03  0.43539133047E+03  0.00000000000E+00 0. -1.
         24    2    1    2    0    0 -0.98622454912E+02  0.29198182987E+03 -0.10176327493E+03  0.33429524769E+03  0.80110991265E+02 0.  0.
        254    2    1    2    0    0  0.98622454912E+02 -0.29198182987E+03  0.73537400943E+03  0.11700981477E+04  0.85637314532E+03 0.  0.
         23    2    4    4    0    0  0.21864027384E+03  0.25111087859E+03  0.29069978671E+03  0.45176044657E+03  0.93385718391E+02 0.  0.
         23    2    4    4    0    0 -0.12001781893E+03 -0.54309270845E+03  0.44467422272E+03  0.71833770118E+03  0.94445337349E+02 0.  0.
          2    1    3    3  502    0 -0.10936467520E+03  0.28582907325E+03 -0.98385514868E+02  0.32146321848E+03  0.00000000000E+00 0. -1.
         -1    1    3    3    0  502  0.10742220293E+02  0.61527566156E+01 -0.33777600644E+01  0.12832029218E+02  0.00000000000E+00 0.  1.
         13    1    5    5    0    0 -0.79301267705E+01  0.16468254666E+02  0.25515444142E+02  0.31386752175E+02  0.00000000000E+00 0.  1.
        -13    1    5    5    0    0  0.22657040061E+03  0.23464262392E+03  0.26518434257E+03  0.42037369439E+03  0.00000000000E+00 0. -1.
          3    1    6    6  503    0 -0.10814367424E+03 -0.30965916282E+03  0.22654568063E+03  0.39863115383E+03  0.00000000000E+00 0. -1.
         -3    1    6    6    0  503 -0.11874144688E+02 -0.23343354563E+03  0.21812854209E+03  0.31970654734E+03  0.00000000000E+00 0.  1.
<mgrwt>
<rscale>  0 0.13644548E+04</rscale>
<asrwt>0</asrwt>
<pdfrwt beam="1">  1        2 0.66983282E-01 0.13644548E+04</pdfrwt>
<pdfrwt beam="2">  1       -1 0.16446185E+00 0.13644548E+04</pdfrwt>
<totfact> 0.21805252E+01</totfact>
</mgrwt>
</event>
<event>
12    7  0.1661464E-007  0.1508537E+04  0.7818608E-02  0.8878796E-01
         -1   -1    0    0    0  501 -0.00000000000E+00  0.00000000000E+00  0.79149925269E+03  0.79149925269E+03  0.00000000000E+00 0.  1.
          2   -1    0    0  501    0  0.00000000000E+00 -0.00000000000E+00 -0.71878871685E+03  0.71878871685E+03  0.00000000000E+00 0. -1.
         24    2    1    2    0    0 -0.34395391558E+03 -0.20738125757E+03  0.28443742676E+03  0.49862867183E+03  0.80091326586E+02 0.  0.
        254    2    1    2    0    0  0.34395391558E+03  0.20738125757E+03 -0.21172689092E+03  0.10116592977E+04  0.90405474185E+03 0.  0.
         23    2    4    4    0    0 -0.10791241385E+03 -0.18088777484E+03 -0.32579967000E+03  0.39816876574E+03  0.89596120979E+02 0.  0.
         23    2    4    4    0    0  0.45186632943E+03  0.38826903240E+03  0.11407277908E+03  0.61349053197E+03  0.91771524411E+02 0.  0.
          2    1    3    3  502    0 -0.87734252100E+02 -0.21167232469E+02  0.40905190758E+02  0.99088775110E+02  0.00000000000E+00 0. -1.
         -1    1    3    3    0  502 -0.25621966348E+03 -0.18621402510E+03  0.24353223601E+03  0.39953989672E+03  0.00000000000E+00 0.  1.
         13    1    5    5    0    0 -0.60423804723E+02 -0.16394425281E+03 -0.28004924895E+03  0.33008534661E+03  0.00000000000E+00 0. -1.
        -13    1    5    5    0    0 -0.47488609124E+02 -0.16943522024E+02 -0.45750421049E+02  0.68083419136E+02  0.00000000000E+00 0.  1.
          4    1    6    6  503    0  0.37890183152E+03  0.31647708944E+03  0.58840956677E+02  0.49717864420E+03  0.00000000000E+00 0. -1.
         -4    1    6    6    0  503  0.72964497907E+02  0.71791942967E+02  0.55231822401E+02  0.11631188777E+03  0.00000000000E+00 0.  1.
<mgrwt>
<rscale>  0 0.15085367E+04</rscale>
<asrwt>0</asrwt>
<pdfrwt beam="1">  1        2 0.11058288E+00 0.15085367E+04</pdfrwt>
<pdfrwt beam="2">  1       -1 0.12176912E+00 0.15085367E+04</pdfrwt>
<totfact> 0.26094542E+01</totfact>
</mgrwt>
</event>
<event>
12    7  0.1661464E-007  0.1570624E+04  0.7818608E-02  0.8838801E-01
          2   -1    0    0  501    0  0.00000000000E+00  0.00000000000E+00  0.63225105112E+03  0.63225105112E+03  0.00000000000E+00 0. -1.
         -1   -1    0    0    0  501 -0.00000000000E+00 -0.00000000000E+00 -0.97542762457E+03  0.97542762457E+03  0.00000000000E+00 0.  1.
         24    2    1    2    0    0  0.47309134618E+02  0.35812112915E+03  0.26650108752E+03  0.45597624310E+03  0.80016293687E+02 0.  0.
        254    2    1    2    0    0 -0.47309134618E+02 -0.35812112915E+03 -0.60967766097E+03  0.11517024326E+04  0.90786714094E+03 0.  0.
         23    2    4    4    0    0 -0.44419127526E+03 -0.67032046089E+02 -0.18108213363E+03  0.49276744092E+03  0.90718396629E+02 0.  0.
         23    2    4    4    0    0  0.39688214065E+03 -0.29108908306E+03 -0.42859552734E+03  0.65893499168E+03  0.90845524668E+02 0.  0.
          4    1    3    3  502    0  0.33127167789E+02  0.33768273344E+03  0.22350546871E+03  0.40630251323E+03  0.00000000000E+00 0. -1.
         -3    1    3    3    0  502  0.14181966829E+02  0.20438395711E+02  0.42995618812E+02  0.49673729872E+02  0.00000000000E+00 0.  1.
         13    1    5    5    0    0 -0.21347239978E+03 -0.77680021948E+02 -0.96263986553E+02  0.24672131319E+03  0.00000000000E+00 0. -1.
        -13    1    5    5    0    0 -0.23071887549E+03  0.10647975859E+02 -0.84818147075E+02  0.24604612773E+03  0.00000000000E+00 0.  1.
          1    1    6    6  503    0  0.76965303923E+02 -0.18533667904E+02 -0.84221929039E+02  0.11558757799E+03  0.00000000000E+00 0. -1.
         -1    1    6    6    0  503  0.31991683672E+03 -0.27255541516E+03 -0.34437359830E+03  0.54334741369E+03  0.00000000000E+00 0.  1.
<mgrwt>
<rscale>  0 0.15706243E+04</rscale>
<asrwt>0</asrwt>
<pdfrwt beam="1">  1        2 0.97269392E-01 0.15706243E+04</pdfrwt>
<pdfrwt beam="2">  1       -1 0.15006579E+00 0.15706243E+04</pdfrwt>
<totfact> 0.17803156E+01</totfact>
</mgrwt>
</event>
<event>
12    7  0.1661464E-007  0.1357200E+04  0.7818608E-02  0.8985396E-01
         -1   -1    0    0    0  501 -0.00000000000E+00  0.00000000000E+00  0.98433968436E+03  0.98433968436E+03  0.00000000000E+00 0.  1.
          2   -1    0    0  501    0  0.00000000000E+00 -0.00000000000E+00 -0.46782414036E+03  0.46782414036E+03  0.00000000000E+00 0. -1.
         24    2    1    2    0    0  0.66815893858E+02 -0.11163497996E+03 -0.23057206382E+03  0.27626592160E+03  0.78947136752E+02 0.  0.
        254    2    1    2    0    0 -0.66815893858E+02  0.11163497996E+03  0.74708760783E+03  0.11758979031E+04  0.89870420738E+03 0.  0.
         23    2    4    4    0    0 -0.64047845807E+02 -0.38270896840E+03  0.38612483000E+03  0.55525301776E+03  0.92979827622E+02 0.  0.
         23    2    4    4    0    0 -0.27680480511E+01  0.49434394836E+03  0.36096277783E+03  0.62064488536E+03  0.10257848398E+03 0.  0.
          2    1    3    3  502    0  0.11748400105E+02 -0.31350313392E+02 -0.13772122999E+03  0.14173215670E+03  0.00000000000E+00 0. -1.
         -1    1    3    3    0  502  0.55067493753E+02 -0.80284666569E+02 -0.92850833835E+02  0.13453376490E+03  0.00000000000E+00 0.  1.
         13    1    5    5    0    0 -0.55846750059E+02 -0.38173942873E+03  0.38758212118E+03  0.54686721569E+03  0.00000000000E+00 0.  1.
        -13    1    5    5    0    0 -0.82010957486E+01 -0.96953966738E+00 -0.14572911875E+01  0.83858020636E+01  0.00000000000E+00 0. -1.
          1    1    6    6  503    0 -0.33928614328E+02  0.87938385828E+02  0.95747332660E+02  0.13435721895E+03  0.00000000000E+00 0. -1.
         -1    1    6    6    0  503  0.31160566277E+02  0.40640556253E+03  0.26521544517E+03  0.48628766641E+03  0.00000000000E+00 0.  1.
<mgrwt>
<rscale>  0 0.13571999E+04</rscale>
<asrwt>0</asrwt>
<pdfrwt beam="1">  1        2 0.71972945E-01 0.13571999E+04</pdfrwt>
<pdfrwt beam="2">  1       -1 0.15143687E+00 0.13571999E+04</pdfrwt>
<totfact> 0.25253759E+01</totfact>
</mgrwt>
</event>
<event>
12    7  0.1661464E-007  0.1275058E+04  0.7818608E-02  0.9049582E-01
         -1   -1    0    0    0  501 -0.00000000000E+00  0.00000000000E+00  0.64451867697E+03  0.64451867697E+03  0.00000000000E+00 0.  1.
          2   -1    0    0  501    0  0.00000000000E+00 -0.00000000000E+00 -0.63061510566E+03  0.63061510566E+03  0.00000000000E+00 0. -1.
         24    2    1    2    0    0 -0.12205910153E+03  0.25981591002E+03  0.77094367013E+02  0.30961772821E+03  0.86699854864E+02 0.  0.
        254    2    1    2    0    0  0.12205910153E+03 -0.25981591002E+03 -0.63190795705E+02  0.96551605442E+03  0.91968768792E+03 0.  0.
         23    2    4    4    0    0  0.45415069203E+02  0.33711285925E+03  0.13197400325E+02  0.35185728672E+03  0.89004328330E+02 0.  0.
         23    2    4    4    0    0  0.76644032326E+02 -0.59692876926E+03 -0.76388196030E+02  0.61365876770E+03  0.92431939399E+02 0.  0.
          2    1    3    3  502    0 -0.15845362265E+02  0.17004400146E+02 -0.16551194367E+02  0.28533614643E+02  0.00000000000E+00 0. -1.
         -1    1    3    3    0  502 -0.10621373926E+03  0.24281150987E+03  0.93645561380E+02  0.28108411357E+03  0.00000000000E+00 0.  1.
         13    1    5    5    0    0  0.16239927801E+02  0.21535982176E+03  0.49358889873E+02  0.22153981153E+03  0.00000000000E+00 0. -1.
        -13    1    5    5    0    0  0.29175141402E+02  0.12175303749E+03 -0.36161489549E+02  0.13031747519E+03  0.00000000000E+00 0.  1.
          1    1    6    6  503    0  0.92395552263E+02 -0.53289714035E+03 -0.83806130463E+02  0.54730226363E+03  0.00000000000E+00 0. -1.
         -1    1    6    6    0  503 -0.15751519937E+02 -0.64031628912E+02  0.74179344326E+01  0.66356504072E+02  0.00000000000E+00 0.  1.
<mgrwt>
<rscale>  0 0.12750580E+04</rscale>
<asrwt>0</asrwt>
<pdfrwt beam="1">  1        2 0.97017709E-01 0.12750580E+04</pdfrwt>
<pdfrwt beam="2">  1       -1 0.99156719E-01 0.12750580E+04</pdfrwt>
<totfact> 0.50910569E+01</totfact>
</mgrwt>
</event>
<event>
12    7  0.1661464E-007  0.1323576E+04  0.7818608E-02  0.9011076E-01
          2   -1    0    0  501    0  0.00000000000E+00  0.00000000000E+00  0.18454664260E+04  0.18454664260E+04  0.00000000000E+00 0. -1.
         -1   -1    0    0    0  501 -0.00000000000E+00 -0.00000000000E+00 -0.23731836935E+03  0.23731836935E+03  0.00000000000E+00 0.  1.
         24    2    1    2    0    0 -0.18609680015E+03 -0.96630614883E+02  0.87544380364E+03  0.90358161931E+03  0.78028165869E+02 0.  0.
        254    2    1    2    0    0  0.18609680015E+03  0.96630614883E+02  0.73270425299E+03  0.11792031760E+04  0.89983060251E+03 0.  0.
         23    2    4    4    0    0 -0.10010696821E+03  0.30256325629E+03 -0.30667084969E+02  0.33336756541E+03  0.92884521973E+02 0.  0.
         23    2    4    4    0    0  0.28620376836E+03 -0.20593264141E+03  0.76337133796E+03  0.84583561061E+03  0.91549061941E+02 0.  0.
          4    1    3    3  502    0  0.98948612418E+00 -0.65221229423E+01  0.11813265162E+03  0.11831669598E+03  0.00000000000E+00 0. -1.
         -1    1    3    3    0  502 -0.18708628628E+03 -0.90108491940E+02  0.75731115202E+03  0.78526492333E+03  0.00000000000E+00 0.  1.
         13    1    5    5    0    0 -0.11378273971E+03  0.24167916591E+03 -0.88779262087E+01  0.26727167576E+03  0.00000000000E+00 0. -1.
        -13    1    5    5    0    0  0.13675771508E+02  0.60884090384E+02 -0.21789158760E+02  0.66095889643E+02  0.00000000000E+00 0.  1.
          3    1    6    6  503    0  0.14472002159E+03 -0.88454608359E+02  0.26514858758E+03  0.31475685200E+03  0.00000000000E+00 0. -1.
         -3    1    6    6    0  503  0.14148374677E+03 -0.11747803305E+03  0.49822275038E+03  0.53107875861E+03  0.00000000000E+00 0.  1.
<mgrwt>
<rscale>  0 0.13235756E+04</rscale>
<asrwt>0</asrwt>
<pdfrwt beam="1">  1        2 0.28391790E+00 0.13235756E+04</pdfrwt>
<pdfrwt beam="2">  1       -1 0.36510520E-01 0.13235756E+04</pdfrwt>
<totfact> 0.65285351E+01</totfact>
</mgrwt>
</event>
<event>
12    7  0.1661464E-007  0.2450966E+04  0.7818608E-02  0.8420665E-01
         -1   -1    0    0    0  501 -0.00000000000E+00  0.00000000000E+00  0.71706789426E+03  0.71706789426E+03  0.00000000000E+00 0.  1.
          2   -1    0    0  501    0  0.00000000000E+00 -0.00000000000E+00 -0.20943739332E+04  0.20943739332E+04  0.00000000000E+00 0. -1.
         24    2    1    2    0    0  0.59109696361E+03  0.23155953272E+03  0.36551015855E+03  0.74014833605E+03  0.10586050149E+03 0.  0.
        254    2    1    2    0    0 -0.59109696361E+03 -0.23155953272E+03 -0.17428161974E+04  0.20712934914E+04  0.92186386832E+03 0.  0.
         23    2    4    4    0    0 -0.71271477359E+02  0.12420689388E+03 -0.12607154566E+04  0.12721180731E+04  0.91509308102E+02 0.  0.
         23    2    4    4    0    0 -0.51982548625E+03 -0.35576642661E+03 -0.48210074086E+03  0.79917541826E+03  0.97323883792E+02 0.  0.
          2    1    3    3  502    0  0.48752103249E+02 -0.84189991731E+01  0.17281996954E+02  0.52405291116E+02  0.00000000000E+00 0. -1.
         -1    1    3    3    0  502  0.54234486036E+03  0.23997853190E+03  0.34822816159E+03  0.68774304494E+03  0.00000000000E+00 0.  1.
         13    1    5    5    0    0 -0.87354339382E+02  0.92320962099E+02 -0.11088385987E+04  0.11160990004E+04  0.00000000000E+00 0. -1.
        -13    1    5    5    0    0  0.16082862022E+02  0.31885931784E+02 -0.15187685789E+03  0.15601907275E+03  0.00000000000E+00 0.  1.
          2    1    6    6  503    0 -0.37040304914E+03 -0.21587461155E+03 -0.36698272495E+03  0.56433729908E+03  0.00000000000E+00 0. -1.
         -2    1    6    6    0  503 -0.14942243711E+03 -0.13989181505E+03 -0.11511801591E+03  0.23483811918E+03  0.00000000000E+00 0.  1.
<mgrwt>
<rscale>  0 0.24509658E+04</rscale>
<asrwt>0</asrwt>
<pdfrwt beam="1">  1        2 0.32221138E+00 0.24509658E+04</pdfrwt>
<pdfrwt beam="2">  1       -1 0.11031814E+00 0.24509658E+04</pdfrwt>
<totfact> 0.45703657E+00</totfact>
</mgrwt>
</event>
<event>
12    7  0.1908159E-007  0.1995213E+04  0.7818608E-02  0.8608862E-01
         -1   -1    0    0    0  501 -0.00000000000E+00  0.00000000000E+00  0.50850232302E+03  0.50850232302E+03  0.00000000000E+00 0.  1.
          2   -1    0    0  501    0  0.00000000000E+00 -0.00000000000E+00 -0.19571564866E+04  0.19571564866E+04  0.00000000000E+00 0. -1.
         24    2    1    2    0    0  0.32007423736E+03  0.18351158554E+03 -0.13176073857E+04  0.13711160075E+04  0.88010587647E+02 0.  0.
        254    2    1    2    0    0 -0.32007423736E+03 -0.18351158554E+03 -0.13104677782E+03  0.10945428021E+04  0.10221187153E+04 0.  0.
         23    2    4    4    0    0  0.45989732628E+02  0.44214884471E+01  0.40210432401E+03  0.41513395385E+03  0.92269752261E+02 0.  0.
         23    2    4    4    0    0 -0.36606396998E+03 -0.18793307398E+03 -0.53315110183E+03  0.67940884827E+03  0.89580217158E+02 0.  0.
          4    1    3    3  502    0  0.32197851954E+03  0.18265936796E+03 -0.12545805149E+04  0.13080546166E+04  0.00000000000E+00 0. -1.
         -3    1    3    3    0  502 -0.19042821848E+01  0.85221757827E+00 -0.63026870831E+02  0.63061390820E+02  0.00000000000E+00 0.  1.
         13    1    5    5    0    0  0.30509149006E+02  0.24508032641E+02  0.57241957193E+02  0.69340417509E+02  0.00000000000E+00 0. -1.
        -13    1    5    5    0    0  0.15480583622E+02 -0.20086544194E+02  0.34486236682E+03  0.34579353634E+03  0.00000000000E+00 0.  1.
          1    1    6    6  503    0  0.16920712479E+01 -0.13349300254E+02 -0.11425886389E+02  0.17652699571E+02  0.00000000000E+00 0. -1.
         -1    1    6    6    0  503 -0.36775604123E+03 -0.17458377373E+03 -0.52172521545E+03  0.66175614870E+03  0.00000000000E+00 0.  1.
<mgrwt>
<rscale>  0 0.19952129E+04</rscale>
<asrwt>0</asrwt>
<pdfrwt beam="1">  1        2 0.30110100E+00 0.19952129E+04</pdfrwt>
<pdfrwt beam="2">  1       -1 0.78231126E-01 0.19952129E+04</pdfrwt>
<totfact> 0.12217746E+01</totfact>
</mgrwt>
</event>
<event>
12    7  0.1661464E-007  0.3202898E+04  0.7818608E-02  0.8188052E-01
         -1   -1    0    0    0  501 -0.00000000000E+00  0.00000000000E+00  0.11613230350E+04  0.11613230350E+04  0.00000000000E+00 0.  1.
          2   -1    0    0  501    0  0.00000000000E+00 -0.00000000000E+00 -0.22083774177E+04  0.22083774177E+04  0.00000000000E+00 0. -1.
         24    2    1    2    0    0  0.20719182601E+03 -0.29418347346E+03  0.10221072303E+04  0.10873366725E+04  0.90141447089E+02 0.  0.
        254    2    1    2    0    0 -0.20719182601E+03  0.29418347346E+03 -0.20691616129E+04  0.22823637802E+04  0.89346643796E+03 0.  0.
         23    2    4    4    0    0  0.30926382830E+03  0.24562363811E+03 -0.62357507323E+03  0.74397936266E+03  0.93189768880E+02 0.  0.
         23    2    4    4    0    0 -0.51645565431E+03  0.48559835355E+02 -0.14455865397E+04  0.15383844175E+04  0.88440215725E+02 0.  0.
          4    1    3    3  502    0  0.13140730832E+03 -0.11239115138E+03  0.51921441668E+03  0.54725063918E+03  0.00000000000E+00 0. -1.
         -3    1    3    3    0  502  0.75784517696E+02 -0.18179232209E+03  0.50289281358E+03  0.54008603337E+03  0.00000000000E+00 0.  1.
         13    1    5    5    0    0  0.29522514312E+03  0.25233694675E+03 -0.61094515158E+03  0.72393770317E+03  0.00000000000E+00 0. -1.
        -13    1    5    5    0    0  0.14038685178E+02 -0.67133086439E+01 -0.12629921645E+02  0.20041659493E+02  0.00000000000E+00 0.  1.
          1    1    6    6  503    0 -0.40082591029E+03  0.67962006123E+02 -0.10567104572E+04  0.11322178390E+04  0.00000000000E+00 0. -1.
         -1    1    6    6    0  503 -0.11562974402E+03 -0.19402170768E+02 -0.38887608249E+03  0.40616657847E+03  0.00000000000E+00 0.  1.
<mgrwt>
<rscale>  0 0.32028984E+04</rscale>
<asrwt>0</asrwt>
<pdfrwt beam="1">  1        2 0.33975037E+00 0.32028984E+04</pdfrwt>
<pdfrwt beam="2">  1       -1 0.17866508E+00 0.32028984E+04</pdfrwt>
<totfact> 0.10402670E+00</totfact>
</mgrwt>
</event>
<event>
12    7  0.1661464E-007  0.1470286E+04  0.7818608E-02  0.8904457E-01
          2   -1    0    0  501    0  0.00000000000E+00  0.00000000000E+00  0.22969330742E+04  0.22969330742E+04  0.00000000000E+00 0. -1.
         -1   -1    0    0    0  501 -0.00000000000E+00 -0.00000000000E+00 -0.23528545201E+03  0.23528545201E+03  0.00000000000E+00 0.  1.
         24    2    1    2    0    0  0.92437767042E+02 -0.25709613601E+03  0.12693942130E+04  0.13008749422E+04  0.79188278134E+02 0.  0.
        254    2    1    2    0    0 -0.92437767042E+02  0.25709613601E+03  0.79225340914E+03  0.12313435839E+04  0.90216317452E+03 0.  0.
         23    2    4    4    0    0 -0.30762105890E+03  0.50432341649E+03  0.56295711751E+03  0.82104975397E+03  0.90714706903E+02 0.  0.
         23    2    4    4    0    0  0.21518329185E+03 -0.24722728048E+03  0.22929629163E+03  0.41029382995E+03  0.91318455063E+02 0.  0.
          2    1    3    3  502    0 -0.25045585788E+01 -0.10557102895E+03  0.48197729526E+03  0.49341020268E+03  0.00000000000E+00 0. -1.
         -1    1    3    3    0  502  0.94942325620E+02 -0.15152510706E+03  0.78741691776E+03  0.80746473956E+03  0.00000000000E+00 0.  1.
         13    1    5    5    0    0 -0.34998151092E+02  0.12183986221E+03  0.99014004851E+02  0.16085271450E+03  0.00000000000E+00 0. -1.
        -13    1    5    5    0    0 -0.27262290780E+03  0.38248355428E+03  0.46394311266E+03  0.66019703948E+03  0.00000000000E+00 0.  1.
          2    1    6    6  503    0  0.59265500389E+02 -0.17888391649E+02  0.54532216100E+02  0.82499434452E+02  0.00000000000E+00 0. -1.
         -2    1    6    6    0  503  0.15591779147E+03 -0.22933888883E+03  0.17476407553E+03  0.32779439550E+03  0.00000000000E+00 0.  1.
<mgrwt>
<rscale>  0 0.14702856E+04</rscale>
<asrwt>0</asrwt>
<pdfrwt beam="1">  1        2 0.35337431E+00 0.14702856E+04</pdfrwt>
<pdfrwt beam="2">  1       -1 0.36197763E-01 0.14702856E+04</pdfrwt>
<totfact> 0.36728751E+01</totfact>
</mgrwt>
</event>
<event>
12    7  0.1661464E-007  0.1957349E+04  0.7818608E-02  0.8626825E-01
          2   -1    0    0  501    0  0.00000000000E+00  0.00000000000E+00  0.14273822949E+04  0.14273822949E+04  0.00000000000E+00 0. -1.
         -1   -1    0    0    0  501 -0.00000000000E+00 -0.00000000000E+00 -0.67102129608E+03  0.67102129608E+03  0.00000000000E+00 0.  1.
         24    2    1    2    0    0  0.51952321600E+03  0.38084477456E+02  0.93842468146E+03  0.10762116384E+04  0.78967136048E+02 0.  0.
        254    2    1    2    0    0 -0.51952321600E+03 -0.38084477456E+02 -0.18206368260E+03  0.10221919526E+04  0.86045011709E+03 0.  0.
         23    2    4    4    0    0 -0.49300523700E+03  0.28362174300E+02 -0.48510077572E+03  0.69764446808E+03  0.86755199259E+02 0.  0.
         23    2    4    4    0    0 -0.26517978998E+02 -0.66446651756E+02  0.30303709312E+03  0.32454748449E+03  0.91549053219E+02 0.  0.
          4    1    3    3  502    0  0.34878379883E+03  0.56153196509E+02  0.67320907986E+03  0.76027217824E+03  0.00000000000E+00 0. -1.
         -3    1    3    3    0  502  0.17073941717E+03 -0.18068719053E+02  0.26521560160E+03  0.31593946021E+03  0.00000000000E+00 0.  1.
         13    1    5    5    0    0 -0.37192576057E+02  0.17196430837E+02 -0.69635111496E+02  0.80796371826E+02  0.00000000000E+00 0. -1.
        -13    1    5    5    0    0 -0.45581266094E+03  0.11165743464E+02 -0.41546566423E+03  0.61684809626E+03  0.00000000000E+00 0.  1.
          4    1    6    6  503    0 -0.43224712412E+02 -0.33811226254E+02  0.71534189973E+02  0.90159387304E+02  0.00000000000E+00 0. -1.
         -4    1    6    6    0  503  0.16706733414E+02 -0.32635425502E+02  0.23150290315E+03  0.23438809719E+03  0.00000000000E+00 0.  1.
<mgrwt>
<rscale>  0 0.19573491E+04</rscale>
<asrwt>0</asrwt>
<pdfrwt beam="1">  1        2 0.21959728E+00 0.19573491E+04</pdfrwt>
<pdfrwt beam="2">  1       -1 0.10323405E+00 0.19573491E+04</pdfrwt>
<totfact> 0.13133390E+01</totfact>
</mgrwt>
</event>
<event>
12    7  0.1661464E-007  0.1725578E+04  0.7818608E-02  0.8746909E-01
         -1   -1    0    0    0  501 -0.00000000000E+00  0.00000000000E+00  0.29008056554E+03  0.29008056554E+03  0.00000000000E+00 0.  1.
          2   -1    0    0  501    0  0.00000000000E+00 -0.00000000000E+00 -0.25662012131E+04  0.25662012131E+04  0.00000000000E+00 0. -1.
         24    2    1    2    0    0  0.15031540653E+03 -0.19231891717E+03  0.11878886530E+03  0.28313999768E+03  0.80474694321E+02 0.  0.
        254    2    1    2    0    0 -0.15031540653E+03  0.19231891717E+03 -0.23949095128E+04  0.25731417809E+04  0.90878257175E+03 0.  0.
         23    2    4    4    0    0 -0.27371018581E+03 -0.24537381415E+03 -0.16740689689E+04  0.17163550763E+04  0.90786897435E+02 0.  0.
         23    2    4    4    0    0  0.12339477928E+03  0.43769273132E+03 -0.72084054394E+03  0.85678670465E+03  0.87585209208E+02 0.  0.
          4    1    3    3  502    0 -0.13996488188E+01 -0.12607788316E+02 -0.89272164799E+01  0.15511625869E+02  0.00000000000E+00 0. -1.
         -3    1    3    3    0  502  0.15171505535E+03 -0.17971112885E+03  0.12771608178E+03  0.26762837181E+03  0.00000000000E+00 0.  1.
         13    1    5    5    0    0 -0.22978920408E+03 -0.15925314306E+03 -0.13230513153E+04  0.13522682518E+04  0.00000000000E+00 0.  1.
        -13    1    5    5    0    0 -0.43920981728E+02 -0.86120671096E+02 -0.35101765356E+03  0.36408682445E+03  0.00000000000E+00 0. -1.
          1    1    6    6  503    0  0.10302059668E+03  0.42351473372E+03 -0.69881272909E+03  0.82360014774E+03  0.00000000000E+00 0. -1.
         -1    1    6    6    0  503  0.20374182597E+02  0.14177997605E+02 -0.22027814848E+02  0.33186556910E+02  0.00000000000E+00 0.  1.
<mgrwt>
<rscale>  0 0.17255783E+04</rscale>
<asrwt>0</asrwt>
<pdfrwt beam="1">  1        2 0.39480020E+00 0.17255783E+04</pdfrwt>
<pdfrwt beam="2">  1       -1 0.44627778E-01 0.17255783E+04</pdfrwt>
<totfact> 0.17163696E+01</totfact>
</mgrwt>
</event>
<event>
12    7  0.1661464E-007  0.1540676E+04  0.7818608E-02  0.8857846E-01
          2   -1    0    0  501    0  0.00000000000E+00  0.00000000000E+00  0.22889258793E+04  0.22889258793E+04  0.00000000000E+00 0. -1.
         -1   -1    0    0    0  501 -0.00000000000E+00 -0.00000000000E+00 -0.25925719620E+03  0.25925719620E+03  0.00000000000E+00 0.  1.
         24    2    1    2    0    0 -0.17621079589E+03 -0.30698420204E+03  0.12530703699E+04  0.13045135988E+04  0.79251704873E+02 0.  0.
        254    2    1    2    0    0  0.17621079589E+03  0.30698420204E+03  0.77659831320E+03  0.12436694767E+04  0.90461001667E+03 0.  0.
         23    2    4    4    0    0  0.18154656811E+03  0.18880857829E+02  0.89590233730E+03  0.91888039357E+03  0.91567114893E+02 0.  0.
         23    2    4    4    0    0 -0.53357722258E+01  0.28810334421E+03 -0.11930402410E+03  0.32478908310E+03  0.90677951693E+02 0.  0.
          2    1    3    3  502    0 -0.18230209464E+03 -0.28338298808E+03  0.11933716325E+04  0.12400305742E+04  0.00000000000E+00 0. -1.
         -1    1    3    3    0  502  0.60912987535E+01 -0.23601213964E+02  0.59698737361E+02  0.64483024616E+02  0.00000000000E+00 0.  1.
         13    1    5    5    0    0  0.16120092462E+03 -0.13642825226E+01  0.84677159266E+03  0.86198012129E+03  0.00000000000E+00 0.  1.
        -13    1    5    5    0    0  0.20345643495E+02  0.20245140351E+02  0.49130744640E+02  0.56900272284E+02  0.00000000000E+00 0. -1.
          2    1    6    6  503    0 -0.30637492431E+02  0.30668474787E+02 -0.14899463360E+02  0.45838905927E+02  0.00000000000E+00 0. -1.
         -2    1    6    6    0  503  0.25301720205E+02  0.25743486943E+03 -0.10440456074E+03  0.27895017717E+03  0.00000000000E+00 0.  1.
<mgrwt>
<rscale>  0 0.15406758E+04</rscale>
<asrwt>0</asrwt>
<pdfrwt beam="1">  1        2 0.35214243E+00 0.15406758E+04</pdfrwt>
<pdfrwt beam="2">  1       -1 0.39885724E-01 0.15406758E+04</pdfrwt>
<totfact> 0.30938030E+01</totfact>
</mgrwt>
</event>
<event>
12    7  0.1661464E-007  0.3357621E+04  0.7818608E-02  0.8148387E-01
         -1   -1    0    0    0  501 -0.00000000000E+00  0.00000000000E+00  0.10390417007E+04  0.10390417007E+04  0.00000000000E+00 0.  1.
          2   -1    0    0  501    0  0.00000000000E+00 -0.00000000000E+00 -0.27125032954E+04  0.27125032954E+04  0.00000000000E+00 0. -1.
         24    2    1    2    0    0  0.52138070273E+03 -0.90145285599E+03  0.51721781504E+03  0.11654836351E+04  0.79892094286E+02 0.  0.
        254    2    1    2    0    0 -0.52138070273E+03  0.90145285599E+03 -0.21906794097E+04  0.25860613610E+04  0.89676195178E+03 0.  0.
         23    2    4    4    0    0 -0.86332736235E+02  0.51242905447E+03 -0.18055526726E+04  0.18810865227E+04  0.91810539811E+02 0.  0.
         23    2    4    4    0    0 -0.43504796650E+03  0.38902380152E+03 -0.38512673708E+03  0.70497483829E+03  0.89781221349E+02 0.  0.
          2    1    3    3  502    0  0.99371157397E+02 -0.13677204791E+03  0.58113629585E+02  0.17876916389E+03  0.00000000000E+00 0. -1.
         -1    1    3    3    0  502  0.42200954533E+03 -0.76468080807E+03  0.45910418545E+03  0.98671447121E+03  0.00000000000E+00 0.  1.
         13    1    5    5    0    0 -0.33447909960E+02  0.89167161056E+02 -0.45158272733E+03  0.46151544386E+03  0.00000000000E+00 0.  1.
        -13    1    5    5    0    0 -0.52884826275E+02  0.42326189341E+03 -0.13539699453E+04  0.14195710789E+04  0.00000000000E+00 0. -1.
          2    1    6    6  503    0 -0.40371903671E+03  0.32748505577E+03 -0.35584146002E+03  0.62996719520E+03  0.00000000000E+00 0. -1.
         -2    1    6    6    0  503 -0.31328929789E+02  0.61538745749E+02 -0.29285277058E+02  0.75007643093E+02  0.00000000000E+00 0.  1.
<mgrwt>
<rscale>  0 0.33576206E+04</rscale>
<asrwt>0</asrwt>
<pdfrwt beam="1">  1        2 0.41730820E+00 0.33576206E+04</pdfrwt>
<pdfrwt beam="2">  1       -1 0.15985257E+00 0.33576206E+04</pdfrwt>
<totfact> 0.72202484E-01</totfact>
</mgrwt>
</event>
<event>
12    7  0.1661464E-007  0.2641437E+04  0.7818608E-02  0.8354261E-01
          2   -1    0    0  501    0  0.00000000000E+00  0.00000000000E+00  0.21038385301E+04  0.21038385301E+04  0.00000000000E+00 0. -1.
         -1   -1    0    0    0  501 -0.00000000000E+00 -0.00000000000E+00 -0.82910213020E+03  0.82910213020E+03  0.00000000000E+00 0.  1.
         24    2    1    2    0    0 -0.68874285266E+03 -0.66859980596E+02 -0.47849354716E+03  0.84517292329E+03  0.80772653175E+02 0.  0.
        254    2    1    2    0    0  0.68874285266E+03  0.66859980596E+02  0.17532299471E+04  0.20877677370E+04  0.89784291628E+03 0.  0.
         23    2    4    4    0    0  0.13067286008E+03 -0.17075997252E+03  0.35831901406E+01  0.23378973070E+03  0.91708420293E+02 0.  0.
         23    2    4    4    0    0  0.55806999258E+03  0.23761995312E+03  0.17496467569E+04  0.18539780063E+04  0.89807099418E+02 0.  0.
          4    1    3    3  502    0 -0.11239678382E+02 -0.82507732961E+01 -0.49446758397E+00  0.13951707003E+02  0.00000000000E+00 0. -1.
         -3    1    3    3    0  502 -0.67750317428E+03 -0.58609207300E+02 -0.47799907957E+03  0.83122121629E+03  0.00000000000E+00 0.  1.
         13    1    5    5    0    0  0.11864704716E+03 -0.17113580344E+03  0.24481126417E+02  0.20967572718E+03  0.00000000000E+00 0. -1.
        -13    1    5    5    0    0  0.12025812922E+02  0.37583091434E+00 -0.20897936276E+02  0.24114003523E+02  0.00000000000E+00 0.  1.
          3    1    6    6  503    0  0.37600960592E+03  0.16955020081E+03  0.13069134365E+04  0.13704573050E+04  0.00000000000E+00 0. -1.
         -3    1    6    6    0  503  0.18206038666E+03  0.68069752309E+02  0.44273332042E+03  0.48352070129E+03  0.00000000000E+00 0.  1.
<mgrwt>
<rscale>  0 0.26414367E+04</rscale>
<asrwt>0</asrwt>
<pdfrwt beam="1">  1        2 0.32366746E+00 0.26414367E+04</pdfrwt>
<pdfrwt beam="2">  1       -1 0.12755417E+00 0.26414367E+04</pdfrwt>
<totfact> 0.31190882E+00</totfact>
</mgrwt>
</event>
<event>
12    7  0.1661464E-007  0.1467675E+04  0.7818608E-02  0.8906238E-01
          2   -1    0    0  501    0  0.00000000000E+00  0.00000000000E+00  0.96479384800E+03  0.96479384800E+03  0.00000000000E+00 0. -1.
         -1   -1    0    0    0  501 -0.00000000000E+00 -0.00000000000E+00 -0.55816849428E+03  0.55816849428E+03  0.00000000000E+00 0.  1.
         24    2    1    2    0    0 -0.21322183627E+03  0.37696819757E+03  0.26382465817E+03  0.51331456553E+03  0.79497292330E+02 0.  0.
        254    2    1    2    0    0  0.21322183627E+03 -0.37696819757E+03  0.14280069555E+03  0.10096477767E+04  0.90079299564E+03 0.  0.
         23    2    4    4    0    0  0.42537156349E+03 -0.45927253650E+03  0.31773636729E+03  0.70784302132E+03  0.90626232022E+02 0.  0.
         23    2    4    4    0    0 -0.21214972722E+03  0.82304338929E+02 -0.17493567174E+03  0.30180475542E+03  0.93285101615E+02 0.  0.
          2    1    3    3  502    0 -0.19035898539E+03  0.29494454678E+03  0.23879813704E+03  0.42456257400E+03  0.00000000000E+00 0. -1.
         -1    1    3    3    0  502 -0.22862850877E+02  0.82023650799E+02  0.25026521128E+02  0.88751991529E+02  0.00000000000E+00 0.  1.
         13    1    5    5    0    0  0.29298832250E+03 -0.25742193161E+03  0.17564215790E+03  0.42773633891E+03  0.00000000000E+00 0.  1.
        -13    1    5    5    0    0  0.13238324099E+03 -0.20185060490E+03  0.14209420938E+03  0.28010668241E+03  0.00000000000E+00 0. -1.
          4    1    6    6  503    0 -0.43516583686E+01  0.28992783456E+02 -0.35068680201E+02  0.45709197697E+02  0.00000000000E+00 0. -1.
         -4    1    6    6    0  503 -0.20779806885E+03  0.53311555473E+02 -0.13986699154E+03  0.25609555772E+03  0.00000000000E+00 0.  1.
<mgrwt>
<rscale>  0 0.14676751E+04</rscale>
<asrwt>0</asrwt>
<pdfrwt beam="1">  1        2 0.14842982E+00 0.14676751E+04</pdfrwt>
<pdfrwt beam="2">  1       -1 0.85872076E-01 0.14676751E+04</pdfrwt>
<totfact> 0.39297803E+01</totfact>
</mgrwt>
</event>
<event>
12    7  0.1661464E-007  0.1702946E+04  0.7818608E-02  0.8759686E-01
          2   -1    0    0  501    0  0.00000000000E+00  0.00000000000E+00  0.19095186807E+04  0.19095186807E+04  0.00000000000E+00 0. -1.
         -1   -1    0    0    0  501 -0.00000000000E+00 -0.00000000000E+00 -0.37968023494E+03  0.37968023494E+03  0.00000000000E+00 0.  1.
         24    2    1    2    0    0 -0.10126256301E+03  0.60044075076E+03  0.61773661373E+03  0.87168360545E+03  0.86316755168E+02 0.  0.
        254    2    1    2    0    0  0.10126256301E+03 -0.60044075076E+03  0.91210183206E+03  0.14175153102E+04  0.89812955681E+03 0.  0.
         23    2    4    4    0    0 -0.13222106259E+02 -0.15086365217E+03  0.92796917573E+03  0.94475912865E+03  0.92240741654E+02 0.  0.
         23    2    4    4    0    0  0.11448466927E+03 -0.44957709859E+03 -0.15867343667E+02  0.47275618158E+03  0.89556281451E+02 0.  0.
          4    1    3    3  502    0 -0.65117399846E+02  0.48593728966E+03  0.53611894094E+03  0.72649765594E+03  0.00000000000E+00 0. -1.
         -3    1    3    3    0  502 -0.36145163166E+02  0.11450346110E+03  0.81617672793E+02  0.14518594952E+03  0.00000000000E+00 0.  1.
         13    1    5    5    0    0 -0.20916742587E+02 -0.10717158333E+03  0.83075393990E+03  0.83789937765E+03  0.00000000000E+00 0.  1.
        -13    1    5    5    0    0  0.76946363272E+01 -0.43692068839E+02  0.97215235823E+02  0.10685975100E+03  0.00000000000E+00 0. -1.
          2    1    6    6  503    0  0.26558892036E+02 -0.84555210943E+02 -0.38463241595E+02  0.96614592055E+02  0.00000000000E+00 0. -1.
         -2    1    6    6    0  503  0.87925777236E+02 -0.36502188765E+03  0.22595897929E+02  0.37614158952E+03  0.00000000000E+00 0.  1.
<mgrwt>
<rscale>  0 0.17029463E+04</rscale>
<asrwt>0</asrwt>
<pdfrwt beam="1">  1        2 0.29377210E+00 0.17029463E+04</pdfrwt>
<pdfrwt beam="2">  1       -1 0.58412345E-01 0.17029463E+04</pdfrwt>
<totfact> 0.24140756E+01</totfact>
</mgrwt>
</event>
<event>
12    7  0.1661464E-007  0.1479661E+04  0.7818608E-02  0.8898092E-01
         -1   -1    0    0    0  501 -0.00000000000E+00  0.00000000000E+00  0.20131805521E+03  0.20131805521E+03  0.00000000000E+00 0.  1.
          2   -1    0    0  501    0  0.00000000000E+00 -0.00000000000E+00 -0.27188264321E+04  0.27188264321E+04  0.00000000000E+00 0. -1.
         24    2    1    2    0    0 -0.23546369261E+03  0.21020011666E+03 -0.14380000056E+04  0.14743883334E+04  0.79685017383E+02 0.  0.
        254    2    1    2    0    0  0.23546369261E+03 -0.21020011666E+03 -0.10795083713E+04  0.14457561540E+04  0.90843012574E+03 0.  0.
         23    2    4    4    0    0  0.44171291318E+03 -0.25469252967E+03 -0.23287664795E+03  0.56826896370E+03  0.93378260886E+02 0.  0.
         23    2    4    4    0    0 -0.20624922056E+03  0.44492413009E+02 -0.84663172340E+03  0.87748719027E+03  0.93167474066E+02 0.  0.
          2    1    3    3  502    0 -0.19013526062E+03  0.16447807314E+03 -0.12662789712E+04  0.12909945340E+04  0.00000000000E+00 0. -1.
         -1    1    3    3    0  502 -0.45328431990E+02  0.45722043523E+02 -0.17172103439E+03  0.18339379941E+03  0.00000000000E+00 0.  1.
         13    1    5    5    0    0  0.10966136153E+02 -0.14228369448E+02  0.75411064168E+01  0.19482580046E+02  0.00000000000E+00 0. -1.
        -13    1    5    5    0    0  0.43074677702E+03 -0.24046416023E+03 -0.24041775436E+03  0.54878638365E+03  0.00000000000E+00 0.  1.
          4    1    6    6  503    0 -0.85002853602E+02 -0.14237267605E+02 -0.46132637677E+03  0.46930822581E+03  0.00000000000E+00 0. -1.
         -4    1    6    6    0  503 -0.12124636696E+03  0.58729680614E+02 -0.38530534663E+03  0.40817896446E+03  0.00000000000E+00 0.  1.
<mgrwt>
<rscale>  0 0.14796606E+04</rscale>
<asrwt>0</asrwt>
<pdfrwt beam="1">  1        2 0.41828100E+00 0.14796606E+04</pdfrwt>
<pdfrwt beam="2">  1       -1 0.30972008E-01 0.14796606E+04</pdfrwt>
<totfact> 0.27638662E+01</totfact>
</mgrwt>
</event>
<event>
12    7  0.1661464E-007  0.2353575E+04  0.7818608E-02  0.8457092E-01
         -1   -1    0    0    0  501 -0.00000000000E+00  0.00000000000E+00  0.46210678593E+03  0.46210678593E+03  0.00000000000E+00 0.  1.
          2   -1    0    0  501    0  0.00000000000E+00 -0.00000000000E+00 -0.29967733917E+04  0.29967733917E+04  0.00000000000E+00 0. -1.
         24    2    1    2    0    0 -0.18683785709E+03  0.35493721482E+03  0.26723614947E+03  0.48870164585E+03  0.80779500923E+02 0.  0.
        254    2    1    2    0    0  0.18683785709E+03 -0.35493721482E+03 -0.28019027552E+04  0.29701785317E+04  0.90022922053E+03 0.  0.
         23    2    4    4    0    0  0.16117828824E+03  0.16212269263E+03 -0.20511849599E+03  0.32062493150E+03  0.92002941458E+02 0.  0.
         23    2    4    4    0    0  0.25659568853E+02 -0.51705990745E+03 -0.25967842592E+04  0.26495536002E+04  0.94002288781E+02 0.  0.
          2    1    3    3  502    0  0.33608699718E+01  0.27509591073E+02  0.51535476705E+01  0.28189219598E+02  0.00000000000E+00 0. -1.
         -1    1    3    3    0  502 -0.19019872706E+03  0.32742762375E+03  0.26208260180E+03  0.46051242626E+03  0.00000000000E+00 0.  1.
         13    1    5    5    0    0  0.41305673568E+02  0.70043446290E+01 -0.73174749567E+02  0.84319413463E+02  0.00000000000E+00 0.  1.
        -13    1    5    5    0    0  0.11987261467E+03  0.15511834800E+03 -0.13194374642E+03  0.23630551804E+03  0.00000000000E+00 0. -1.
          4    1    6    6  503    0  0.43721910832E+01 -0.22598384660E+03 -0.90622496410E+03  0.93398688457E+03  0.00000000000E+00 0.  1.
         -4    1    6    6    0  503  0.21287377770E+02 -0.29107606085E+03 -0.16905592951E+04  0.17155667157E+04  0.00000000000E+00 0. -1.
<mgrwt>
<rscale>  0 0.23535754E+04</rscale>
<asrwt>0</asrwt>
<pdfrwt beam="1">  1        2 0.46104203E+00 0.23535754E+04</pdfrwt>
<pdfrwt beam="2">  1       -1 0.71093356E-01 0.23535754E+04</pdfrwt>
<totfact> 0.35916471E+00</totfact>
</mgrwt>
</event>
<event>
12    7  0.1661464E-007  0.1487839E+04  0.7818608E-02  0.8892580E-01
         -1   -1    0    0    0  501 -0.00000000000E+00  0.00000000000E+00  0.72146191461E+03  0.72146191461E+03  0.00000000000E+00 0.  1.
          2   -1    0    0  501    0  0.00000000000E+00 -0.00000000000E+00 -0.76707603492E+03  0.76707603492E+03  0.00000000000E+00 0. -1.
         24    2    1    2    0    0  0.14372910855E+03 -0.18882369919E+02 -0.46475801017E+03  0.49312493291E+03  0.78470318550E+02 0.  0.
        254    2    1    2    0    0 -0.14372910855E+03  0.18882369919E+02  0.41914388987E+03  0.99541301663E+03  0.89115143086E+03 0.  0.
         23    2    4    4    0    0 -0.52903486677E+02  0.11754074639E+02 -0.27238228322E+03  0.29202416534E+03  0.90272187045E+02 0.  0.
         23    2    4    4    0    0 -0.90825621878E+02  0.71282952795E+01  0.69152617309E+03  0.70338885129E+03  0.90814766800E+02 0.  0.
          2    1    3    3  502    0  0.12234661338E+03 -0.43694041292E+02 -0.39976467516E+03  0.42034469017E+03  0.00000000000E+00 0. -1.
         -1    1    3    3    0  502  0.21382495179E+02  0.24811671374E+02 -0.64993335017E+02  0.72780242738E+02  0.00000000000E+00 0.  1.
         13    1    5    5    0    0 -0.74591582815E+02  0.32274728112E+01 -0.24471069739E+03  0.25584691952E+03  0.00000000000E+00 0.  1.
        -13    1    5    5    0    0  0.21688096138E+02  0.85266018279E+01 -0.27671585830E+02  0.36177245820E+02  0.00000000000E+00 0. -1.
          3    1    6    6  503    0 -0.37368111342E+02 -0.34379527543E+02  0.16799639573E+03  0.17550246904E+03  0.00000000000E+00 0. -1.
         -3    1    6    6    0  503 -0.53457510535E+02  0.41507822822E+02  0.52352977736E+03  0.52788638226E+03  0.00000000000E+00 0.  1.
<mgrwt>
<rscale>  0 0.14878389E+04</rscale>
<asrwt>0</asrwt>
<pdfrwt beam="1">  1        2 0.11801170E+00 0.14878389E+04</pdfrwt>
<pdfrwt beam="2">  1       -1 0.11099414E+00 0.14878389E+04</pdfrwt>
<totfact> 0.30050587E+01</totfact>
</mgrwt>
</event>
<event>
12    7  0.1661464E-007  0.2091060E+04  0.7818608E-02  0.8565192E-01
          2   -1    0    0  501    0  0.00000000000E+00  0.00000000000E+00  0.94957962976E+03  0.94957962976E+03  0.00000000000E+00 0. -1.
         -1   -1    0    0    0  501 -0.00000000000E+00 -0.00000000000E+00 -0.11511751385E+04  0.11511751385E+04  0.00000000000E+00 0.  1.
         24    2    1    2    0    0  0.72626926657E+03  0.40391484894E+03 -0.16035864481E+03  0.85035999983E+03  0.82358858631E+02 0.  0.
        254    2    1    2    0    0 -0.72626926657E+03 -0.40391484894E+03 -0.41236863948E+02  0.12503947684E+04  0.93336613675E+03 0.  0.
         23    2    4    4    0    0 -0.89078960688E+03 -0.47891456770E+03  0.71402802517E+02  0.10180107345E+04  0.91554401723E+02 0.  0.
         23    2    4    4    0    0  0.16452034031E+03  0.74999718767E+02 -0.11263966647E+03  0.23238403394E+03  0.92858734523E+02 0.  0.
          2    1    3    3  502    0  0.33427994503E+02  0.19894010922E+02 -0.26275900685E+02  0.46942789050E+02  0.00000000000E+00 0. -1.
         -1    1    3    3    0  502  0.69284127207E+03  0.38402083801E+03 -0.13408274412E+03  0.80341721078E+03  0.00000000000E+00 0.  1.
         13    1    5    5    0    0 -0.10267051357E+03 -0.90313790831E+02  0.62614553075E+01  0.13688323854E+03  0.00000000000E+00 0. -1.
        -13    1    5    5    0    0 -0.78811909331E+03 -0.38860077687E+03  0.65141347209E+02  0.88112749596E+03  0.00000000000E+00 0.  1.
          3    1    6    6  503    0  0.38665274298E+02 -0.17760884692E+02 -0.56213428909E+01  0.42919132767E+02  0.00000000000E+00 0. -1.
         -3    1    6    6    0  503  0.12585506601E+03  0.92760603460E+02 -0.10701832357E+03  0.18946490117E+03  0.00000000000E+00 0.  1.
<mgrwt>
<rscale>  0 0.20910595E+04</rscale>
<asrwt>0</asrwt>
<pdfrwt beam="1">  1        2 0.14608917E+00 0.20910595E+04</pdfrwt>
<pdfrwt beam="2">  1       -1 0.17710387E+00 0.20910595E+04</pdfrwt>
<totfact> 0.62409474E+00</totfact>
</mgrwt>
</event>
<event>
12    7  0.1661464E-007  0.2177373E+04  0.7818608E-02  0.8527905E-01
         -1   -1    0    0    0  501 -0.00000000000E+00  0.00000000000E+00  0.13884489590E+04  0.13884489590E+04  0.00000000000E+00 0.  1.
          2   -1    0    0  501    0  0.00000000000E+00 -0.00000000000E+00 -0.85364221292E+03  0.85364221292E+03  0.00000000000E+00 0. -1.
         24    2    1    2    0    0  0.51302941784E+03  0.28063856578E+03  0.92099407882E+03  0.10935936974E+04  0.75893962312E+02 0.  0.
        254    2    1    2    0    0 -0.51302941784E+03 -0.28063856578E+03 -0.38618733277E+03  0.11484974745E+04  0.90991681206E+03 0.  0.
         23    2    4    4    0    0 -0.59929366444E+03 -0.26182607505E+03 -0.60504629400E+03  0.89615189339E+03  0.96443809136E+02 0.  0.
         23    2    4    4    0    0  0.86264246601E+02 -0.18812490733E+02  0.21885896124E+03  0.25234558115E+03  0.89351090446E+02 0.  0.
          2    1    3    3  502    0  0.19753439032E+02 -0.38428440866E+01  0.35647231190E+02  0.40935203624E+02  0.00000000000E+00 0. -1.
         -1    1    3    3    0  502  0.49327597881E+03  0.28448140987E+03  0.88534684763E+03  0.10526584937E+04  0.00000000000E+00 0.  1.
         13    1    5    5    0    0 -0.42505876586E+03 -0.14773729742E+03 -0.45102034311E+03  0.63711899468E+03  0.00000000000E+00 0. -1.
        -13    1    5    5    0    0 -0.17423489857E+03 -0.11408877763E+03 -0.15402595090E+03  0.25903289871E+03  0.00000000000E+00 0.  1.
          1    1    6    6  503    0  0.19922867831E+02 -0.34852943796E+02  0.15043800195E+03  0.15570241097E+03  0.00000000000E+00 0. -1.
         -1    1    6    6    0  503  0.66341378770E+02  0.16040453062E+02  0.68420959291E+02  0.96643170177E+02  0.00000000000E+00 0.  1.
<mgrwt>
<rscale>  0 0.21773733E+04</rscale>
<asrwt>0</asrwt>
<pdfrwt beam="1">  1        2 0.13132957E+00 0.21773733E+04</pdfrwt>
<pdfrwt beam="2">  1       -1 0.21360753E+00 0.21773733E+04</pdfrwt>
<totfact> 0.40054695E+00</totfact>
</mgrwt>
</event>
<event>
12    7  0.1661464E-007  0.1438767E+04  0.7818608E-02  0.8926225E-01
          2   -1    0    0  501    0  0.00000000000E+00  0.00000000000E+00  0.20062474834E+04  0.20062474834E+04  0.00000000000E+00 0. -1.
         -1   -1    0    0    0  501 -0.00000000000E+00 -0.00000000000E+00 -0.25795069591E+03  0.25795069591E+03  0.00000000000E+00 0.  1.
         24    2    1    2    0    0 -0.34697949082E+03 -0.23040747235E+03  0.35668136476E+03  0.55444166284E+03  0.81863246676E+02 0.  0.
        254    2    1    2    0    0  0.34697949082E+03  0.23040747235E+03  0.13916154227E+04  0.17097565165E+04  0.90177130721E+03 0.  0.
         23    2    4    4    0    0  0.58236541025E+03  0.38952940367E+02  0.12031874320E+04  0.13405078995E+04  0.92922707090E+02 0.  0.
         23    2    4    4    0    0 -0.23538591942E+03  0.19145453198E+03  0.18842799074E+03  0.36924861699E+03  0.93691326025E+02 0.  0.
          2    1    3    3  502    0 -0.75412068918E+02 -0.86837219899E+02  0.12365782428E+03  0.16887551748E+03  0.00000000000E+00 0. -1.
         -1    1    3    3    0  502 -0.27156742191E+03 -0.14357025245E+03  0.23302354049E+03  0.38556614536E+03  0.00000000000E+00 0.  1.
         13    1    5    5    0    0  0.35231414150E+03  0.64028336358E+02  0.77709924844E+03  0.85563317144E+03  0.00000000000E+00 0. -1.
        -13    1    5    5    0    0  0.23005126875E+03 -0.25075395991E+02  0.42608818355E+03  0.48487472805E+03  0.00000000000E+00 0.  1.
          1    1    6    6  503    0 -0.14970086905E+03  0.15288092083E+03  0.86993692527E+02  0.23097798312E+03  0.00000000000E+00 0. -1.
         -1    1    6    6    0  503 -0.85685050370E+02  0.38573611154E+02  0.10143429821E+03  0.13827063386E+03  0.00000000000E+00 0.  1.
<mgrwt>
<rscale>  0 0.14387674E+04</rscale>
<asrwt>0</asrwt>
<pdfrwt beam="1">  1        2 0.30865345E+00 0.14387674E+04</pdfrwt>
<pdfrwt beam="2">  1       -1 0.39684724E-01 0.14387674E+04</pdfrwt>
<totfact> 0.45309060E+01</totfact>
</mgrwt>
</event>
<event>
12    7  0.1661464E-007  0.1337726E+04  0.7818608E-02  0.9000171E-01
         -1   -1    0    0    0  501 -0.00000000000E+00  0.00000000000E+00  0.14056900007E+03  0.14056900007E+03  0.00000000000E+00 0.  1.
          2   -1    0    0  501    0  0.00000000000E+00 -0.00000000000E+00 -0.31826215644E+04  0.31826215644E+04  0.00000000000E+00 0. -1.
         24    2    1    2    0    0  0.13027387628E+03 -0.12879350870E+03 -0.72136574578E+02  0.21439725019E+03  0.84873109839E+02 0.  0.
        254    2    1    2    0    0 -0.13027387628E+03  0.12879350870E+03 -0.29699159897E+04  0.31087933143E+04  0.90035317181E+03 0.  0.
         23    2    4    4    0    0  0.24421090807E+03  0.31629005070E+03 -0.82673989445E+03  0.92315114688E+03  0.95030643047E+02 0.  0.
         23    2    4    4    0    0 -0.37448478434E+03 -0.18749654200E+03 -0.21431760953E+04  0.21856421674E+04  0.91837364235E+02 0.  0.
          2    1    3    3  502    0  0.33017139322E+02 -0.25533464142E+02 -0.58541256436E+02  0.71896926118E+02  0.00000000000E+00 0. -1.
         -1    1    3    3    0  502  0.97256736955E+02 -0.10326004456E+03 -0.13595318142E+02  0.14250032407E+03  0.00000000000E+00 0.  1.
         13    1    5    5    0    0  0.13945541218E+03  0.24398149912E+03 -0.52068776790E+03  0.59168448986E+03  0.00000000000E+00 0. -1.
        -13    1    5    5    0    0  0.10475549589E+03  0.72308551583E+02 -0.30605212656E+03  0.33146665703E+03  0.00000000000E+00 0.  1.
          4    1    6    6  503    0 -0.19662829695E+03 -0.14614687364E+03 -0.13065379629E+04  0.13293092358E+04  0.00000000000E+00 0. -1.
         -4    1    6    6    0  503 -0.17785648739E+03 -0.41349668360E+02 -0.83663813234E+03  0.85633293156E+03  0.00000000000E+00 0.  1.
<mgrwt>
<rscale>  0 0.13377263E+04</rscale>
<asrwt>0</asrwt>
<pdfrwt beam="1">  1        2 0.48963400E+00 0.13377263E+04</pdfrwt>
<pdfrwt beam="2">  1       -1 0.21626004E-01 0.13377263E+04</pdfrwt>
<totfact> 0.26934684E+01</totfact>
</mgrwt>
</event>
<event>
12    7  0.1661464E-007  0.1514582E+04  0.7818608E-02  0.8874814E-01
         -1   -1    0    0    0  501 -0.00000000000E+00  0.00000000000E+00  0.26292027133E+03  0.26292027133E+03  0.00000000000E+00 0.  1.
          2   -1    0    0  501    0  0.00000000000E+00 -0.00000000000E+00 -0.21812300713E+04  0.21812300713E+04  0.00000000000E+00 0. -1.
         24    2    1    2    0    0 -0.34223914454E+03  0.97559030283E+02 -0.88385988309E+02  0.37399766220E+03  0.73598722536E+02 0.  0.
        254    2    1    2    0    0  0.34223914454E+03 -0.97559030283E+02 -0.18299238116E+04  0.20701526804E+04  0.90014752533E+03 0.  0.
         23    2    4    4    0    0 -0.82644390153E+02 -0.13540886659E+03  0.16139699519E+01  0.18756000932E+03  0.10005246535E+03 0.  0.
         23    2    4    4    0    0  0.42488353469E+03  0.37849836306E+02 -0.18315377816E+04  0.18825926711E+04  0.87555077993E+02 0.  0.
          2    1    3    3  502    0 -0.31008837970E+01 -0.70810787736E+01  0.15074914654E+01  0.78758928026E+01  0.00000000000E+00 0. -1.
         -1    1    3    3    0  502 -0.33913826074E+03  0.10464010906E+03 -0.89893479774E+02  0.36612176940E+03  0.00000000000E+00 0.  1.
         13    1    5    5    0    0 -0.32457593293E+02 -0.11347369608E+03 -0.33269197180E+02  0.12262387428E+03  0.00000000000E+00 0. -1.
        -13    1    5    5    0    0 -0.50186796859E+02 -0.21935170512E+02  0.34883167131E+02  0.64936135037E+02  0.00000000000E+00 0.  1.
          4    1    6    6  503    0  0.41672120572E+03  0.44998335240E+02 -0.18153186509E+04  0.18630789617E+04  0.00000000000E+00 0. -1.
         -4    1    6    6    0  503  0.81623289698E+01 -0.71484989344E+01 -0.16219130706E+02  0.19513709337E+02  0.00000000000E+00 0.  1.
<mgrwt>
<rscale>  0 0.15145819E+04</rscale>
<asrwt>0</asrwt>
<pdfrwt beam="1">  1        2 0.33557386E+00 0.15145819E+04</pdfrwt>
<pdfrwt beam="2">  1       -1 0.40449272E-01 0.15145819E+04</pdfrwt>
<totfact> 0.34739873E+01</totfact>
</mgrwt>
</event>
<event>
12    7  0.1661464E-007  0.2351300E+04  0.7818608E-02  0.8457965E-01
         -1   -1    0    0    0  501 -0.00000000000E+00  0.00000000000E+00  0.39236409244E+03  0.39236409244E+03  0.00000000000E+00 0.  1.
          2   -1    0    0  501    0  0.00000000000E+00 -0.00000000000E+00 -0.35226279439E+04  0.35226279439E+04  0.00000000000E+00 0. -1.
         24    2    1    2    0    0  0.11937704568E+03 -0.90616993676E+03 -0.20145496497E+04  0.22136207091E+04  0.79445070128E+02 0.  0.
        254    2    1    2    0    0 -0.11937704568E+03  0.90616993676E+03 -0.11157142018E+04  0.17013713273E+04  0.90246960060E+03 0.  0.
         23    2    4    4    0    0 -0.15385599183E+03  0.16329295516E+03  0.11013790155E+03  0.26411696162E+03  0.85388269855E+02 0.  0.
         23    2    4    4    0    0  0.34478946155E+02  0.74287698160E+03 -0.12258521034E+04  0.14372543657E+04  0.99658039873E+02 0.  0.
          2    1    3    3  502    0  0.16619555817E+02 -0.19071870919E+03 -0.35051336174E+03  0.39938634482E+03  0.00000000000E+00 0. -1.
         -1    1    3    3    0  502  0.10275748986E+03 -0.71545122757E+03 -0.16640362880E+04  0.18142343642E+04  0.00000000000E+00 0.  1.
         13    1    5    5    0    0 -0.13219373463E+03  0.15734419575E+03  0.12171506392E+03  0.23884500455E+03  0.00000000000E+00 0. -1.
        -13    1    5    5    0    0 -0.21662257206E+02  0.59487594130E+01 -0.11577162372E+02  0.25271957075E+02  0.00000000000E+00 0.  1.
          4    1    6    6  503    0  0.91743683511E+01  0.69376152020E+03 -0.11554769406E+04  0.13477819468E+04  0.00000000000E+00 0. -1.
         -4    1    6    6    0  503  0.25304577804E+02  0.49115461391E+02 -0.70375162789E+02  0.89472418896E+02  0.00000000000E+00 0.  1.
<mgrwt>
<rscale>  0 0.23512998E+04</rscale>
<asrwt>0</asrwt>
<pdfrwt beam="1">  1        2 0.54194276E+00 0.23512998E+04</pdfrwt>
<pdfrwt beam="2">  1       -1 0.60363707E-01 0.23512998E+04</pdfrwt>
<totfact> 0.22454724E+00</totfact>
</mgrwt>
</event>
<event>
12    7  0.1661464E-007  0.9984545E+03  0.7818608E-02  0.9310242E-01
         -1   -1    0    0    0  501 -0.00000000000E+00  0.00000000000E+00  0.20877044284E+04  0.20877044284E+04  0.00000000000E+00 0.  1.
          2   -1    0    0  501    0  0.00000000000E+00 -0.00000000000E+00 -0.11937889122E+03  0.11937889122E+03  0.00000000000E+00 0. -1.
         24    2    1    2    0    0 -0.34403569285E+02 -0.26352804818E+02  0.17806514536E+03  0.20135773698E+03  0.83424614758E+02 0.  0.
        254    2    1    2    0    0  0.34403569285E+02  0.26352804818E+02  0.17902603918E+04  0.20057255826E+04  0.90334089159E+03 0.  0.
         23    2    4    4    0    0 -0.43175766983E+02  0.11490836649E+02  0.18620865656E+04  0.18648128017E+04  0.90356081233E+02 0.  0.
         23    2    4    4    0    0  0.77579336268E+02  0.14861968169E+02 -0.71826173788E+02  0.14091278093E+03  0.91967282633E+02 0.  0.
          4    1    3    3  502    0 -0.33848299599E+02 -0.70655775577E+01  0.15916812806E+02  0.38065400324E+02  0.00000000000E+00 0. -1.
         -3    1    3    3    0  502 -0.55526968599E+00 -0.19287227260E+02  0.16214833255E+03  0.16329233665E+03  0.00000000000E+00 0.  1.
         13    1    5    5    0    0 -0.68396704718E+02  0.19911161233E+02  0.11297166739E+04  0.11319603910E+04  0.00000000000E+00 0. -1.
        -13    1    5    5    0    0  0.25220937735E+02 -0.84203245838E+01  0.73236989174E+03  0.73285241072E+03  0.00000000000E+00 0.  1.
          1    1    6    6  503    0  0.53434927379E+02  0.41683328665E+02 -0.88717798464E+01  0.68348371087E+02  0.00000000000E+00 0. -1.
         -1    1    6    6    0  503  0.24144408889E+02 -0.26821360495E+02 -0.62954393941E+02  0.72564409844E+02  0.00000000000E+00 0.  1.
<mgrwt>
<rscale>  0 0.99845449E+03</rscale>
<asrwt>0</asrwt>
<pdfrwt beam="1">  1        2 0.18365985E-01 0.99845449E+03</pdfrwt>
<pdfrwt beam="2">  1       -1 0.32118527E+00 0.99845449E+03</pdfrwt>
<totfact> 0.88283791E+00</totfact>
</mgrwt>
</event>
<event>
12    7  0.1661464E-007  0.1377984E+04  0.7818608E-02  0.8969911E-01
         -1   -1    0    0    0  501 -0.00000000000E+00  0.00000000000E+00  0.17439082757E+04  0.17439082757E+04  0.00000000000E+00 0.  1.
          2   -1    0    0  501    0  0.00000000000E+00 -0.00000000000E+00 -0.27221035080E+03  0.27221035080E+03  0.00000000000E+00 0. -1.
         24    2    1    2    0    0  0.16445143913E+03  0.23911421841E+02 -0.96487667355E+02  0.20248553925E+03  0.63831745441E+02 0.  0.
        254    2    1    2    0    0 -0.16445143913E+03 -0.23911421841E+02  0.15681855922E+04  0.18136330872E+04  0.89579176793E+03 0.  0.
         23    2    4    4    0    0 -0.11935827707E+03 -0.23127684129E+03  0.15586191048E+04  0.15829073484E+04  0.92556923852E+02 0.  0.
         23    2    4    4    0    0 -0.45093162062E+02  0.20736541945E+03  0.95664873649E+01  0.23072573877E+03  0.90050199343E+02 0.  0.
          2    1    3    3  502    0  0.15496757982E+03  0.39247475850E+02 -0.84347087639E+02  0.18074774231E+03  0.00000000000E+00 0. -1.
         -1    1    3    3    0  502  0.94838593119E+01 -0.15336054009E+02 -0.12140579716E+02  0.21737796941E+02  0.00000000000E+00 0.  1.
         13    1    5    5    0    0 -0.11204624978E+02 -0.13246105141E+02  0.32763430991E+03  0.32809334640E+03  0.00000000000E+00 0. -1.
        -13    1    5    5    0    0 -0.10815365209E+03 -0.21803073615E+03  0.12309847949E+04  0.12548140020E+04  0.00000000000E+00 0.  1.
          3    1    6    6  503    0 -0.35642543101E+02  0.27268772329E+02 -0.17873542319E+02  0.48305696745E+02  0.00000000000E+00 0. -1.
         -3    1    6    6    0  503 -0.94506189617E+01  0.18009664712E+03  0.27440029684E+02  0.18242004202E+03  0.00000000000E+00 0.  1.
<mgrwt>
<rscale>  0 0.13779839E+04</rscale>
<asrwt>0</asrwt>
<pdfrwt beam="1">  1        2 0.41878516E-01 0.13779839E+04</pdfrwt>
<pdfrwt beam="2">  1       -1 0.26829357E+00 0.13779839E+04</pdfrwt>
<totfact> 0.72586308E+00</totfact>
</mgrwt>
</event>
<event>
12    7  0.1661464E-007  0.1380046E+04  0.7818608E-02  0.8968390E-01
         -1   -1    0    0    0  501 -0.00000000000E+00  0.00000000000E+00  0.56030822349E+03  0.56030822349E+03  0.00000000000E+00 0.  1.
          2   -1    0    0  501    0  0.00000000000E+00 -0.00000000000E+00 -0.84976725234E+03  0.84976725234E+03  0.00000000000E+00 0. -1.
         24    2    1    2    0    0 -0.20685410306E+03 -0.31361036246E+03  0.11104353371E+02  0.38433808159E+03  0.80326676136E+02 0.  0.
        254    2    1    2    0    0  0.20685410306E+03  0.31361036246E+03 -0.30056338222E+03  0.10257373942E+04  0.90590218888E+03 0.  0.
         23    2    4    4    0    0 -0.25079987144E+03  0.38815900368E+03 -0.28587150972E+03  0.55131992467E+03  0.93076052852E+02 0.  0.
         23    2    4    4    0    0  0.45765397451E+03 -0.74548641224E+02 -0.14691872503E+02  0.47441746957E+03  0.99254340105E+02 0.  0.
          4    1    3    3  502    0 -0.28937880309E+02 -0.25937988866E+02  0.24305038992E+02  0.45835740461E+02  0.00000000000E+00 0. -1.
         -3    1    3    3    0  502 -0.17791622276E+03 -0.28767237359E+03 -0.13200685621E+02  0.33850234113E+03  0.00000000000E+00 0.  1.
         13    1    5    5    0    0 -0.20151600371E+03  0.23512392614E+03 -0.20479619256E+03  0.37125926370E+03  0.00000000000E+00 0.  1.
        -13    1    5    5    0    0 -0.49283867733E+02  0.15303507754E+03 -0.81075317154E+02  0.18006066097E+03  0.00000000000E+00 0. -1.
          2    1    6    6  503    0  0.24940989209E+02  0.19078571178E+02  0.93793328474E+00  0.31415355159E+02  0.00000000000E+00 0. -1.
         -2    1    6    6    0  503  0.43271298530E+03 -0.93627212402E+02 -0.15629805788E+02  0.44300211441E+03  0.00000000000E+00 0.  1.
<mgrwt>
<rscale>  0 0.13800458E+04</rscale>
<asrwt>0</asrwt>
<pdfrwt beam="1">  1        2 0.13073342E+00 0.13800458E+04</pdfrwt>
<pdfrwt beam="2">  1       -1 0.86201265E-01 0.13800458E+04</pdfrwt>
<totfact> 0.46927718E+01</totfact>
</mgrwt>
</event>
<event>
12    7  0.1661464E-007  0.1322466E+04  0.7818608E-02  0.9011937E-01
          2   -1    0    0  501    0  0.00000000000E+00  0.00000000000E+00  0.15853825372E+04  0.15853825372E+04  0.00000000000E+00 0. -1.
         -1   -1    0    0    0  501 -0.00000000000E+00 -0.00000000000E+00 -0.27578775656E+03  0.27578775656E+03  0.00000000000E+00 0.  1.
         24    2    1    2    0    0  0.26201275303E+03 -0.16464119043E+03  0.57855040748E+03  0.66095631546E+03  0.79907900768E+02 0.  0.
        254    2    1    2    0    0 -0.26201275303E+03  0.16464119043E+03  0.73104437313E+03  0.12002139783E+04  0.90018348898E+03 0.  0.
         23    2    4    4    0    0 -0.65413108053E+01 -0.35410666490E+03  0.26066613635E+03  0.44912566365E+03  0.91283669028E+02 0.  0.
         23    2    4    4    0    0 -0.25547144222E+03  0.51874785533E+03  0.47037823678E+03  0.75108831463E+03  0.92265787455E+02 0.  0.
          2    1    3    3  502    0  0.24216936005E+03 -0.17155113939E+03  0.55521433461E+03  0.62955440569E+03  0.00000000000E+00 0. -1.
         -1    1    3    3    0  502  0.19843392977E+02  0.69099489591E+01  0.23336072876E+02  0.31401909763E+02  0.00000000000E+00 0.  1.
         13    1    5    5    0    0  0.36688692077E+02 -0.19484497913E+03  0.16793197501E+03  0.25983027970E+03  0.00000000000E+00 0. -1.
        -13    1    5    5    0    0 -0.43230002882E+02 -0.15926168577E+03  0.92734161346E+02  0.18929538395E+03  0.00000000000E+00 0.  1.
          3    1    6    6  503    0 -0.12270037783E+03  0.24050436087E+03  0.16115214309E+03  0.31443241490E+03  0.00000000000E+00 0. -1.
         -3    1    6    6    0  503 -0.13277106439E+03  0.27824349446E+03  0.30922609369E+03  0.43665589973E+03  0.00000000000E+00 0.  1.
<mgrwt>
<rscale>  0 0.13224660E+04</rscale>
<asrwt>0</asrwt>
<pdfrwt beam="1">  1        2 0.24390500E+00 0.13224660E+04</pdfrwt>
<pdfrwt beam="2">  1       -1 0.42428887E-01 0.13224660E+04</pdfrwt>
<totfact> 0.69224016E+01</totfact>
</mgrwt>
</event>
<event>
12    7  0.1661464E-007  0.1351682E+04  0.7818608E-02  0.8989556E-01
          2   -1    0    0  501    0  0.00000000000E+00  0.00000000000E+00  0.54444224074E+03  0.54444224074E+03  0.00000000000E+00 0. -1.
         -1   -1    0    0    0  501 -0.00000000000E+00 -0.00000000000E+00 -0.83895244739E+03  0.83895244739E+03  0.00000000000E+00 0.  1.
         24    2    1    2    0    0  0.21810861724E+03 -0.23332318866E+03 -0.27438764036E+03  0.42828331227E+03  0.78274766732E+02 0.  0.
        254    2    1    2    0    0 -0.21810861724E+03  0.23332318866E+03 -0.20122566294E+02  0.95511137586E+03  0.89990096307E+03 0.  0.
         23    2    4    4    0    0 -0.38628695897E+03  0.39192210239E+03  0.22922859144E+03  0.60356373008E+03  0.94460997933E+02 0.  0.
         23    2    4    4    0    0  0.16817834173E+03 -0.15859891374E+03 -0.24935115773E+03  0.35154764577E+03  0.89287050141E+02 0.  0.
          2    1    3    3  502    0  0.11915737225E+02 -0.53195133909E+02 -0.36728492787E+02  0.65731949976E+02  0.00000000000E+00 0. -1.
         -1    1    3    3    0  502  0.20619288001E+03 -0.18012805475E+03 -0.23765914758E+03  0.36255136229E+03  0.00000000000E+00 0.  1.
         13    1    5    5    0    0 -0.19281546120E+03  0.12978170998E+03  0.10137222991E+03  0.25356936589E+03  0.00000000000E+00 0. -1.
        -13    1    5    5    0    0 -0.19347149777E+03  0.26214039241E+03  0.12785636152E+03  0.34999436419E+03  0.00000000000E+00 0.  1.
          3    1    6    6  503    0  0.13211559873E+02  0.15704388101E+01 -0.52611269243E+02  0.54267460266E+02  0.00000000000E+00 0.  1.
         -3    1    6    6    0  503  0.15496678186E+03 -0.16016935255E+03 -0.19673988849E+03  0.29728018551E+03  0.00000000000E+00 0. -1.
<mgrwt>
<rscale>  0 0.13516821E+04</rscale>
<asrwt>0</asrwt>
<pdfrwt beam="1">  1        2 0.83760344E-01 0.13516821E+04</pdfrwt>
<pdfrwt beam="2">  1       -1 0.12906961E+00 0.13516821E+04</pdfrwt>
<totfact> 0.32136018E+01</totfact>
</mgrwt>
</event>
<event>
12    7  0.1661464E-007  0.2428039E+04  0.7818608E-02  0.8429080E-01
          2   -1    0    0  501    0  0.00000000000E+00  0.00000000000E+00  0.74044264247E+03  0.74044264247E+03  0.00000000000E+00 0. -1.
         -1   -1    0    0    0  501 -0.00000000000E+00 -0.00000000000E+00 -0.19904895607E+04  0.19904895607E+04  0.00000000000E+00 0.  1.
         24    2    1    2    0    0 -0.95229201509E+02  0.69296863843E+03  0.33345954714E+03  0.77980838624E+03  0.87359687503E+02 0.  0.
        254    2    1    2    0    0  0.95229201509E+02 -0.69296863843E+03 -0.15835064654E+04  0.19511238170E+04  0.90006515794E+03 0.  0.
         23    2    4    4    0    0  0.24845162083E+03  0.12719989700E+03 -0.32109916901E+03  0.43508571577E+03  0.91032313190E+02 0.  0.
         23    2    4    4    0    0 -0.15322241932E+03 -0.82016853543E+03 -0.12624072964E+04  0.15160381012E+04  0.92443528792E+02 0.  0.
          4    1    3    3  502    0 -0.11060423359E+03  0.64655044125E+03  0.30741265887E+03  0.72440548894E+03  0.00000000000E+00 0. -1.
         -3    1    3    3    0  502  0.15375032078E+02  0.46418197180E+02  0.26046888271E+02  0.55402897302E+02  0.00000000000E+00 0.  1.
         13    1    5    5    0    0  0.21647773395E+03  0.13711860987E+03 -0.25786179194E+03  0.36353380340E+03  0.00000000000E+00 0. -1.
        -13    1    5    5    0    0  0.31973886878E+02 -0.99187128666E+01 -0.63237377060E+02  0.71551912375E+02  0.00000000000E+00 0.  1.
          2    1    6    6  503    0 -0.92632841246E+02 -0.62413647930E+03 -0.89215739563E+03  0.10927360187E+04  0.00000000000E+00 0. -1.
         -2    1    6    6    0  503 -0.60589578070E+02 -0.19603205613E+03 -0.37024990078E+03  0.42330208248E+03  0.00000000000E+00 0.  1.
<mgrwt>
<rscale>  0 0.24280390E+04</rscale>
<asrwt>0</asrwt>
<pdfrwt beam="1">  1        2 0.11391425E+00 0.24280390E+04</pdfrwt>
<pdfrwt beam="2">  1       -1 0.30622916E+00 0.24280390E+04</pdfrwt>
<totfact> 0.11743958E+00</totfact>
</mgrwt>
</event>
<event>
12    7  0.1661464E-007  0.3091214E+04  0.7818608E-02  0.8218153E-01
         -1   -1    0    0    0  501 -0.00000000000E+00  0.00000000000E+00  0.66938215863E+03  0.66938215863E+03  0.00000000000E+00 0.  1.
          2   -1    0    0  501    0  0.00000000000E+00 -0.00000000000E+00 -0.35688148937E+04  0.35688148937E+04  0.00000000000E+00 0. -1.
         24    2    1    2    0    0 -0.13895035572E+04  0.39874661810E+02 -0.96224834581E+03  0.16925885847E+04  0.81388661047E+02 0.  0.
        254    2    1    2    0    0  0.13895035572E+04 -0.39874661810E+02 -0.19371843893E+04  0.25456084676E+04  0.89170005515E+03 0.  0.
         23    2    4    4    0    0  0.80524788880E+03 -0.40952360484E+03 -0.13848478693E+04  0.16559543302E+04  0.90815072026E+02 0.  0.
         23    2    4    4    0    0  0.58425566836E+03  0.36964894303E+03 -0.55233651999E+03  0.88965413741E+03  0.91726908889E+02 0.  0.
          4    1    3    3  502    0 -0.23348743939E+01  0.19877520580E+01  0.11409336332E+01  0.32717772288E+01  0.00000000000E+00 0. -1.
         -3    1    3    3    0  502 -0.13871686828E+04  0.37886909752E+02 -0.96338927944E+03  0.16893168075E+04  0.00000000000E+00 0.  1.
         13    1    5    5    0    0  0.14912495371E+03 -0.90996516649E+02 -0.21051938304E+03  0.27356357305E+03  0.00000000000E+00 0.  1.
        -13    1    5    5    0    0  0.65612293509E+03 -0.31852708819E+03 -0.11743284863E+04  0.13823907572E+04  0.00000000000E+00 0. -1.
          2    1    6    6  503    0  0.45730757656E+03  0.28996879127E+03 -0.47829634066E+03  0.72248149387E+03  0.00000000000E+00 0. -1.
         -2    1    6    6    0  503  0.12694809180E+03  0.79680151765E+02 -0.74040179322E+02  0.16717264355E+03  0.00000000000E+00 0.  1.
<mgrwt>
<rscale>  0 0.30912140E+04</rscale>
<asrwt>0</asrwt>
<pdfrwt beam="1">  1        2 0.54904844E+00 0.30912140E+04</pdfrwt>
<pdfrwt beam="2">  1       -1 0.10298187E+00 0.30912140E+04</pdfrwt>
<totfact> 0.62405963E-01</totfact>
</mgrwt>
</event>
<event>
12    7  0.1661464E-007  0.2011367E+04  0.7818608E-02  0.8601325E-01
         -1   -1    0    0    0  501 -0.00000000000E+00  0.00000000000E+00  0.33051995859E+03  0.33051995859E+03  0.00000000000E+00 0.  1.
          2   -1    0    0  501    0  0.00000000000E+00 -0.00000000000E+00 -0.30600241208E+04  0.30600241208E+04  0.00000000000E+00 0. -1.
         24    2    1    2    0    0 -0.70235967450E+03  0.38284706085E+03 -0.10043442293E+04  0.12864849617E+04  0.80344516362E+02 0.  0.
        254    2    1    2    0    0  0.70235967450E+03 -0.38284706085E+03 -0.17251599329E+04  0.21040591177E+04  0.90055926647E+03 0.  0.
         23    2    4    4    0    0  0.83471145881E+03 -0.14980659227E+03 -0.15569198572E+04  0.17754099585E+04  0.94317783372E+02 0.  0.
         23    2    4    4    0    0 -0.13235178430E+03 -0.23304046858E+03 -0.16824007569E+03  0.32864915926E+03  0.88773261806E+02 0.  0.
          4    1    3    3  502    0  0.18799231654E+01 -0.29050026288E+00 -0.91632711607E+00  0.21114347952E+01  0.00000000000E+00 0. -1.
         -3    1    3    3    0  502 -0.70423959767E+03  0.38313756112E+03 -0.10034279022E+04  0.12843735269E+04  0.00000000000E+00 0.  1.
         13    1    5    5    0    0  0.16118220904E+03 -0.61023467542E+02 -0.27341452396E+03  0.32320128406E+03  0.00000000000E+00 0. -1.
        -13    1    5    5    0    0  0.67352924976E+03 -0.88783124729E+02 -0.12835053333E+04  0.14522086744E+04  0.00000000000E+00 0.  1.
          3    1    6    6  503    0 -0.14999096725E+02 -0.61840316202E+01 -0.39338752457E+02  0.42552938730E+02  0.00000000000E+00 0. -1.
         -3    1    6    6    0  503 -0.11735268758E+03 -0.22685643696E+03 -0.12890132323E+03  0.28609622053E+03  0.00000000000E+00 0.  1.
<mgrwt>
<rscale>  0 0.20113667E+04</rscale>
<asrwt>0</asrwt>
<pdfrwt beam="1">  1        2 0.47077293E+00 0.20113667E+04</pdfrwt>
<pdfrwt beam="2">  1       -1 0.50849226E-01 0.20113667E+04</pdfrwt>
<totfact> 0.65699387E+00</totfact>
</mgrwt>
</event>
<event>
12    7  0.1661464E-007  0.2927176E+04  0.7818608E-02  0.8264838E-01
         -1   -1    0    0    0  501 -0.00000000000E+00  0.00000000000E+00  0.41327067600E+04  0.41327067600E+04  0.00000000000E+00 0.  1.
          2   -1    0    0  501    0  0.00000000000E+00 -0.00000000000E+00 -0.51832604184E+03  0.51832604184E+03  0.00000000000E+00 0. -1.
         24    2    1    2    0    0 -0.53536506789E+03  0.67568706438E+03  0.32524913185E+04  0.33657627436E+04  0.80562426015E+02 0.  0.
        254    2    1    2    0    0  0.53536506789E+03 -0.67568706438E+03  0.36188939969E+03  0.12852700583E+04  0.88192200344E+03 0.  0.
         23    2    4    4    0    0  0.25209662461E+03 -0.60713843298E+03  0.60206716720E+03  0.89612507646E+03  0.91572342366E+02 0.  0.
         23    2    4    4    0    0  0.28326844328E+03 -0.68548631395E+02 -0.24017776751E+03  0.38914498180E+03  0.93853774732E+02 0.  0.
          2    1    3    3  502    0 -0.27605823132E+03  0.32015435107E+03  0.17347515225E+04  0.17855166761E+04  0.00000000000E+00 0. -1.
         -1    1    3    3    0  502 -0.25930683657E+03  0.35553271331E+03  0.15177397959E+04  0.15802460675E+04  0.00000000000E+00 0.  1.
         13    1    5    5    0    0  0.30985155866E+02 -0.21890329721E+02  0.39438133086E+02  0.54723237849E+02  0.00000000000E+00 0. -1.
        -13    1    5    5    0    0  0.22111146875E+03 -0.58524810326E+03  0.56262903411E+03  0.84140183861E+03  0.00000000000E+00 0.  1.
          4    1    6    6  503    0  0.38107570595E+02 -0.41576931650E+02 -0.24445749956E+02  0.61468877271E+02  0.00000000000E+00 0. -1.
         -4    1    6    6    0  503  0.24516087268E+03 -0.26971699745E+02 -0.21573201755E+03  0.32767610453E+03  0.00000000000E+00 0.  1.
<mgrwt>
<rscale>  0 0.29271758E+04</rscale>
<asrwt>0</asrwt>
<pdfrwt beam="1">  1        2 0.79742471E-01 0.29271758E+04</pdfrwt>
<pdfrwt beam="2">  1       -1 0.63580102E+00 0.29271758E+04</pdfrwt>
<totfact> 0.18688452E-02</totfact>
</mgrwt>
</event>
<event>
12    7  0.1661464E-007  0.2365434E+04  0.7818608E-02  0.8452559E-01
         -1   -1    0    0    0  501 -0.00000000000E+00  0.00000000000E+00  0.62743470274E+03  0.62743470274E+03  0.00000000000E+00 0.  1.
          2   -1    0    0  501    0  0.00000000000E+00 -0.00000000000E+00 -0.22294266244E+04  0.22294266244E+04  0.00000000000E+00 0. -1.
         24    2    1    2    0    0 -0.67095802184E+02 -0.24211137100E+03  0.49684648440E+03  0.56262491686E+03  0.81059270782E+02 0.  0.
        254    2    1    2    0    0  0.67095802184E+02  0.24211137100E+03 -0.20988384061E+04  0.22942364103E+04  0.89178376799E+03 0.  0.
         23    2    4    4    0    0 -0.33807449943E+03  0.31966889789E+03 -0.82518064942E+03  0.95169698323E+03  0.91222104106E+02 0.  0.
         23    2    4    4    0    0  0.40517030161E+03 -0.77557526895E+02 -0.12736577566E+04  0.13425394270E+04  0.10014933264E+03 0.  0.
          4    1    3    3  502    0  0.10361679112E+01 -0.28958329955E+02  0.18112143899E+02  0.34171746726E+02  0.00000000000E+00 0. -1.
         -3    1    3    3    0  502 -0.68131970095E+02 -0.21315304104E+03  0.47873434050E+03  0.52845317014E+03  0.00000000000E+00 0.  1.
         13    1    5    5    0    0 -0.89460749200E+02  0.13430405872E+03 -0.33160589961E+03  0.36878622329E+03  0.00000000000E+00 0. -1.
        -13    1    5    5    0    0 -0.24861375022E+03  0.18536483917E+03 -0.49357474981E+03  0.58291075994E+03  0.00000000000E+00 0.  1.
          3    1    6    6  503    0  0.18993492713E+03 -0.68143270383E+02 -0.49298776562E+03  0.53268726181E+03  0.00000000000E+00 0. -1.
         -3    1    6    6    0  503  0.21523537448E+03 -0.94142565125E+01 -0.78066999102E+03  0.80985216523E+03  0.00000000000E+00 0.  1.
<mgrwt>
<rscale>  0 0.23654341E+04</rscale>
<asrwt>0</asrwt>
<pdfrwt beam="1">  1        2 0.34298870E+00 0.23654341E+04</pdfrwt>
<pdfrwt beam="2">  1       -1 0.96528418E-01 0.23654341E+04</pdfrwt>
<totfact> 0.52668220E+00</totfact>
</mgrwt>
</event>
<event>
12    7  0.1661464E-007  0.1433866E+04  0.7818608E-02  0.8929663E-01
         -1   -1    0    0    0  501 -0.00000000000E+00  0.00000000000E+00  0.29175684263E+03  0.29175684263E+03  0.00000000000E+00 0.  1.
          2   -1    0    0  501    0  0.00000000000E+00 -0.00000000000E+00 -0.17617162582E+04  0.17617162582E+04  0.00000000000E+00 0. -1.
         24    2    1    2    0    0 -0.34331691352E+03 -0.21508203606E+03 -0.23362672029E+03  0.47425333111E+03  0.78790813488E+02 0.  0.
        254    2    1    2    0    0  0.34331691352E+03  0.21508203606E+03 -0.12363326953E+04  0.15792197697E+04  0.89514789965E+03 0.  0.
         23    2    4    4    0    0  0.47797658913E+03  0.11676143444E+03 -0.12883847112E+04  0.13820958794E+04  0.90327201748E+02 0.  0.
         23    2    4    4    0    0 -0.13465967561E+03  0.98320601622E+02  0.52052015978E+02  0.19712389029E+03  0.91368740909E+02 0.  0.
          4    1    3    3  502    0  0.30603432754E+01 -0.82081159389E+01 -0.18146265966E+01  0.89460459374E+01  0.00000000000E+00 0. -1.
         -3    1    3    3    0  502 -0.34637725680E+03 -0.20687392012E+03 -0.23181209369E+03  0.46530728517E+03  0.00000000000E+00 0.  1.
         13    1    5    5    0    0  0.33653007148E+03  0.86884891101E+02 -0.10147000930E+04  0.10725752897E+04  0.00000000000E+00 0.  1.
        -13    1    5    5    0    0  0.14144651766E+03  0.29876543335E+02 -0.27368461826E+03  0.30952058974E+03  0.00000000000E+00 0. -1.
          2    1    6    6  503    0 -0.61635411647E+02  0.39007216409E+02 -0.23318047863E+02  0.76578183950E+02  0.00000000000E+00 0. -1.
         -2    1    6    6    0  503 -0.73024263964E+02  0.59313385213E+02  0.75370063840E+02  0.12054570634E+03  0.00000000000E+00 0.  1.
<mgrwt>
<rscale>  0 0.14338658E+04</rscale>
<asrwt>0</asrwt>
<pdfrwt beam="1">  1        2 0.27103327E+00 0.14338658E+04</pdfrwt>
<pdfrwt beam="2">  1       -1 0.44885669E-01 0.14338658E+04</pdfrwt>
<totfact> 0.49322683E+01</totfact>
</mgrwt>
</event>
<event>
12    7  0.1661464E-007  0.2741303E+04  0.7818608E-02  0.8321727E-01
          2   -1    0    0  501    0  0.00000000000E+00  0.00000000000E+00  0.19150780981E+04  0.19150780981E+04  0.00000000000E+00 0. -1.
         -1   -1    0    0    0  501 -0.00000000000E+00 -0.00000000000E+00 -0.98099698604E+03  0.98099698604E+03  0.00000000000E+00 0.  1.
         24    2    1    2    0    0 -0.11339718533E+04  0.25177200002E+03  0.26779927246E+02  0.11648146549E+04  0.82430042452E+02 0.  0.
        254    2    1    2    0    0  0.11339718533E+04 -0.25177200002E+03  0.90730118480E+03  0.17312604292E+04  0.90817725680E+03 0.  0.
         23    2    4    4    0    0  0.48451604383E+03 -0.37730275505E+03  0.20699589993E+02  0.62133041627E+03  0.92248834454E+02 0.  0.
         23    2    4    4    0    0  0.64945580943E+03  0.12553075503E+03  0.88660159480E+03  0.11099300129E+04  0.91276649910E+02 0.  0.
          2    1    3    3  502    0 -0.67778582497E+03  0.13882844060E+03 -0.22900599823E+02  0.69223651877E+03  0.00000000000E+00 0. -1.
         -1    1    3    3    0  502 -0.45618602829E+03  0.11294355942E+03  0.49680527069E+02  0.47257813618E+03  0.00000000000E+00 0.  1.
         13    1    5    5    0    0  0.41021913281E+03 -0.35253298679E+03  0.23508845376E+01  0.54089256822E+03  0.00000000000E+00 0.  1.
        -13    1    5    5    0    0  0.74296911018E+02 -0.24769768259E+02  0.18348705455E+02  0.80437848046E+02  0.00000000000E+00 0. -1.
          1    1    6    6  503    0  0.21533172526E+03  0.35544239836E+02  0.22450660208E+03  0.31310439036E+03  0.00000000000E+00 0. -1.
         -1    1    6    6    0  503  0.43412408417E+03  0.89986515190E+02  0.66209499273E+03  0.79682562256E+03  0.00000000000E+00 0.  1.
<mgrwt>
<rscale>  0 0.27413032E+04</rscale>
<asrwt>0</asrwt>
<pdfrwt beam="1">  1        2 0.29462740E+00 0.27413032E+04</pdfrwt>
<pdfrwt beam="2">  1       -1 0.15092261E+00 0.27413032E+04</pdfrwt>
<totfact> 0.25429381E+00</totfact>
</mgrwt>
</event>
<event>
12    7  0.1661464E-007  0.1150112E+04  0.7818608E-02  0.9157680E-01
          2   -1    0    0  501    0  0.00000000000E+00  0.00000000000E+00  0.59449122135E+03  0.59449122135E+03  0.00000000000E+00 0. -1.
         -1   -1    0    0    0  501 -0.00000000000E+00 -0.00000000000E+00 -0.55625616722E+03  0.55625616722E+03  0.00000000000E+00 0.  1.
         24    2    1    2    0    0 -0.19521037521E+03  0.37275074042E+02 -0.42348836617E+02  0.21817982588E+03  0.79451184543E+02 0.  0.
        254    2    1    2    0    0  0.19521037521E+03 -0.37275074042E+02  0.80583890746E+02  0.93256756268E+03  0.90757477587E+03 0.  0.
         23    2    4    4    0    0 -0.18526207862E+03  0.31821686350E+03 -0.64869116850E+02  0.38462789741E+03  0.90258557235E+02 0.  0.
         23    2    4    4    0    0  0.38047245383E+03 -0.35549193754E+03  0.14545300760E+03  0.54793966528E+03  0.89148716133E+02 0.  0.
          2    1    3    3  502    0 -0.17220789308E+03  0.58384325588E+02 -0.43393522463E+02  0.18694193137E+03  0.00000000000E+00 0. -1.
         -1    1    3    3    0  502 -0.23002482127E+02 -0.21109251546E+02  0.10446858462E+01  0.31237894509E+02  0.00000000000E+00 0.  1.
         13    1    5    5    0    0 -0.11526740104E+03  0.20126433065E+03 -0.84654379112E+02  0.24690133340E+03  0.00000000000E+00 0.  1.
        -13    1    5    5    0    0 -0.69994677579E+02  0.11695253285E+03  0.19785262262E+02  0.13772656400E+03  0.00000000000E+00 0. -1.
          4    1    6    6  503    0  0.28712129617E+03 -0.29720840762E+03  0.14481943959E+03  0.43788599699E+03  0.00000000000E+00 0.  1.
         -4    1    6    6    0  503  0.93351157657E+02 -0.58283529920E+02  0.63356800884E+00  0.11005366829E+03  0.00000000000E+00 0. -1.
<mgrwt>
<rscale>  0 0.11501120E+04</rscale>
<asrwt>0</asrwt>
<pdfrwt beam="1">  1        2 0.91460188E-01 0.11501120E+04</pdfrwt>
<pdfrwt beam="2">  1       -1 0.85577872E-01 0.11501120E+04</pdfrwt>
<totfact> 0.76586446E+01</totfact>
</mgrwt>
</event>
<event>
12    7  0.1661464E-007  0.2007757E+04  0.7818608E-02  0.8603003E-01
         -1   -1    0    0    0  501 -0.00000000000E+00  0.00000000000E+00  0.17110265403E+04  0.17110265403E+04  0.00000000000E+00 0.  1.
          2   -1    0    0  501    0  0.00000000000E+00 -0.00000000000E+00 -0.58898677409E+03  0.58898677409E+03  0.00000000000E+00 0. -1.
         24    2    1    2    0    0  0.68756295217E+03  0.29769812393E+03  0.12809228082E+03  0.76424896233E+03  0.79384241697E+02 0.  0.
        254    2    1    2    0    0 -0.68756295217E+03 -0.29769812393E+03  0.99394748535E+03  0.15357643520E+04  0.89959632898E+03 0.  0.
         23    2    4    4    0    0 -0.60718922254E+03  0.20128020921E+03  0.65851153792E+03  0.92231964356E+03  0.88564127857E+02 0.  0.
         23    2    4    4    0    0 -0.80373729631E+02 -0.49897833314E+03  0.33543594743E+03  0.61344470846E+03  0.91421125270E+02 0.  0.
          4    1    3    3  502    0  0.59734544211E+03  0.22779575982E+03  0.10801519560E+03  0.64836700092E+03  0.00000000000E+00 0. -1.
         -3    1    3    3    0  502  0.90217510056E+02  0.69902364105E+02  0.20077085212E+02  0.11588196140E+03  0.00000000000E+00 0.  1.
         13    1    5    5    0    0 -0.81641355518E+02  0.45626487056E+02  0.13601524247E+03  0.16506736030E+03  0.00000000000E+00 0. -1.
        -13    1    5    5    0    0 -0.52554786702E+03  0.15565372216E+03  0.52249629545E+03  0.75725228326E+03  0.00000000000E+00 0.  1.
          1    1    6    6  503    0 -0.10034222291E+03 -0.40603373686E+03  0.28130684983E+03  0.50404910567E+03  0.00000000000E+00 0. -1.
         -1    1    6    6    0  503  0.19968493280E+02 -0.92944596278E+02  0.54129097605E+02  0.10939560278E+03  0.00000000000E+00 0.  1.
<mgrwt>
<rscale>  0 0.20077570E+04</rscale>
<asrwt>0</asrwt>
<pdfrwt beam="1">  1        2 0.90613351E-01 0.20077570E+04</pdfrwt>
<pdfrwt beam="2">  1       -1 0.26323485E+00 0.20077570E+04</pdfrwt>
<totfact> 0.30747408E+00</totfact>
</mgrwt>
</event>
<event>
12    7  0.1968270E-007  0.2857056E+04  0.7818608E-02  0.8285770E-01
         -1   -1    0    0    0  501 -0.00000000000E+00  0.00000000000E+00  0.92783739250E+03  0.92783739250E+03  0.00000000000E+00 0.  1.
          2   -1    0    0  501    0  0.00000000000E+00 -0.00000000000E+00 -0.21994079679E+04  0.21994079679E+04  0.00000000000E+00 0. -1.
         24    2    1    2    0    0 -0.89147266236E+01 -0.76494557834E+02 -0.19821774360E+04  0.19853746075E+04  0.82183056206E+02 0.  0.
        254    2    1    2    0    0  0.89147266236E+01  0.76494557834E+02  0.71060686063E+03  0.11418707528E+04  0.89049189556E+03 0.  0.
         23    2    4    4    0    0 -0.36964558831E+03  0.13615264133E+03  0.61637717040E+03  0.73740308974E+03  0.93097249503E+02 0.  0.
         23    2    4    4    0    0  0.37856031494E+03 -0.59658083500E+02  0.94229690233E+02  0.40446766309E+03  0.88588131225E+02 0.  0.
          2    1    3    3  502    0 -0.30849651495E+02 -0.69324345378E+02 -0.18180476453E+04  0.18196304038E+04  0.00000000000E+00 0. -1.
         -1    1    3    3    0  502  0.21934924871E+02 -0.71702124558E+01 -0.16412979068E+03  0.16574420372E+03  0.00000000000E+00 0.  1.
         13    1    5    5    0    0 -0.31241179691E+03  0.14417980899E+03  0.49343094046E+03  0.60155053086E+03  0.00000000000E+00 0. -1.
        -13    1    5    5    0    0 -0.57233791398E+02 -0.80271676551E+01  0.12294622993E+03  0.13585255888E+03  0.00000000000E+00 0.  1.
          2    1    6    6  503    0  0.31857415439E+03 -0.77390754091E+02  0.96894379437E+02  0.34185865710E+03  0.00000000000E+00 0. -1.
         -2    1    6    6    0  503  0.59986160546E+02  0.17732670591E+02 -0.26646892042E+01  0.62609005997E+02  0.00000000000E+00 0.  1.
<mgrwt>
<rscale>  0 0.28570565E+04</rscale>
<asrwt>0</asrwt>
<pdfrwt beam="1">  1        2 0.33837045E+00 0.28570565E+04</pdfrwt>
<pdfrwt beam="2">  1       -1 0.14274422E+00 0.28570565E+04</pdfrwt>
<totfact> 0.20271192E+00</totfact>
</mgrwt>
</event>
<event>
12    7  0.1661464E-007  0.2087896E+04  0.7818608E-02  0.8566594E-01
          2   -1    0    0  501    0  0.00000000000E+00  0.00000000000E+00  0.27619302296E+04  0.27619302296E+04  0.00000000000E+00 0. -1.
         -1   -1    0    0    0  501 -0.00000000000E+00 -0.00000000000E+00 -0.39458912180E+03  0.39458912180E+03  0.00000000000E+00 0.  1.
         24    2    1    2    0    0 -0.31916581637E+02  0.66448282081E+03  0.17492798917E+03  0.69236781431E+03  0.78849867278E+02 0.  0.
        254    2    1    2    0    0  0.31916581637E+02 -0.66448282081E+03  0.21924131186E+04  0.24641515371E+04  0.90708953673E+03 0.  0.
         23    2    4    4    0    0  0.41265284922E+03 -0.15012066866E+03  0.63094613745E+03  0.77421689067E+03  0.92196400729E+02 0.  0.
         23    2    4    4    0    0 -0.38073626758E+03 -0.51436215215E+03  0.15614669811E+04  0.16899346464E+04  0.90396055409E+02 0.  0.
          4    1    3    3  502    0 -0.73840098804E+01  0.44926445367E+02 -0.72810727511E+01  0.46107733795E+02  0.00000000000E+00 0. -1.
         -3    1    3    3    0  502 -0.24532571757E+02  0.61955637544E+03  0.18220906192E+03  0.64626008052E+03  0.00000000000E+00 0.  1.
         13    1    5    5    0    0  0.22790118419E+03 -0.80299106887E+02  0.42488461847E+03  0.48878812929E+03  0.00000000000E+00 0. -1.
        -13    1    5    5    0    0  0.18475166503E+03 -0.69821561771E+02  0.20606151899E+03  0.28542876139E+03  0.00000000000E+00 0.  1.
          3    1    6    6  503    0 -0.23213487104E+03 -0.23996776752E+03  0.77831468212E+03  0.84690310674E+03  0.00000000000E+00 0. -1.
         -3    1    6    6    0  503 -0.14860139654E+03 -0.27439438463E+03  0.78315229903E+03  0.84303153965E+03  0.00000000000E+00 0.  1.
<mgrwt>
<rscale>  0 0.20878962E+04</rscale>
<asrwt>0</asrwt>
<pdfrwt beam="1">  1        2 0.42491233E+00 0.20878962E+04</pdfrwt>
<pdfrwt beam="2">  1       -1 0.60706021E-01 0.20878962E+04</pdfrwt>
<totfact> 0.70507950E+00</totfact>
</mgrwt>
</event>
<event>
12    7  0.1661464E-007  0.1613427E+04  0.7818608E-02  0.8812341E-01
         -1   -1    0    0    0  501 -0.00000000000E+00  0.00000000000E+00  0.27825535317E+03  0.27825535317E+03  0.00000000000E+00 0.  1.
          2   -1    0    0  501    0  0.00000000000E+00 -0.00000000000E+00 -0.23388112847E+04  0.23388112847E+04  0.00000000000E+00 0. -1.
         24    2    1    2    0    0 -0.33002893298E+03  0.18947565854E+03 -0.57177969206E+02  0.39246244755E+03  0.77054077072E+02 0.  0.
        254    2    1    2    0    0  0.33002893298E+03 -0.18947565854E+03 -0.20033779623E+04  0.22246041903E+04  0.88911215372E+03 0.  0.
         23    2    4    4    0    0  0.28488750099E+03 -0.46456290454E+03 -0.17570104158E+04  0.18416611068E+04  0.87466853770E+02 0.  0.
         23    2    4    4    0    0  0.45141431984E+02  0.27508724600E+03 -0.24636754653E+03  0.38294308354E+03  0.90761751073E+02 0.  0.
          4    1    3    3  502    0 -0.40837255139E+02  0.55045564880E+02 -0.41685370246E+00  0.68541005152E+02  0.00000000000E+00 0. -1.
         -3    1    3    3    0  502 -0.28919167784E+03  0.13443009366E+03 -0.56761115504E+02  0.32392144240E+03  0.00000000000E+00 0.  1.
         13    1    5    5    0    0  0.18155581502E+03 -0.35161163570E+03 -0.11745813845E+04  0.12394493476E+04  0.00000000000E+00 0.  1.
        -13    1    5    5    0    0  0.10333168598E+03 -0.11295126884E+03 -0.58242903124E+03  0.60221175918E+03  0.00000000000E+00 0. -1.
          1    1    6    6  503    0 -0.17482963395E+02  0.79112394536E+02 -0.35886703320E+02  0.88613094142E+02  0.00000000000E+00 0. -1.
         -1    1    6    6    0  503  0.62624395379E+02  0.19597485146E+03 -0.21048084321E+03  0.29432998940E+03  0.00000000000E+00 0.  1.
<mgrwt>
<rscale>  0 0.16134271E+04</rscale>
<asrwt>0</asrwt>
<pdfrwt beam="1">  1        2 0.35981714E+00 0.16134271E+04</pdfrwt>
<pdfrwt beam="2">  1       -1 0.42808513E-01 0.16134271E+04</pdfrwt>
<totfact> 0.25297204E+01</totfact>
</mgrwt>
</event>
<event>
12    7  0.1661464E-007  0.1498159E+04  0.7818608E-02  0.8885678E-01
          2   -1    0    0  501    0  0.00000000000E+00  0.00000000000E+00  0.13377255071E+04  0.13377255071E+04  0.00000000000E+00 0. -1.
         -1   -1    0    0    0  501 -0.00000000000E+00 -0.00000000000E+00 -0.41945819003E+03  0.41945819003E+03  0.00000000000E+00 0.  1.
         24    2    1    2    0    0  0.16573641543E+03 -0.11881011354E+03  0.80654491126E+03  0.83899397480E+03  0.10868207483E+03 0.  0.
        254    2    1    2    0    0 -0.16573641543E+03  0.11881011354E+03  0.11172240581E+03  0.91818972233E+03  0.88826013518E+03 0.  0.
         23    2    4    4    0    0 -0.19253037172E+03 -0.19985585590E+03  0.39000096122E+03  0.48639474626E+03  0.86422174615E+02 0.  0.
         23    2    4    4    0    0  0.26793956289E+02  0.31866596944E+03 -0.27827855542E+03  0.43179497606E+03  0.82109870128E+02 0.  0.
          2    1    3    3  502    0  0.12520905993E+03 -0.25121231899E+02  0.49178806819E+03  0.50809830642E+03  0.00000000000E+00 0. -1.
         -1    1    3    3    0  502  0.40527355501E+02 -0.93688881640E+02  0.31475684307E+03  0.33089566837E+03  0.00000000000E+00 0.  1.
         13    1    5    5    0    0  0.65489314789E+01  0.16717892752E+01  0.14754627980E+02  0.16229061271E+02  0.00000000000E+00 0. -1.
        -13    1    5    5    0    0 -0.19907930319E+03 -0.20152764518E+03  0.37524633324E+03  0.47016568499E+03  0.00000000000E+00 0.  1.
          2    1    6    6  503    0  0.49022866765E+02  0.19606591676E+03 -0.20177407832E+03  0.28558337463E+03  0.00000000000E+00 0. -1.
         -2    1    6    6    0  503 -0.22228910476E+02  0.12260005268E+03 -0.76504477100E+02  0.14621160144E+03  0.00000000000E+00 0.  1.
<mgrwt>
<rscale>  0 0.14981588E+04</rscale>
<asrwt>0</asrwt>
<pdfrwt beam="1">  1        2 0.20580392E+00 0.14981588E+04</pdfrwt>
<pdfrwt beam="2">  1       -1 0.64532030E-01 0.14981588E+04</pdfrwt>
<totfact> 0.42152928E+01</totfact>
</mgrwt>
</event>
<event>
12    7  0.1661464E-007  0.2639404E+04  0.7818608E-02  0.8354938E-01
         -1   -1    0    0    0  501 -0.00000000000E+00  0.00000000000E+00  0.88557427783E+03  0.88557427783E+03  0.00000000000E+00 0.  1.
          2   -1    0    0  501    0  0.00000000000E+00 -0.00000000000E+00 -0.19666487998E+04  0.19666487998E+04  0.00000000000E+00 0. -1.
         24    2    1    2    0    0 -0.36168363541E+03 -0.33007947337E+03 -0.16264646790E+04  0.17004555124E+04  0.79963033407E+02 0.  0.
        254    2    1    2    0    0  0.36168363541E+03  0.33007947337E+03  0.54539015703E+03  0.11517675652E+04  0.88845404502E+03 0.  0.
         23    2    4    4    0    0  0.49285037212E+03  0.39856599496E+03  0.67767733859E+03  0.93318103745E+03  0.99115749383E+02 0.  0.
         23    2    4    4    0    0 -0.13116673672E+03 -0.68486521593E+02 -0.13228718157E+03  0.21858652780E+03  0.91569947399E+02 0.  0.
          4    1    3    3  502    0 -0.33707793294E+03 -0.29653068338E+03 -0.15460738218E+04  0.16099367197E+04  0.00000000000E+00 0. -1.
         -3    1    3    3    0  502 -0.24605702466E+02 -0.33548789987E+02 -0.80390857181E+02  0.90518792644E+02  0.00000000000E+00 0.  1.
         13    1    5    5    0    0  0.55290027047E+02  0.12333937462E+02  0.44397420817E+02  0.71973912492E+02  0.00000000000E+00 0.  1.
        -13    1    5    5    0    0  0.43756034507E+03  0.38623205750E+03  0.63327991777E+03  0.86120712496E+03  0.00000000000E+00 0. -1.
          1    1    6    6  503    0 -0.59015541563E+02 -0.76312490633E+02 -0.49284308969E+02  0.10832992884E+03  0.00000000000E+00 0. -1.
         -1    1    6    6    0  503 -0.72151195152E+02  0.78259690396E+01 -0.83002872596E+02  0.11025659895E+03  0.00000000000E+00 0.  1.
<mgrwt>
<rscale>  0 0.26394042E+04</rscale>
<asrwt>0</asrwt>
<pdfrwt beam="1">  1        2 0.30256135E+00 0.26394042E+04</pdfrwt>
<pdfrwt beam="2">  1       -1 0.13624220E+00 0.26394042E+04</pdfrwt>
<totfact> 0.31471391E+00</totfact>
</mgrwt>
</event>
<event>
12    7  0.1661464E-007  0.2323854E+04  0.7818608E-02  0.8468575E-01
         -1   -1    0    0    0  501 -0.00000000000E+00  0.00000000000E+00  0.92669561482E+03  0.92669561482E+03  0.00000000000E+00 0.  1.
          2   -1    0    0  501    0  0.00000000000E+00 -0.00000000000E+00 -0.14568691322E+04  0.14568691322E+04  0.00000000000E+00 0. -1.
         24    2    1    2    0    0  0.42775036843E+02  0.79152054060E+03 -0.82586910785E+03  0.11474432836E+04  0.78941977971E+02 0.  0.
        254    2    1    2    0    0 -0.42775036843E+02 -0.79152054060E+03  0.29569559050E+03  0.12361214634E+04  0.90123577379E+03 0.  0.
         23    2    4    4    0    0 -0.23704663578E+03 -0.83347975468E+03  0.41284517252E+01  0.87137373863E+03  0.91627175322E+02 0.  0.
         23    2    4    4    0    0  0.19427159894E+03  0.41959214084E+02  0.29156713878E+03  0.36474772473E+03  0.92344336468E+02 0.  0.
          2    1    3    3  502    0 -0.98494565285E+01  0.51595032962E+03 -0.53635670943E+03  0.74429851147E+03  0.00000000000E+00 0. -1.
         -1    1    3    3    0  502  0.52624493371E+02  0.27557021097E+03 -0.28951239842E+03  0.40314477216E+03  0.00000000000E+00 0.  1.
         13    1    5    5    0    0 -0.99336871374E+02 -0.45836030675E+03  0.36798292072E+02  0.47044245038E+03  0.00000000000E+00 0.  1.
        -13    1    5    5    0    0 -0.13770976440E+03 -0.37511944793E+03 -0.32669840346E+02  0.40093128825E+03  0.00000000000E+00 0. -1.
          3    1    6    6  503    0  0.11959565855E+03  0.68045665795E+02  0.15801735661E+03  0.20952999587E+03  0.00000000000E+00 0. -1.
         -3    1    6    6    0  503  0.74675940384E+02 -0.26086451711E+02  0.13354978216E+03  0.15521772886E+03  0.00000000000E+00 0.  1.
<mgrwt>
<rscale>  0 0.23238539E+04</rscale>
<asrwt>0</asrwt>
<pdfrwt beam="1">  1        2 0.22413371E+00 0.23238539E+04</pdfrwt>
<pdfrwt beam="2">  1       -1 0.14256856E+00 0.23238539E+04</pdfrwt>
<totfact> 0.55317692E+00</totfact>
</mgrwt>
</event>
<event>
12    7  0.1661464E-007  0.1389348E+04  0.7818608E-02  0.8961565E-01
          2   -1    0    0  501    0  0.00000000000E+00  0.00000000000E+00  0.10420427901E+04  0.10420427901E+04  0.00000000000E+00 0. -1.
         -1   -1    0    0    0  501 -0.00000000000E+00 -0.00000000000E+00 -0.46310178225E+03  0.46310178225E+03  0.00000000000E+00 0.  1.
         24    2    1    2    0    0  0.27148995032E+03  0.14895302327E+03  0.41446212595E+03  0.52385919502E+03  0.82193710818E+02 0.  0.
        254    2    1    2    0    0 -0.27148995032E+03 -0.14895302327E+03  0.16447888192E+03  0.98128537735E+03  0.91650089631E+03 0.  0.
         23    2    4    4    0    0 -0.21368656343E+03 -0.27012831252E+03 -0.31489416492E+03  0.47535437014E+03  0.90400163143E+02 0.  0.
         23    2    4    4    0    0 -0.57803386890E+02  0.12117528925E+03  0.47937304684E+03  0.50593100721E+03  0.90238482679E+02 0.  0.
          2    1    3    3  502    0  0.26505128777E+03  0.12096181801E+03  0.37023690338E+03  0.47112557900E+03  0.00000000000E+00 0. -1.
         -1    1    3    3    0  502  0.64386625519E+01  0.27991205268E+02  0.44225222565E+02  0.52733616022E+02  0.00000000000E+00 0.  1.
         13    1    5    5    0    0 -0.37114019194E+02 -0.10454154005E+02 -0.15739323565E+02  0.41646921410E+02  0.00000000000E+00 0. -1.
        -13    1    5    5    0    0 -0.17657254424E+03 -0.25967415852E+03 -0.29915484135E+03  0.43370744873E+03  0.00000000000E+00 0.  1.
          2    1    6    6  503    0  0.17671735117E+02  0.19607387739E+02  0.16412914527E+03  0.16623813101E+03  0.00000000000E+00 0. -1.
         -2    1    6    6    0  503 -0.75475122007E+02  0.10156790151E+03  0.31524390157E+03  0.33969287619E+03  0.00000000000E+00 0.  1.
<mgrwt>
<rscale>  0 0.13893479E+04</rscale>
<asrwt>0</asrwt>
<pdfrwt beam="1">  1        2 0.16031428E+00 0.13893479E+04</pdfrwt>
<pdfrwt beam="2">  1       -1 0.71246428E-01 0.13893479E+04</pdfrwt>
<totfact> 0.52356202E+01</totfact>
</mgrwt>
</event>
<event>
12    7  0.1661464E-007  0.2135819E+04  0.7818608E-02  0.8545627E-01
          2   -1    0    0  501    0  0.00000000000E+00  0.00000000000E+00  0.82825247482E+03  0.82825247482E+03  0.00000000000E+00 0. -1.
         -1   -1    0    0    0  501 -0.00000000000E+00 -0.00000000000E+00 -0.13769123869E+04  0.13769123869E+04  0.00000000000E+00 0.  1.
         24    2    1    2    0    0  0.65493064869E+03  0.55777098697E+03 -0.40338713976E+02  0.86487025735E+03  0.79565832552E+02 0.  0.
        254    2    1    2    0    0 -0.65493064869E+03 -0.55777098697E+03 -0.50832119813E+03  0.13402946044E+04  0.89328414159E+03 0.  0.
         23    2    4    4    0    0  0.39947381672E+02 -0.52793220789E+03 -0.18874746143E+03  0.56937119254E+03  0.90828086317E+02 0.  0.
         23    2    4    4    0    0 -0.69487803036E+03 -0.29838779082E+02 -0.31957373670E+03  0.77092341187E+03  0.91922271299E+02 0.  0.
          2    1    3    3  502    0  0.51101317457E+03  0.44472626282E+03 -0.63504906658E+02  0.68040339990E+03  0.00000000000E+00 0. -1.
         -1    1    3    3    0  502  0.14391747412E+03  0.11304472415E+03  0.23166192682E+02  0.18446685745E+03  0.00000000000E+00 0.  1.
         13    1    5    5    0    0 -0.16296888185E+02 -0.15129743870E+03 -0.86639760640E+02  0.17510839970E+03  0.00000000000E+00 0. -1.
        -13    1    5    5    0    0  0.56244269858E+02 -0.37663476919E+03 -0.10210770079E+03  0.39426279284E+03  0.00000000000E+00 0.  1.
          1    1    6    6  503    0 -0.11387682239E+03  0.15962366695E+02 -0.24061744564E+02  0.11748061703E+03  0.00000000000E+00 0. -1.
         -1    1    6    6    0  503 -0.58100120797E+03 -0.45801145777E+02 -0.29551199214E+03  0.65344279483E+03  0.00000000000E+00 0.  1.
<mgrwt>
<rscale>  0 0.21358194E+04</rscale>
<asrwt>0</asrwt>
<pdfrwt beam="1">  1        2 0.12742346E+00 0.21358194E+04</pdfrwt>
<pdfrwt beam="2">  1       -1 0.21183267E+00 0.21358194E+04</pdfrwt>
<totfact> 0.43057745E+00</totfact>
</mgrwt>
</event>
<event>
12    7  0.1661464E-007  0.2268803E+04  0.7818608E-02  0.8490324E-01
          2   -1    0    0  501    0  0.00000000000E+00  0.00000000000E+00  0.10877127471E+04  0.10877127471E+04  0.00000000000E+00 0. -1.
         -1   -1    0    0    0  501 -0.00000000000E+00 -0.00000000000E+00 -0.11830946119E+04  0.11830946119E+04  0.00000000000E+00 0.  1.
         24    2    1    2    0    0 -0.33936494608E+03 -0.77640440620E+03  0.39777252864E+03  0.93939940864E+03  0.79220551763E+02 0.  0.
        254    2    1    2    0    0  0.33936494608E+03  0.77640440620E+03 -0.49315439341E+03  0.13314079503E+04  0.90081824243E+03 0.  0.
         23    2    4    4    0    0  0.43068961541E+03  0.49318810932E+02 -0.38096598751E+03  0.58447001160E+03  0.92434954923E+02 0.  0.
         23    2    4    4    0    0 -0.91324669325E+02  0.72708559526E+03 -0.11218840590E+03  0.74693793874E+03  0.91303821588E+02 0.  0.
          2    1    3    3  502    0 -0.28178895744E+03 -0.68989218211E+03  0.32788485578E+03  0.81416504354E+03  0.00000000000E+00 0. -1.
         -1    1    3    3    0  502 -0.57575988642E+02 -0.86512224088E+02  0.69887672856E+02  0.12523436510E+03  0.00000000000E+00 0.  1.
         13    1    5    5    0    0  0.83742950807E+02  0.29819686734E+02 -0.12267200697E+03  0.15149427983E+03  0.00000000000E+00 0. -1.
        -13    1    5    5    0    0  0.34694666460E+03  0.19499124199E+02 -0.25829398054E+03  0.43297573177E+03  0.00000000000E+00 0.  1.
          4    1    6    6  503    0 -0.64772807249E+02  0.25395795610E+03 -0.10620186112E+02  0.26230316121E+03  0.00000000000E+00 0. -1.
         -4    1    6    6    0  503 -0.26551862076E+02  0.47312763916E+03 -0.10156821979E+03  0.48463477753E+03  0.00000000000E+00 0.  1.
<mgrwt>
<rscale>  0 0.22688033E+04</rscale>
<asrwt>0</asrwt>
<pdfrwt beam="1">  1        2 0.16734042E+00 0.22688033E+04</pdfrwt>
<pdfrwt beam="2">  1       -1 0.18201456E+00 0.22688033E+04</pdfrwt>
<totfact> 0.46252949E+00</totfact>
</mgrwt>
</event>
<event>
12    7  0.1661464E-007  0.1603040E+04  0.7818608E-02  0.8818683E-01
         -1   -1    0    0    0  501 -0.00000000000E+00  0.00000000000E+00  0.31747481801E+03  0.31747481801E+03  0.00000000000E+00 0.  1.
          2   -1    0    0  501    0  0.00000000000E+00 -0.00000000000E+00 -0.20235754520E+04  0.20235754520E+04  0.00000000000E+00 0. -1.
         24    2    1    2    0    0  0.62751960728E+01 -0.35269236374E+03 -0.12133228179E+04  0.12660969956E+04  0.80112797074E+02 0.  0.
        254    2    1    2    0    0 -0.62751960728E+01  0.35269236374E+03 -0.49277781604E+03  0.10749532744E+04  0.88784192546E+03 0.  0.
         23    2    4    4    0    0  0.87598758315E+02  0.34386184442E+03 -0.72199629323E+03  0.80963411568E+03  0.91182472658E+02 0.  0.
         23    2    4    4    0    0 -0.93873954388E+02  0.88305193171E+01  0.22921847719E+03  0.26531915871E+03  0.94672320709E+02 0.  0.
          2    1    3    3  502    0 -0.78877713853E+01 -0.27518520526E+03 -0.10379366214E+04  0.10738256581E+04  0.00000000000E+00 0. -1.
         -1    1    3    3    0  502  0.14162967458E+02 -0.77507158476E+02 -0.17538619656E+03  0.19227133745E+03  0.00000000000E+00 0.  1.
         13    1    5    5    0    0  0.97948938536E+02  0.21451077953E+03 -0.49074159956E+03  0.54445953627E+03  0.00000000000E+00 0. -1.
        -13    1    5    5    0    0 -0.10350180221E+02  0.12935106489E+03 -0.23125469367E+03  0.26517457940E+03  0.00000000000E+00 0.  1.
          4    1    6    6  503    0 -0.73182877955E+02  0.49112894570E+02  0.14452684716E+03  0.16928029888E+03  0.00000000000E+00 0. -1.
         -4    1    6    6    0  503 -0.20691076433E+02 -0.40282375253E+02  0.84691630027E+02  0.96038859825E+02  0.00000000000E+00 0.  1.
<mgrwt>
<rscale>  0 0.16030399E+04</rscale>
<asrwt>0</asrwt>
<pdfrwt beam="1">  1        2 0.31131930E+00 0.16030399E+04</pdfrwt>
<pdfrwt beam="2">  1       -1 0.48842279E-01 0.16030399E+04</pdfrwt>
<totfact> 0.29715578E+01</totfact>
</mgrwt>
</event>
<event>
12    7  0.1661464E-007  0.2050166E+04  0.7818608E-02  0.8583519E-01
          2   -1    0    0  501    0  0.00000000000E+00  0.00000000000E+00  0.16512658249E+04  0.16512658249E+04  0.00000000000E+00 0. -1.
         -1   -1    0    0    0  501 -0.00000000000E+00 -0.00000000000E+00 -0.63635706678E+03  0.63635706678E+03  0.00000000000E+00 0.  1.
         24    2    1    2    0    0  0.52310843647E+03 -0.90339878995E+02  0.11601537967E+04  0.12784867091E+04  0.82266053038E+02 0.  0.
        254    2    1    2    0    0 -0.52310843647E+03  0.90339878995E+02 -0.14524503850E+03  0.10091361826E+04  0.84584631212E+03 0.  0.
         23    2    4    4    0    0 -0.57137424468E+03 -0.51593815855E+02 -0.39434363085E+03  0.70206032919E+03  0.90836982024E+02 0.  0.
         23    2    4    4    0    0  0.48265808213E+02  0.14193369485E+03  0.24909859235E+03  0.30707585339E+03  0.98846897000E+02 0.  0.
          2    1    3    3  502    0  0.39871078692E+03 -0.41244928194E+02  0.92175838346E+03  0.10051417578E+04  0.00000000000E+00 0. -1.
         -1    1    3    3    0  502  0.12439764955E+03 -0.49094950801E+02  0.23839541319E+03  0.27334495137E+03  0.00000000000E+00 0.  1.
         13    1    5    5    0    0 -0.41844765257E+03 -0.77763540493E+02 -0.28368141664E+03  0.51148876070E+03  0.00000000000E+00 0.  1.
        -13    1    5    5    0    0 -0.15292659211E+03  0.26169724638E+02 -0.11066221421E+03  0.19057156849E+03  0.00000000000E+00 0. -1.
          2    1    6    6  503    0  0.52163005043E+02  0.18012912102E+02  0.67447147298E+02  0.87146782936E+02  0.00000000000E+00 0. -1.
         -2    1    6    6    0  503 -0.38971968303E+01  0.12392078275E+03  0.18165144505E+03  0.21992907045E+03  0.00000000000E+00 0.  1.
<mgrwt>
<rscale>  0 0.20501655E+04</rscale>
<asrwt>0</asrwt>
<pdfrwt beam="1">  1        2 0.25404089E+00 0.20501655E+04</pdfrwt>
<pdfrwt beam="2">  1       -1 0.97901088E-01 0.20501655E+04</pdfrwt>
<totfact> 0.11006512E+01</totfact>
</mgrwt>
</event>
<event>
12    7  0.1661464E-007  0.1459707E+04  0.7818608E-02  0.8911699E-01
         -1   -1    0    0    0  501 -0.00000000000E+00  0.00000000000E+00  0.33237505456E+03  0.33237505456E+03  0.00000000000E+00 0.  1.
          2   -1    0    0  501    0  0.00000000000E+00 -0.00000000000E+00 -0.16026648204E+04  0.16026648204E+04  0.00000000000E+00 0. -1.
         24    2    1    2    0    0  0.24115194978E+03 -0.30771934621E+03 -0.67711627828E+03  0.78598825297E+03  0.80284622280E+02 0.  0.
        254    2    1    2    0    0 -0.24115194978E+03  0.30771934621E+03 -0.59317348759E+03  0.11490516220E+04  0.90311648460E+03 0.  0.
         23    2    4    4    0    0  0.66215722282E+02 -0.26587152889E+03 -0.33870422409E+03  0.44475307127E+03  0.89512855160E+02 0.  0.
         23    2    4    4    0    0 -0.30736767206E+03  0.57359087510E+03 -0.25446926351E+03  0.70429855075E+03  0.88320239408E+02 0.  0.
          2    1    3    3  502    0  0.12826079012E+03 -0.20588812123E+03 -0.35712231570E+03  0.43171413819E+03  0.00000000000E+00 0. -1.
         -1    1    3    3    0  502  0.11289115966E+03 -0.10183122499E+03 -0.31999396258E+03  0.35427411478E+03  0.00000000000E+00 0.  1.
         13    1    5    5    0    0  0.75363709786E+02 -0.11794366903E+03 -0.16934049475E+03  0.21969661121E+03  0.00000000000E+00 0. -1.
        -13    1    5    5    0    0 -0.91479875039E+01 -0.14792785986E+03 -0.16936372934E+03  0.22505646006E+03  0.00000000000E+00 0.  1.
          4    1    6    6  503    0 -0.31353179459E+03  0.56471024507E+03 -0.25034215883E+03  0.69272725051E+03  0.00000000000E+00 0. -1.
         -4    1    6    6    0  503  0.61641225282E+01  0.88806300272E+01 -0.41271046804E+01  0.11571300241E+02  0.00000000000E+00 0.  1.
<mgrwt>
<rscale>  0 0.14597066E+04</rscale>
<asrwt>0</asrwt>
<pdfrwt beam="1">  1        2 0.24656382E+00 0.14597066E+04</pdfrwt>
<pdfrwt beam="2">  1       -1 0.51134623E-01 0.14597066E+04</pdfrwt>
<totfact> 0.47182781E+01</totfact>
</mgrwt>
</event>
<event>
12    7  0.1661464E-007  0.1486516E+04  0.7818608E-02  0.8893469E-01
          2   -1    0    0  501    0  0.00000000000E+00  0.00000000000E+00  0.35107472838E+03  0.35107472838E+03  0.00000000000E+00 0. -1.
         -1   -1    0    0    0  501 -0.00000000000E+00 -0.00000000000E+00 -0.15735473192E+04  0.15735473192E+04  0.00000000000E+00 0.  1.
         24    2    1    2    0    0  0.23096024944E+03  0.44677375823E+02  0.13332257757E+03  0.28209511725E+03  0.80399258415E+02 0.  0.
        254    2    1    2    0    0 -0.23096024944E+03 -0.44677375823E+02 -0.13557951684E+04  0.16425269304E+04  0.89686981970E+03 0.  0.
         23    2    4    4    0    0 -0.38297262729E+03  0.33144017289E+02 -0.13919548924E+04  0.14470163020E+04  0.92472681176E+02 0.  0.
         23    2    4    4    0    0  0.15201237785E+03 -0.77821393112E+02  0.36159723956E+02  0.19551062833E+03  0.88050825696E+02 0.  0.
          2    1    3    3  502    0  0.14670463599E+03  0.52954832365E+02  0.11911052344E+03  0.19624928353E+03  0.00000000000E+00 0. -1.
         -1    1    3    3    0  502  0.84255613452E+02 -0.82774565419E+01  0.14212054137E+02  0.85845833724E+02  0.00000000000E+00 0.  1.
         13    1    5    5    0    0 -0.22461503285E+03  0.35551493894E+02 -0.97045516497E+03  0.99674422442E+03  0.00000000000E+00 0. -1.
        -13    1    5    5    0    0 -0.15835759445E+03 -0.24074766048E+01 -0.42149972743E+03  0.45027207762E+03  0.00000000000E+00 0.  1.
          4    1    6    6  503    0  0.69279284277E+02 -0.42970148473E+02  0.61625402959E+02  0.10219463381E+03  0.00000000000E+00 0. -1.
         -4    1    6    6    0  503  0.82733093576E+02 -0.34851244639E+02 -0.25465679003E+02  0.93315994517E+02  0.00000000000E+00 0.  1.
<mgrwt>
<rscale>  0 0.14865163E+04</rscale>
<asrwt>0</asrwt>
<pdfrwt beam="1">  1        2 0.54011497E-01 0.14865163E+04</pdfrwt>
<pdfrwt beam="2">  1       -1 0.24208420E+00 0.14865163E+04</pdfrwt>
<totfact> 0.80121043E+00</totfact>
</mgrwt>
</event>
<event>
12    7  0.1661464E-007  0.2029613E+04  0.7818608E-02  0.8592900E-01
         -1   -1    0    0    0  501 -0.00000000000E+00  0.00000000000E+00  0.77779894891E+03  0.77779894891E+03  0.00000000000E+00 0.  1.
          2   -1    0    0  501    0  0.00000000000E+00 -0.00000000000E+00 -0.13240337999E+04  0.13240337999E+04  0.00000000000E+00 0. -1.
         24    2    1    2    0    0 -0.83321330974E+02  0.80928987282E+03 -0.19521955418E+03  0.84057847698E+03  0.81049115911E+02 0.  0.
        254    2    1    2    0    0  0.83321330974E+02 -0.80928987282E+03 -0.35101529684E+03  0.12612542718E+04  0.89758456827E+03 0.  0.
         23    2    4    4    0    0  0.40960242322E+03 -0.24261006279E+03  0.52525184284E+02  0.48749563558E+03  0.90880757313E+02 0.  0.
         23    2    4    4    0    0 -0.32628109224E+03 -0.56667981003E+03 -0.40354048112E+03  0.77375863627E+03  0.90951355397E+02 0.  0.
          2    1    3    3  502    0 -0.81123878161E+02  0.50754645670E+03 -0.95566898250E+02  0.52279778248E+03  0.00000000000E+00 0. -1.
         -1    1    3    3    0  502 -0.21974528132E+01  0.30174341612E+03 -0.99652655926E+02  0.31778069451E+03  0.00000000000E+00 0.  1.
         13    1    5    5    0    0  0.33109409924E+03 -0.17994769577E+03  0.62181928819E+01  0.37688611236E+03  0.00000000000E+00 0. -1.
        -13    1    5    5    0    0  0.78508323975E+02 -0.62662367018E+02  0.46306991402E+02  0.11060952322E+03  0.00000000000E+00 0.  1.
          1    1    6    6  503    0 -0.32178171983E+03 -0.51879345311E+03 -0.38738991413E+03  0.72302217655E+03  0.00000000000E+00 0. -1.
         -1    1    6    6    0  503 -0.44993724089E+01 -0.47886356917E+02 -0.16150566989E+02  0.50736459720E+02  0.00000000000E+00 0.  1.
<mgrwt>
<rscale>  0 0.20296129E+04</rscale>
<asrwt>0</asrwt>
<pdfrwt beam="1">  1        2 0.20369751E+00 0.20296129E+04</pdfrwt>
<pdfrwt beam="2">  1       -1 0.11966138E+00 0.20296129E+04</pdfrwt>
<totfact> 0.10542239E+01</totfact>
</mgrwt>
</event>
<event>
12    7  0.1661464E-007  0.2337998E+04  0.7818608E-02  0.8463088E-01
         -1   -1    0    0    0  501 -0.00000000000E+00  0.00000000000E+00  0.77267450852E+03  0.77267450852E+03  0.00000000000E+00 0.  1.
          2   -1    0    0  501    0  0.00000000000E+00 -0.00000000000E+00 -0.17686084591E+04  0.17686084591E+04  0.00000000000E+00 0. -1.
         24    2    1    2    0    0 -0.65888911049E+03 -0.10342061535E+03 -0.12162164232E+04  0.13894903272E+04  0.81671890371E+02 0.  0.
        254    2    1    2    0    0  0.65888911049E+03  0.10342061535E+03  0.22028247264E+03  0.11517926404E+04  0.91283691598E+03 0.  0.
         23    2    4    4    0    0 -0.16907684206E+03  0.17483907302E+03  0.17819501436E+03  0.31499936000E+03  0.91189109458E+02 0.  0.
         23    2    4    4    0    0  0.82796595255E+03 -0.71418457671E+02  0.42087458285E+02  0.83679328041E+03  0.88450129053E+02 0.  0.
          2    1    3    3  502    0 -0.64997664354E+03 -0.97664148277E+02 -0.11691040915E+04  0.13411980837E+04  0.00000000000E+00 0. -1.
         -1    1    3    3    0  502 -0.89124669415E+01 -0.57564670758E+01 -0.47112331731E+02  0.48292243491E+02  0.00000000000E+00 0.  1.
         13    1    5    5    0    0 -0.13678258877E+03  0.86193448558E+02  0.13755432215E+03  0.21227335845E+03  0.00000000000E+00 0. -1.
        -13    1    5    5    0    0 -0.32294253290E+02  0.88645624465E+02  0.40640692212E+02  0.10272600156E+03  0.00000000000E+00 0.  1.
          3    1    6    6  503    0  0.15302450992E+02  0.62814121504E+01 -0.89915062392E+01  0.18827329323E+02  0.00000000000E+00 0.  1.
         -3    1    6    6    0  503  0.81266350155E+03 -0.77699869821E+02  0.51078964524E+02  0.81796595109E+03  0.00000000000E+00 0. -1.
<mgrwt>
<rscale>  0 0.23379980E+04</rscale>
<asrwt>0</asrwt>
<pdfrwt beam="1">  1        2 0.27209361E+00 0.23379980E+04</pdfrwt>
<pdfrwt beam="2">  1       -1 0.11887300E+00 0.23379980E+04</pdfrwt>
<totfact> 0.58555999E+00</totfact>
</mgrwt>
</event>
<event>
12    7  0.1661464E-007  0.1976874E+04  0.7818608E-02  0.8617510E-01
          2   -1    0    0  501    0  0.00000000000E+00  0.00000000000E+00  0.32036304361E+04  0.32036304361E+04  0.00000000000E+00 0. -1.
         -1   -1    0    0    0  501 -0.00000000000E+00 -0.00000000000E+00 -0.30496885595E+03  0.30496885595E+03  0.00000000000E+00 0.  1.
         24    2    1    2    0    0  0.55679714965E+03 -0.49232822467E+03  0.15406637379E+04  0.17127796685E+04  0.86944193718E+02 0.  0.
        254    2    1    2    0    0 -0.55679714965E+03  0.49232822467E+03  0.13579978423E+04  0.17958196236E+04  0.91016472915E+03 0.  0.
         23    2    4    4    0    0 -0.73868745999E+03  0.58813843461E+03  0.10808749982E+04  0.14379525464E+04  0.88604638760E+02 0.  0.
         23    2    4    4    0    0  0.18189031034E+03 -0.95810209937E+02  0.27712284407E+03  0.35786707724E+03  0.94910973756E+02 0.  0.
          4    1    3    3  502    0  0.54090976655E+03 -0.45432534335E+03  0.14717135599E+04  0.16324630763E+04  0.00000000000E+00 0. -1.
         -3    1    3    3    0  502  0.15887383101E+02 -0.38002881322E+02  0.68950178049E+02  0.80316592205E+02  0.00000000000E+00 0.  1.
         13    1    5    5    0    0 -0.95081363028E+02  0.11152460737E+03  0.19127910509E+03  0.24096866952E+03  0.00000000000E+00 0. -1.
        -13    1    5    5    0    0 -0.64360609697E+03  0.47661382724E+03  0.88959589311E+03  0.11969838768E+04  0.00000000000E+00 0.  1.
          2    1    6    6  503    0  0.49274293340E+02 -0.78121174903E+02  0.12197852900E+03  0.15300207675E+03  0.00000000000E+00 0. -1.
         -2    1    6    6    0  503  0.13261601700E+03 -0.17689035034E+02  0.15514431507E+03  0.20486500049E+03  0.00000000000E+00 0.  1.
<mgrwt>
<rscale>  0 0.19768738E+04</rscale>
<asrwt>0</asrwt>
<pdfrwt beam="1">  1        2 0.49286620E+00 0.19768738E+04</pdfrwt>
<pdfrwt beam="2">  1       -1 0.46918288E-01 0.19768738E+04</pdfrwt>
<totfact> 0.62105292E+00</totfact>
</mgrwt>
</event>
<event>
12    7  0.1661464E-007  0.2277512E+04  0.7818608E-02  0.8486841E-01
         -1   -1    0    0    0  501 -0.00000000000E+00  0.00000000000E+00  0.73730009551E+03  0.73730009551E+03  0.00000000000E+00 0.  1.
          2   -1    0    0  501    0  0.00000000000E+00 -0.00000000000E+00 -0.17588027440E+04  0.17588027440E+04  0.00000000000E+00 0. -1.
         24    2    1    2    0    0  0.12569581946E+03 -0.87656259263E+02  0.60432080138E+03  0.62868656363E+03  0.80994478137E+02 0.  0.
        254    2    1    2    0    0 -0.12569581946E+03  0.87656259263E+02 -0.16258234499E+04  0.18674162759E+04  0.90579169704E+03 0.  0.
         23    2    4    4    0    0 -0.34837018633E+03  0.19941064303E+03 -0.28464734490E+03  0.49983993738E+03  0.87689570430E+02 0.  0.
         23    2    4    4    0    0  0.22267436687E+03 -0.11175438376E+03 -0.13411761050E+04  0.13675763385E+04  0.97153389646E+02 0.  0.
          2    1    3    3  502    0  0.41740737698E+02  0.82365818319E+01  0.21047189042E+03  0.21472900856E+03  0.00000000000E+00 0. -1.
         -1    1    3    3    0  502  0.83955081766E+02 -0.95892841095E+02  0.39384891096E+03  0.41395755506E+03  0.00000000000E+00 0.  1.
         13    1    5    5    0    0 -0.29842263280E+03  0.15108908309E+03 -0.26739654322E+03  0.42823462042E+03  0.00000000000E+00 0. -1.
        -13    1    5    5    0    0 -0.49947553535E+02  0.48321559936E+02 -0.17250801677E+02  0.71605316962E+02  0.00000000000E+00 0.  1.
          3    1    6    6  503    0  0.15379667337E+03 -0.10477892689E+03 -0.76756267989E+03  0.78980029616E+03  0.00000000000E+00 0. -1.
         -3    1    6    6    0  503  0.68877693499E+02 -0.69754568690E+01 -0.57361342510E+03  0.57777604235E+03  0.00000000000E+00 0.  1.
<mgrwt>
<rscale>  0 0.22775122E+04</rscale>
<asrwt>0</asrwt>
<pdfrwt beam="1">  1        2 0.27058504E+00 0.22775122E+04</pdfrwt>
<pdfrwt beam="2">  1       -1 0.11343078E+00 0.22775122E+04</pdfrwt>
<totfact> 0.66723985E+00</totfact>
</mgrwt>
</event>
<event>
12    7  0.1661464E-007  0.2659396E+04  0.7818608E-02  0.8348301E-01
         -1   -1    0    0    0  501 -0.00000000000E+00  0.00000000000E+00  0.50185593372E+03  0.50185593372E+03  0.00000000000E+00 0.  1.
          2   -1    0    0  501    0  0.00000000000E+00 -0.00000000000E+00 -0.35231169577E+04  0.35231169577E+04  0.00000000000E+00 0. -1.
         24    2    1    2    0    0 -0.81449704296E+03  0.75271590076E+03 -0.19523071169E+04  0.22467106974E+04  0.78862024666E+02 0.  0.
        254    2    1    2    0    0  0.81449704296E+03 -0.75271590076E+03 -0.10689539071E+04  0.17782621940E+04  0.88857600403E+03 0.  0.
         23    2    4    4    0    0  0.85664513305E+02 -0.53269987922E+03 -0.79244977018E+03  0.96309212838E+03  0.91990430618E+02 0.  0.
         23    2    4    4    0    0  0.72883252966E+03 -0.22001602154E+03 -0.27650413689E+03  0.81517006563E+03  0.91890109130E+02 0.  0.
          2    1    3    3  502    0 -0.58934606274E+03  0.54676961166E+03 -0.14841045986E+04  0.16878543330E+04  0.00000000000E+00 0. -1.
         -1    1    3    3    0  502 -0.22515098022E+03  0.20594628910E+03 -0.46820251838E+03  0.55885636447E+03  0.00000000000E+00 0.  1.
         13    1    5    5    0    0 -0.19516604412E+02 -0.78006409328E+02 -0.10705274846E+03  0.13388871758E+03  0.00000000000E+00 0.  1.
        -13    1    5    5    0    0  0.10518111772E+03 -0.45469346990E+03 -0.68539702173E+03  0.82920341080E+03  0.00000000000E+00 0. -1.
          3    1    6    6  503    0  0.70989960120E+03 -0.19870315905E+03 -0.25729828439E+03  0.78079625790E+03  0.00000000000E+00 0. -1.
         -3    1    6    6    0  503  0.18932928460E+02 -0.21312862486E+02 -0.19205852505E+02  0.34373807730E+02  0.00000000000E+00 0.  1.
<mgrwt>
<rscale>  0 0.26593963E+04</rscale>
<asrwt>0</asrwt>
<pdfrwt beam="1">  1        2 0.54201799E+00 0.26593963E+04</pdfrwt>
<pdfrwt beam="2">  1       -1 0.77208605E-01 0.26593963E+04</pdfrwt>
<totfact> 0.13187398E+00</totfact>
</mgrwt>
</event>
<event>
12    7  0.1661464E-007  0.2843910E+04  0.7818608E-02  0.8289764E-01
         -3   -1    0    0    0  501 -0.00000000000E+00  0.00000000000E+00  0.10221018823E+04  0.10221018823E+04  0.00000000000E+00 0.  1.
          4   -1    0    0  501    0  0.00000000000E+00 -0.00000000000E+00 -0.19782326468E+04  0.19782326468E+04  0.00000000000E+00 0. -1.
         24    2    1    2    0    0  0.70592846461E+03 -0.86583637070E+03  0.22094509745E+03  0.11416663685E+04  0.81103285238E+02 0.  0.
        254    2    1    2    0    0 -0.70592846461E+03  0.86583637070E+03 -0.11770758619E+04  0.18586681606E+04  0.90616341154E+03 0.  0.
         23    2    4    4    0    0 -0.15805022950E+03  0.12759847558E+03  0.13127406704E+03  0.25678863045E+03  0.86291795880E+02 0.  0.
         23    2    4    4    0    0 -0.54787823511E+03  0.73823789512E+03 -0.13083499290E+04  0.16018795301E+04  0.95250942810E+02 0.  0.
          4    1    3    3  502    0  0.11619927744E+03 -0.19338200427E+03  0.39712993065E+02  0.22907639221E+03  0.00000000000E+00 0. -1.
         -3    1    3    3    0  502  0.58972918717E+03 -0.67245436644E+03  0.18123210438E+03  0.91258997628E+03  0.00000000000E+00 0.  1.
         13    1    5    5    0    0 -0.24315049018E+02  0.64663599564E+02  0.20437079660E+02  0.72043576691E+02  0.00000000000E+00 0. -1.
        -13    1    5    5    0    0 -0.13373518048E+03  0.62934876020E+02  0.11083698738E+03  0.18474505376E+03  0.00000000000E+00 0.  1.
          4    1    6    6  503    0 -0.34844382807E+03  0.51089301220E+03 -0.94170534825E+03  0.11266027402E+04  0.00000000000E+00 0.  1.
         -4    1    6    6    0  503 -0.19943440703E+03  0.22734488292E+03 -0.36664458071E+03  0.47527678995E+03  0.00000000000E+00 0. -1.
<mgrwt>
<rscale>  0 0.28439095E+04</rscale>
<asrwt>0</asrwt>
<pdfrwt beam="1">  1        4 0.30434348E+00 0.28439095E+04</pdfrwt>
<pdfrwt beam="2">  1       -3 0.15724644E+00 0.28439095E+04</pdfrwt>
<totfact> 0.16252783E-02</totfact>
</mgrwt>
</event>
<event>
12    7  0.1661464E-007  0.1596596E+04  0.7818608E-02  0.8822642E-01
          2   -1    0    0  501    0  0.00000000000E+00  0.00000000000E+00  0.72262239580E+03  0.72262239580E+03  0.00000000000E+00 0. -1.
         -1   -1    0    0    0  501 -0.00000000000E+00 -0.00000000000E+00 -0.88189825855E+03  0.88189825855E+03  0.00000000000E+00 0.  1.
         24    2    1    2    0    0  0.22588897367E+03 -0.44559461418E+03 -0.25302941802E+03  0.56571823205E+03  0.80205006535E+02 0.  0.
        254    2    1    2    0    0 -0.22588897367E+03  0.44559461418E+03  0.93753555264E+02  0.10388024223E+04  0.90594721415E+03 0.  0.
         23    2    4    4    0    0 -0.78831134561E+02  0.75800660433E+02  0.46573320515E+03  0.48653140026E+03  0.88573682135E+02 0.  0.
         23    2    4    4    0    0 -0.14705783911E+03  0.36979395375E+03 -0.37197964988E+03  0.55227102203E+03  0.90889193928E+02 0.  0.
          4    1    3    3  502    0  0.14580977064E+02 -0.82970337632E+02 -0.61954134394E+02  0.10457053403E+03  0.00000000000E+00 0. -1.
         -3    1    3    3    0  502  0.21130799661E+03 -0.36262427655E+03 -0.19107528362E+03  0.46114769802E+03  0.00000000000E+00 0.  1.
         13    1    5    5    0    0 -0.87627190555E+02  0.52243420361E+02  0.43509458633E+03  0.44689506436E+03  0.00000000000E+00 0. -1.
        -13    1    5    5    0    0  0.87960559937E+01  0.23557240072E+02  0.30638618822E+02  0.39636335907E+02  0.00000000000E+00 0.  1.
          1    1    6    6  503    0 -0.27125154743E+02  0.90282547080E+02 -0.14419575909E+03  0.17227631661E+03  0.00000000000E+00 0. -1.
         -1    1    6    6    0  503 -0.11993268437E+03  0.27951140667E+03 -0.22778389080E+03  0.37999470542E+03  0.00000000000E+00 0.  1.
<mgrwt>
<rscale>  0 0.15965957E+04</rscale>
<asrwt>0</asrwt>
<pdfrwt beam="1">  1        2 0.11117268E+00 0.15965957E+04</pdfrwt>
<pdfrwt beam="2">  1       -1 0.13567665E+00 0.15965957E+04</pdfrwt>
<totfact> 0.19601879E+01</totfact>
</mgrwt>
</event>
<event>
12    7  0.1661464E-007  0.1716348E+04  0.7818608E-02  0.8752095E-01
          2   -1    0    0  501    0  0.00000000000E+00  0.00000000000E+00  0.50784840050E+03  0.50784840050E+03  0.00000000000E+00 0. -1.
         -1   -1    0    0    0  501 -0.00000000000E+00 -0.00000000000E+00 -0.14501615455E+04  0.14501615455E+04  0.00000000000E+00 0.  1.
         24    2    1    2    0    0 -0.42461726334E+03 -0.36970950870E+03 -0.90453117198E+02  0.57583681803E+03  0.80133223034E+02 0.  0.
        254    2    1    2    0    0  0.42461726334E+03  0.36970950870E+03 -0.85186002784E+03  0.13821731280E+04  0.93153212914E+03 0.  0.
         23    2    4    4    0    0 -0.31994719693E+02  0.56188834323E+03 -0.56308027480E+03  0.80133092923E+03  0.91267134978E+02 0.  0.
         23    2    4    4    0    0  0.45661198304E+03 -0.19217883453E+03 -0.28877975304E+03  0.58084219878E+03  0.92502468214E+02 0.  0.
          4    1    3    3  502    0 -0.16254696708E+03 -0.16526246276E+03 -0.17139984997E+01  0.23181056036E+03  0.00000000000E+00 0. -1.
         -3    1    3    3    0  502 -0.26207029626E+03 -0.20444704595E+03 -0.88739118699E+02  0.34402625767E+03  0.00000000000E+00 0.  1.
         13    1    5    5    0    0 -0.57070795964E+02  0.35734682947E+03 -0.39202183794E+03  0.53351190587E+03  0.00000000000E+00 0.  1.
        -13    1    5    5    0    0  0.25076076271E+02  0.20454151376E+03 -0.17105843686E+03  0.26781902336E+03  0.00000000000E+00 0. -1.
          1    1    6    6  503    0  0.16625051548E+03 -0.11553870538E+03 -0.13612420684E+03  0.24396357521E+03  0.00000000000E+00 0. -1.
         -1    1    6    6    0  503  0.29036146756E+03 -0.76640129147E+02 -0.15265554620E+03  0.33687862358E+03  0.00000000000E+00 0.  1.
<mgrwt>
<rscale>  0 0.17163475E+04</rscale>
<asrwt>0</asrwt>
<pdfrwt beam="1">  1        2 0.78130524E-01 0.17163475E+04</pdfrwt>
<pdfrwt beam="2">  1       -1 0.22310178E+00 0.17163475E+04</pdfrwt>
<totfact> 0.68898756E+00</totfact>
</mgrwt>
</event>
<event>
12    7  0.1661464E-007  0.1185396E+04  0.7818608E-02  0.9125736E-01
         -1   -1    0    0    0  501 -0.00000000000E+00  0.00000000000E+00  0.22901709431E+03  0.22901709431E+03  0.00000000000E+00 0.  1.
          2   -1    0    0  501    0  0.00000000000E+00 -0.00000000000E+00 -0.15339075076E+04  0.15339075076E+04  0.00000000000E+00 0. -1.
         24    2    1    2    0    0 -0.16913698891E+03  0.14788241370E+03 -0.14570584750E+03  0.27951861915E+03  0.80149455131E+02 0.  0.
        254    2    1    2    0    0  0.16913698891E+03 -0.14788241370E+03 -0.11591845658E+04  0.14834059828E+04  0.89794650332E+03 0.  0.
         23    2    4    4    0    0  0.51688386708E+03 -0.19932059630E+03 -0.66223510831E+03  0.86833659682E+03  0.92495808213E+02 0.  0.
         23    2    4    4    0    0 -0.34774687817E+03  0.51438182603E+02 -0.49694945748E+03  0.61506938594E+03  0.88191883598E+02 0.  0.
          4    1    3    3  502    0 -0.16579998836E+03  0.15581687489E+03 -0.14689989288E+03  0.27082856786E+03  0.00000000000E+00 0. -1.
         -3    1    3    3    0  502 -0.33370005473E+01 -0.79344611874E+01  0.11940453896E+01  0.86900512875E+01  0.00000000000E+00 0.  1.
         13    1    5    5    0    0  0.42919084885E+03 -0.20070981835E+03 -0.55151163719E+03  0.72708617224E+03  0.00000000000E+00 0. -1.
        -13    1    5    5    0    0  0.87693018227E+02  0.13892220481E+01 -0.11072347113E+03  0.14125042457E+03  0.00000000000E+00 0.  1.
          1    1    6    6  503    0 -0.18100278391E+03  0.67692190636E+02 -0.29520427117E+03  0.35283112415E+03  0.00000000000E+00 0. -1.
         -1    1    6    6    0  503 -0.16674409426E+03 -0.16254008033E+02 -0.20174518631E+03  0.26223826179E+03  0.00000000000E+00 0.  1.
<mgrwt>
<rscale>  0 0.11853962E+04</rscale>
<asrwt>0</asrwt>
<pdfrwt beam="1">  1        2 0.23598578E+00 0.11853962E+04</pdfrwt>
<pdfrwt beam="2">  1       -1 0.35233398E-01 0.11853962E+04</pdfrwt>
<totfact> 0.10476101E+02</totfact>
</mgrwt>
</event>
<event>
12    7  0.2169334E-007  0.2246195E+04  0.7818608E-02  0.8499443E-01
          2   -1    0    0  501    0  0.00000000000E+00  0.00000000000E+00  0.87656760313E+03  0.87656760313E+03  0.00000000000E+00 0. -1.
         -1   -1    0    0    0  501 -0.00000000000E+00 -0.00000000000E+00 -0.14389625831E+04  0.14389625831E+04  0.00000000000E+00 0.  1.
         24    2    1    2    0    0 -0.23429490354E+03 -0.26472325584E+03  0.66039921879E+03  0.75330766938E+03  0.79829897704E+02 0.  0.
        254    2    1    2    0    0  0.23429490354E+03  0.26472325584E+03 -0.12227941988E+04  0.15622225169E+04  0.90572679966E+03 0.  0.
         23    2    4    4    0    0  0.70162628599E+02  0.43683808321E+03 -0.12265314237E+04  0.13069764413E+04  0.89765134095E+02 0.  0.
         23    2    4    4    0    0  0.16413227495E+03 -0.17211482738E+03  0.37372249264E+01  0.25524607560E+03  0.92594140063E+02 0.  0.
          2    1    3    3  502    0 -0.19960384138E+03 -0.23891284129E+03  0.51667242246E+03  0.60321756552E+03  0.00000000000E+00 0. -1.
         -1    1    3    3    0  502 -0.34691062165E+02 -0.25810414545E+02  0.14372679633E+03  0.15009010386E+03  0.00000000000E+00 0.  1.
         13    1    5    5    0    0  0.32974964871E+02  0.69269808025E+02 -0.29619936445E+03  0.30597339446E+03  0.00000000000E+00 0.  1.
        -13    1    5    5    0    0  0.37187663727E+02  0.36756827519E+03 -0.93033205926E+03  0.10010030468E+04  0.00000000000E+00 0. -1.
          1    1    6    6  503    0  0.11684604643E+02 -0.62684777474E+01 -0.24855774724E+02  0.28171498648E+02  0.00000000000E+00 0.  1.
         -1    1    6    6    0  503  0.15244767030E+03 -0.16584634963E+03  0.28592999650E+02  0.22707457695E+03  0.00000000000E+00 0. -1.
<mgrwt>
<rscale>  0 0.22461950E+04</rscale>
<asrwt>0</asrwt>
<pdfrwt beam="1">  1        2 0.13485656E+00 0.22461950E+04</pdfrwt>
<pdfrwt beam="2">  1       -1 0.22137886E+00 0.22461950E+04</pdfrwt>
<totfact> 0.34040604E+00</totfact>
</mgrwt>
</event>
<event>
12    7  0.1661464E-007  0.1494837E+04  0.7818608E-02  0.8887894E-01
          2   -1    0    0  501    0  0.00000000000E+00  0.00000000000E+00  0.94195981213E+03  0.94195981213E+03  0.00000000000E+00 0. -1.
         -1   -1    0    0    0  501 -0.00000000000E+00 -0.00000000000E+00 -0.59305510333E+03  0.59305510333E+03  0.00000000000E+00 0.  1.
         24    2    1    2    0    0 -0.37884388224E+03 -0.77265922101E+02  0.13522168575E+03  0.42169189397E+03  0.10023192762E+03 0.  0.
        254    2    1    2    0    0  0.37884388224E+03  0.77265922101E+02  0.21368302305E+03  0.11133230215E+04  0.10219271041E+04 0.  0.
         23    2    4    4    0    0 -0.29661371276E+03  0.18274783406E+03  0.22240050373E+03  0.42346875768E+03  0.92126756261E+02 0.  0.
         23    2    4    4    0    0  0.67545759500E+03 -0.10548191196E+03 -0.87174806833E+01  0.68985426381E+03  0.91942995552E+02 0.  0.
          4    1    3    3  502    0 -0.31585281153E+03 -0.87715136104E+02  0.80369933953E+02  0.33751484402E+03  0.00000000000E+00 0. -1.
         -3    1    3    3    0  502 -0.62991070709E+02  0.10449214004E+02  0.54851751798E+02  0.84177049946E+02  0.00000000000E+00 0.  1.
         13    1    5    5    0    0 -0.10048372068E+03  0.14242845889E+02  0.54950818283E+02  0.11540983151E+03  0.00000000000E+00 0.  1.
        -13    1    5    5    0    0 -0.19612999209E+03  0.16850498818E+03  0.16744968545E+03  0.30805892617E+03  0.00000000000E+00 0. -1.
          3    1    6    6  503    0  0.54623632981E+03 -0.10602252462E+03  0.22606484953E+02  0.55688953742E+03  0.00000000000E+00 0. -1.
         -3    1    6    6    0  503  0.12922126519E+03  0.54061265444E+00 -0.31323965636E+02  0.13296472638E+03  0.00000000000E+00 0.  1.
<mgrwt>
<rscale>  0 0.14948365E+04</rscale>
<asrwt>0</asrwt>
<pdfrwt beam="1">  1        2 0.14491689E+00 0.14948365E+04</pdfrwt>
<pdfrwt beam="2">  1       -1 0.91239247E-01 0.14948365E+04</pdfrwt>
<totfact> 0.35535765E+01</totfact>
</mgrwt>
</event>
<event>
12    7  0.1661464E-007  0.1790561E+04  0.7818608E-02  0.8711335E-01
          2   -1    0    0  501    0  0.00000000000E+00  0.00000000000E+00  0.11429520424E+04  0.11429520424E+04  0.00000000000E+00 0. -1.
         -1   -1    0    0    0  501 -0.00000000000E+00 -0.00000000000E+00 -0.70127780644E+03  0.70127780644E+03  0.00000000000E+00 0.  1.
         24    2    1    2    0    0 -0.18016900939E+03  0.29795233471E+03 -0.40827201697E+03  0.54246525633E+03  0.79662091260E+02 0.  0.
        254    2    1    2    0    0  0.18016900939E+03 -0.29795233471E+03  0.84994625292E+03  0.13017645925E+04  0.92246731960E+03 0.  0.
         23    2    4    4    0    0 -0.23457384233E+03  0.10058010909E+03  0.61680771100E+03  0.67374874764E+03  0.91347560192E+02 0.  0.
         23    2    4    4    0    0  0.41474285172E+03 -0.39853244380E+03  0.23313854192E+03  0.62801584486E+03  0.95971765889E+02 0.  0.
          4    1    3    3  502    0 -0.30087071984E+02  0.12674040023E+02 -0.22037249501E+02  0.39389129930E+02  0.00000000000E+00 0. -1.
         -1    1    3    3    0  502 -0.15008193741E+03  0.28527829469E+03 -0.38623476747E+03  0.50307612640E+03  0.00000000000E+00 0.  1.
         13    1    5    5    0    0 -0.12951211173E+03  0.52478408281E+02  0.22147241590E+03  0.26187287264E+03  0.00000000000E+00 0. -1.
        -13    1    5    5    0    0 -0.10506173059E+03  0.48101700812E+02  0.39533529510E+03  0.41187587500E+03  0.00000000000E+00 0.  1.
          3    1    6    6  503    0  0.35188661669E+03 -0.29770723634E+03  0.15714821413E+03  0.48697982584E+03  0.00000000000E+00 0. -1.
         -3    1    6    6    0  503  0.62856235033E+02 -0.10082520746E+03  0.75990327789E+02  0.14103601901E+03  0.00000000000E+00 0.  1.
<mgrwt>
<rscale>  0 0.17905607E+04</rscale>
<asrwt>0</asrwt>
<pdfrwt beam="1">  1        2 0.17583878E+00 0.17905607E+04</pdfrwt>
<pdfrwt beam="2">  1       -1 0.10788889E+00 0.17905607E+04</pdfrwt>
<totfact> 0.17651479E+01</totfact>
</mgrwt>
</event>
<event>
12    7  0.1661464E-007  0.1357083E+04  0.7818608E-02  0.8985483E-01
          4   -1    0    0  501    0  0.00000000000E+00  0.00000000000E+00  0.82885239775E+03  0.82885239775E+03  0.00000000000E+00 0. -1.
         -3   -1    0    0    0  501 -0.00000000000E+00 -0.00000000000E+00 -0.55548940231E+03  0.55548940231E+03  0.00000000000E+00 0.  1.
         24    2    1    2    0    0 -0.28693684792E+03 -0.16039600270E+03 -0.86858502587E+02  0.34931026021E+03  0.80085117481E+02 0.  0.
        254    2    1    2    0    0  0.28693684792E+03  0.16039600270E+03  0.36022149802E+03  0.10350315399E+04  0.91294639956E+03 0.  0.
         23    2    4    4    0    0 -0.28621929698E+01 -0.20631147095E+03  0.49199459968E+03  0.54106377893E+03  0.90103893138E+02 0.  0.
         23    2    4    4    0    0  0.28979904089E+03  0.36670747364E+03 -0.13177310166E+03  0.49396776092E+03  0.90455199852E+02 0.  0.
          4    1    3    3  502    0 -0.14252207764E+03 -0.51984153168E+02 -0.70190588559E+01  0.15186889735E+03  0.00000000000E+00 0. -1.
         -3    1    3    3    0  502 -0.14441477029E+03 -0.10841184953E+03 -0.79839443731E+02  0.19744136287E+03  0.00000000000E+00 0.  1.
         13    1    5    5    0    0 -0.86638707380E+01 -0.48813676308E+02  0.44472283306E+02  0.66600462711E+02  0.00000000000E+00 0. -1.
        -13    1    5    5    0    0  0.58016777683E+01 -0.15749779464E+03  0.44752231638E+03  0.47446331622E+03  0.00000000000E+00 0.  1.
          3    1    6    6  503    0  0.68571000146E+02  0.49821653076E+02 -0.51724176478E+02  0.99295365494E+02  0.00000000000E+00 0. -1.
         -3    1    6    6    0  503  0.22122804075E+03  0.31688582057E+03 -0.80048925180E+02  0.39467239543E+03  0.00000000000E+00 0.  1.
<mgrwt>
<rscale>  0 0.13570832E+04</rscale>
<asrwt>0</asrwt>
<pdfrwt beam="1">  1        4 0.12751575E+00 0.13570832E+04</pdfrwt>
<pdfrwt beam="2">  1       -3 0.85459909E-01 0.13570832E+04</pdfrwt>
<totfact> 0.12713512E+00</totfact>
</mgrwt>
</event>
<event>
12    7  0.1661464E-007  0.1524429E+04  0.7818608E-02  0.8868368E-01
          2   -1    0    0  501    0  0.00000000000E+00  0.00000000000E+00  0.15023751700E+04  0.15023751700E+04  0.00000000000E+00 0. -1.
         -1   -1    0    0    0  501 -0.00000000000E+00 -0.00000000000E+00 -0.38670166260E+03  0.38670166260E+03  0.00000000000E+00 0.  1.
         24    2    1    2    0    0  0.17908443878E+03  0.79267556897E+02  0.90740196410E+03  0.93167949889E+03  0.79333362620E+02 0.  0.
        254    2    1    2    0    0 -0.17908443878E+03 -0.79267556897E+02  0.20827154332E+03  0.95739733373E+03  0.91371660656E+03 0.  0.
         23    2    4    4    0    0  0.13325127284E+03 -0.40006173863E+03  0.24553686732E+03  0.49649488422E+03  0.91725244178E+02 0.  0.
         23    2    4    4    0    0 -0.31233571162E+03  0.32079418173E+03 -0.37265323996E+02  0.46090244951E+03  0.10285844550E+03 0.  0.
          2    1    3    3  502    0  0.17000531186E+03  0.93798733636E+02  0.83261137352E+03  0.85495128973E+03  0.00000000000E+00 0. -1.
         -1    1    3    3    0  502  0.90791269110E+01 -0.14531176739E+02  0.74790590574E+02  0.76728209162E+02  0.00000000000E+00 0.  1.
         13    1    5    5    0    0  0.13322154192E+03 -0.39861998419E+03  0.22656821072E+03  0.47747149144E+03  0.00000000000E+00 0.  1.
        -13    1    5    5    0    0  0.29730919213E-01 -0.14417544336E+01  0.18968656598E+02  0.19023392781E+02  0.00000000000E+00 0. -1.
          4    1    6    6  503    0 -0.17331723349E+02 -0.59230908121E+01  0.40971720999E+01  0.18768549710E+02  0.00000000000E+00 0. -1.
         -4    1    6    6    0  503 -0.29500398827E+03  0.32671727254E+03 -0.41362496096E+02  0.44213389980E+03  0.00000000000E+00 0.  1.
<mgrwt>
<rscale>  0 0.15244290E+04</rscale>
<asrwt>0</asrwt>
<pdfrwt beam="1">  1        2 0.23113464E+00 0.15244290E+04</pdfrwt>
<pdfrwt beam="2">  1       -1 0.59492564E-01 0.15244290E+04</pdfrwt>
<totfact> 0.39831615E+01</totfact>
</mgrwt>
</event>
<event>
12    7  0.1661464E-007  0.1868374E+04  0.7818608E-02  0.8670761E-01
          2   -1    0    0  501    0  0.00000000000E+00  0.00000000000E+00  0.17823329304E+04  0.17823329304E+04  0.00000000000E+00 0. -1.
         -1   -1    0    0    0  501 -0.00000000000E+00 -0.00000000000E+00 -0.48964193823E+03  0.48964193823E+03  0.00000000000E+00 0.  1.
         24    2    1    2    0    0  0.51091387187E+03  0.48470599125E+03  0.37101528470E+03  0.79999795628E+03  0.79821714823E+02 0.  0.
        254    2    1    2    0    0 -0.51091387187E+03 -0.48470599125E+03  0.92167570748E+03  0.14719769124E+04  0.90623233132E+03 0.  0.
         23    2    4    4    0    0  0.24091622382E+03 -0.51476746296E+02  0.31969758062E+03  0.41222380993E+03  0.83853706594E+02 0.  0.
         23    2    4    4    0    0 -0.75183009568E+03 -0.43322924495E+03  0.60197812686E+03  0.10597531024E+04  0.88107329013E+02 0.  0.
          2    1    3    3  502    0  0.12476983992E+03  0.75010283075E+02  0.83786523601E+02  0.16797094111E+03  0.00000000000E+00 0. -1.
         -1    1    3    3    0  502  0.38614403194E+03  0.40969570817E+03  0.28722876110E+03  0.63202701517E+03  0.00000000000E+00 0.  1.
         13    1    5    5    0    0  0.20328399028E+03 -0.35528214086E+02  0.20678565397E+03  0.29214198841E+03  0.00000000000E+00 0.  1.
        -13    1    5    5    0    0  0.37632233533E+02 -0.15948532209E+02  0.11291192665E+03  0.12008182152E+03  0.00000000000E+00 0. -1.
          3    1    6    6  503    0 -0.25042712277E+03 -0.12891446966E+03  0.14880397432E+03  0.31855189072E+03  0.00000000000E+00 0. -1.
         -3    1    6    6    0  503 -0.50140297291E+03 -0.30431477529E+03  0.45317415253E+03  0.74120121170E+03  0.00000000000E+00 0.  1.
<mgrwt>
<rscale>  0 0.18683736E+04</rscale>
<asrwt>0</asrwt>
<pdfrwt beam="1">  1        2 0.27420506E+00 0.18683736E+04</pdfrwt>
<pdfrwt beam="2">  1       -1 0.75329530E-01 0.18683736E+04</pdfrwt>
<totfact> 0.16719452E+01</totfact>
</mgrwt>
</event>
<event>
12    7  0.1661464E-007  0.1421094E+04  0.7818608E-02  0.8938690E-01
          2   -1    0    0  501    0  0.00000000000E+00  0.00000000000E+00  0.91313070769E+03  0.91313070769E+03  0.00000000000E+00 0. -1.
         -1   -1    0    0    0  501 -0.00000000000E+00 -0.00000000000E+00 -0.55290764748E+03  0.55290764748E+03  0.00000000000E+00 0.  1.
         24    2    1    2    0    0 -0.25634433314E+03 -0.19436077245E+03 -0.16761921806E+03  0.37145033485E+03  0.79941366014E+02 0.  0.
        254    2    1    2    0    0  0.25634433314E+03  0.19436077245E+03  0.52784227826E+03  0.10945880203E+04  0.90333655771E+03 0.  0.
         23    2    4    4    0    0  0.12858212935E+02 -0.33989546185E+03  0.11673090445E+03  0.37117732748E+03  0.91936096051E+02 0.  0.
         23    2    4    4    0    0  0.24348612020E+03  0.53425623429E+03  0.41111137382E+03  0.72341069283E+03  0.97955368472E+02 0.  0.
          4    1    3    3  502    0 -0.47073516537E+02 -0.13941725580E+02 -0.16364390086E+01  0.49121946256E+02  0.00000000000E+00 0. -1.
         -3    1    3    3    0  502 -0.20927081660E+03 -0.18041904687E+03 -0.16598277905E+03  0.32232838859E+03  0.00000000000E+00 0.  1.
         13    1    5    5    0    0 -0.80485337771E+01 -0.31745081925E+03  0.88905650698E+02  0.32976357631E+03  0.00000000000E+00 0.  1.
        -13    1    5    5    0    0  0.20906746712E+02 -0.22444642603E+02  0.27825253749E+02  0.41413751169E+02  0.00000000000E+00 0. -1.
          4    1    6    6  503    0  0.76205674521E+01  0.95899336587E+02  0.84487854950E+02  0.12803496960E+03  0.00000000000E+00 0. -1.
         -4    1    6    6    0  503  0.23586555275E+03  0.43835689771E+03  0.32662351887E+03  0.59537572324E+03  0.00000000000E+00 0.  1.
<mgrwt>
<rscale>  0 0.14210939E+04</rscale>
<asrwt>0</asrwt>
<pdfrwt beam="1">  1        2 0.14048165E+00 0.14210939E+04</pdfrwt>
<pdfrwt beam="2">  1       -1 0.85062715E-01 0.14210939E+04</pdfrwt>
<totfact> 0.43567343E+01</totfact>
</mgrwt>
</event>
<event>
12    7  0.1661464E-007  0.1337852E+04  0.7818608E-02  0.9000076E-01
         -1   -1    0    0    0  501 -0.00000000000E+00  0.00000000000E+00  0.31580300926E+03  0.31580300926E+03  0.00000000000E+00 0.  1.
          2   -1    0    0  501    0  0.00000000000E+00 -0.00000000000E+00 -0.14169012307E+04  0.14169012307E+04  0.00000000000E+00 0. -1.
         24    2    1    2    0    0 -0.24286086283E+03  0.32938798328E+02  0.33401225372E+02  0.26017009240E+03  0.80662705111E+02 0.  0.
        254    2    1    2    0    0  0.24286086283E+03 -0.32938798328E+02 -0.11344994468E+04  0.14725341476E+04  0.90620166509E+03 0.  0.
         23    2    4    4    0    0 -0.21147347586E+03  0.25337336699E+03 -0.68159458805E+03  0.76418547047E+03  0.10241658420E+03 0.  0.
         23    2    4    4    0    0  0.45433433868E+03 -0.28631216532E+03 -0.45290485877E+03  0.70834867711E+03  0.90778245986E+02 0.  0.
          4    1    3    3  502    0 -0.22802169039E+02 -0.30901306968E+01  0.29154254106E+02  0.37141060204E+02  0.00000000000E+00 0. -1.
         -3    1    3    3    0  502 -0.22005869379E+03  0.36028929025E+02  0.42469712663E+01  0.22302903220E+03  0.00000000000E+00 0.  1.
         13    1    5    5    0    0 -0.20412659629E+03  0.18559776774E+03 -0.57313417487E+03  0.63607938271E+03  0.00000000000E+00 0. -1.
        -13    1    5    5    0    0 -0.73468795655E+01  0.67775599248E+02 -0.10846041318E+03  0.12810608776E+03  0.00000000000E+00 0.  1.
          1    1    6    6  503    0  0.23297365146E+03 -0.96273347164E+02 -0.22930213371E+03  0.34077081473E+03  0.00000000000E+00 0. -1.
         -1    1    6    6    0  503  0.22136068723E+03 -0.19003881816E+03 -0.22360272506E+03  0.36757786237E+03  0.00000000000E+00 0.  1.
<mgrwt>
<rscale>  0 0.13378515E+04</rscale>
<asrwt>0</asrwt>
<pdfrwt beam="1">  1        2 0.21798480E+00 0.13378515E+04</pdfrwt>
<pdfrwt beam="2">  1       -1 0.48585078E-01 0.13378515E+04</pdfrwt>
<totfact> 0.66821966E+01</totfact>
</mgrwt>
</event>
<event>
12    7  0.1661464E-007  0.1451967E+04  0.7818608E-02  0.8917038E-01
         -1   -1    0    0    0  501 -0.00000000000E+00  0.00000000000E+00  0.15591168530E+03  0.15591168530E+03  0.00000000000E+00 0.  1.
          2   -1    0    0  501    0  0.00000000000E+00 -0.00000000000E+00 -0.33804528302E+04  0.33804528302E+04  0.00000000000E+00 0. -1.
         24    2    1    2    0    0 -0.42954516629E+02 -0.45027543212E+02 -0.20688995165E+04  0.20714256129E+04  0.81155960404E+02 0.  0.
        254    2    1    2    0    0  0.42954516629E+02  0.45027543212E+02 -0.11556416284E+04  0.14649389027E+04  0.89814578167E+03 0.  0.
         23    2    4    4    0    0  0.51393896497E+02 -0.18335291158E+03 -0.11974608128E+04  0.12159391516E+04  0.91301694371E+02 0.  0.
         23    2    4    4    0    0 -0.84393798679E+01  0.22838045479E+03  0.41819184366E+02  0.24899975112E+03  0.89572186612E+02 0.  0.
          2    1    3    3  502    0 -0.13749981581E+02 -0.65282801045E+02 -0.13344954065E+04  0.13361620021E+04  0.00000000000E+00 0. -1.
         -1    1    3    3    0  502 -0.29204535047E+02  0.20255257834E+02 -0.73440411010E+03  0.73526361073E+03  0.00000000000E+00 0.  1.
         13    1    5    5    0    0 -0.79969331006E+01 -0.24737072208E+02 -0.39212775164E+03  0.39298860961E+03  0.00000000000E+00 0. -1.
        -13    1    5    5    0    0  0.59390829597E+02 -0.15861583937E+03 -0.80533306113E+03  0.82295054194E+03  0.00000000000E+00 0.  1.
          2    1    6    6  503    0  0.36932400169E+02  0.73458855633E+02 -0.85630357004E-01  0.82220514385E+02  0.00000000000E+00 0. -1.
         -2    1    6    6    0  503 -0.45371780037E+02  0.15492159916E+03  0.41904814723E+02  0.16677923674E+03  0.00000000000E+00 0.  1.
<mgrwt>
<rscale>  0 0.14519671E+04</rscale>
<asrwt>0</asrwt>
<pdfrwt beam="1">  1        2 0.52006968E+00 0.14519671E+04</pdfrwt>
<pdfrwt beam="2">  1       -1 0.23986413E-01 0.14519671E+04</pdfrwt>
<totfact> 0.16546538E+01</totfact>
</mgrwt>
</event>
<event>
12    7  0.1661464E-007  0.1169648E+04  0.7818608E-02  0.9139847E-01
          2   -1    0    0  501    0  0.00000000000E+00  0.00000000000E+00  0.90350556235E+03  0.90350556235E+03  0.00000000000E+00 0. -1.
         -1   -1    0    0    0  501 -0.00000000000E+00 -0.00000000000E+00 -0.37854653937E+03  0.37854653937E+03  0.00000000000E+00 0.  1.
         24    2    1    2    0    0 -0.16348424413E+03  0.49727048824E+02 -0.72991758638E+02  0.20220987744E+03  0.79756882109E+02 0.  0.
        254    2    1    2    0    0  0.16348424413E+03 -0.49727048824E+02  0.59795078161E+03  0.10798422243E+04  0.88278775175E+03 0.  0.
         23    2    4    4    0    0 -0.22994876798E+02  0.32179711152E+02  0.78336105522E+03  0.78968572130E+03  0.91567993406E+02 0.  0.
         23    2    4    4    0    0  0.18647912093E+03 -0.81906759976E+02 -0.18541027361E+03  0.29015650298E+03  0.91272376945E+02 0.  0.
          2    1    3    3  502    0  0.54177849936E+01 -0.81798602570E+01 -0.60160801464E+01  0.11508941237E+02  0.00000000000E+00 0. -1.
         -1    1    3    3    0  502 -0.16890202912E+03  0.57906909081E+02 -0.66975678492E+02  0.19070093621E+03  0.00000000000E+00 0.  1.
         13    1    5    5    0    0 -0.46144659420E+02  0.51299474144E+02  0.50002451944E+03  0.50476280140E+03  0.00000000000E+00 0. -1.
        -13    1    5    5    0    0  0.23149782622E+02 -0.19119762992E+02  0.28333653578E+03  0.28492291990E+03  0.00000000000E+00 0.  1.
          1    1    6    6  503    0  0.13930678104E+03 -0.99057062241E+02 -0.15894148744E+03  0.23341181901E+03  0.00000000000E+00 0. -1.
         -1    1    6    6    0  503  0.47172339884E+02  0.17150302266E+02 -0.26468786166E+02  0.56744683972E+02  0.00000000000E+00 0.  1.
<mgrwt>
<rscale>  0 0.11696476E+04</rscale>
<asrwt>0</asrwt>
<pdfrwt beam="1">  1        2 0.13900085E+00 0.11696476E+04</pdfrwt>
<pdfrwt beam="2">  1       -1 0.58237930E-01 0.11696476E+04</pdfrwt>
<totfact> 0.98278744E+01</totfact>
</mgrwt>
</event>
<event>
12    7  0.1661464E-007  0.1899785E+04  0.7818608E-02  0.8654963E-01
          2   -1    0    0  501    0  0.00000000000E+00  0.00000000000E+00  0.15931853423E+04  0.15931853423E+04  0.00000000000E+00 0. -1.
         -1   -1    0    0    0  501 -0.00000000000E+00 -0.00000000000E+00 -0.56634711740E+03  0.56634711740E+03  0.00000000000E+00 0.  1.
         24    2    1    2    0    0 -0.12309348708E+03 -0.33189393105E+03  0.11318441039E+04  0.11886318941E+04  0.80430814855E+02 0.  0.
        254    2    1    2    0    0  0.12309348708E+03  0.33189393105E+03 -0.10500587908E+03  0.97090056558E+03  0.89795104854E+03 0.  0.
         23    2    4    4    0    0 -0.23344758077E+03 -0.18840152327E+03 -0.11178124504E+03  0.33361891195E+03  0.93880907184E+02 0.  0.
         23    2    4    4    0    0  0.35654106785E+03  0.52029545431E+03  0.67753659522E+01  0.63728165362E+03  0.90846615870E+02 0.  0.
          2    1    3    3  502    0 -0.12865636417E+03 -0.27138735434E+03  0.89174881660E+03  0.94096732570E+03  0.00000000000E+00 0. -1.
         -1    1    3    3    0  502  0.55628770921E+01 -0.60506576708E+02  0.24009528735E+03  0.24766456838E+03  0.00000000000E+00 0.  1.
         13    1    5    5    0    0 -0.22193633454E+03 -0.19869560289E+03 -0.11180524685E+03  0.31817619713E+03  0.00000000000E+00 0.  1.
        -13    1    5    5    0    0 -0.11511246229E+02  0.10294079621E+02  0.24001816924E-01  0.15442714822E+02  0.00000000000E+00 0. -1.
          4    1    6    6  503    0  0.30346099310E+03  0.38820815158E+03  0.27091389324E+02  0.49348564990E+03  0.00000000000E+00 0.  1.
         -4    1    6    6    0  503  0.53080074749E+02  0.13208730274E+03 -0.20316023372E+02  0.14379600372E+03  0.00000000000E+00 0. -1.
<mgrwt>
<rscale>  0 0.18997852E+04</rscale>
<asrwt>0</asrwt>
<pdfrwt beam="1">  1        2 0.24510544E+00 0.18997852E+04</pdfrwt>
<pdfrwt beam="2">  1       -1 0.87130326E-01 0.18997852E+04</pdfrwt>
<totfact> 0.15570721E+01</totfact>
</mgrwt>
</event>
<event>
12    7  0.1661464E-007  0.2414657E+04  0.7818608E-02  0.8434037E-01
          2   -1    0    0  501    0  0.00000000000E+00  0.00000000000E+00  0.17976440531E+04  0.17976440531E+04  0.00000000000E+00 0. -1.
         -1   -1    0    0    0  501 -0.00000000000E+00 -0.00000000000E+00 -0.81086222941E+03  0.81086222941E+03  0.00000000000E+00 0.  1.
         24    2    1    2    0    0 -0.99889390147E+03 -0.96446000180E+02  0.70988585821E+03  0.12330728063E+04  0.97158409323E+02 0.  0.
        254    2    1    2    0    0  0.99889390147E+03  0.96446000180E+02  0.27689596552E+03  0.13754334763E+04  0.89891880313E+03 0.  0.
         23    2    4    4    0    0  0.13087247808E+03 -0.20701501193E+03  0.36303554508E+03  0.44739756825E+03  0.91580327579E+02 0.  0.
         23    2    4    4    0    0  0.86802142339E+03  0.30346101211E+03 -0.86139579554E+02  0.92803590804E+03  0.90999132474E+02 0.  0.
          4    1    3    3  502    0 -0.21515788005E+03  0.10371920588E+02  0.18326876370E+03  0.28282137443E+03  0.00000000000E+00 0. -1.
         -3    1    3    3    0  502 -0.78373602142E+03 -0.10681792077E+03  0.52661709451E+03  0.95025143183E+03  0.00000000000E+00 0.  1.
         13    1    5    5    0    0  0.48206371493E+01  0.88972198867E+01  0.68301827718E+01  0.12208622401E+02  0.00000000000E+00 0. -1.
        -13    1    5    5    0    0  0.12605184093E+03 -0.21591223182E+03  0.35620536231E+03  0.43518894585E+03  0.00000000000E+00 0.  1.
          3    1    6    6  503    0  0.51728099910E+03  0.21700605197E+03 -0.80900556860E+02  0.56675934816E+03  0.00000000000E+00 0. -1.
         -3    1    6    6    0  503  0.35074042428E+03  0.86454960147E+02 -0.52390226939E+01  0.36127655988E+03  0.00000000000E+00 0.  1.
<mgrwt>
<rscale>  0 0.24146566E+04</rscale>
<asrwt>0</asrwt>
<pdfrwt beam="1">  1        2 0.27656062E+00 0.24146566E+04</pdfrwt>
<pdfrwt beam="2">  1       -1 0.12474804E+00 0.24146566E+04</pdfrwt>
<totfact> 0.49769973E+00</totfact>
</mgrwt>
</event>
<event>
12    7  0.1661464E-007  0.3513330E+04  0.7818608E-02  0.8110638E-01
          2   -1    0    0  501    0  0.00000000000E+00  0.00000000000E+00  0.19383464224E+04  0.19383464224E+04  0.00000000000E+00 0. -1.
         -1   -1    0    0    0  501 -0.00000000000E+00 -0.00000000000E+00 -0.15920126005E+04  0.15920126005E+04  0.00000000000E+00 0.  1.
         24    2    1    2    0    0 -0.74980035019E+02  0.78260594887E+03  0.16079472312E+04  0.17916476402E+04  0.80080531186E+02 0.  0.
        254    2    1    2    0    0  0.74980035019E+02 -0.78260594887E+03 -0.12616134093E+04  0.17387113827E+04  0.90186185254E+03 0.  0.
         23    2    4    4    0    0 -0.64399647484E+02 -0.72142835613E+03 -0.13528464864E+04  0.15369424324E+04  0.85978121417E+02 0.  0.
         23    2    4    4    0    0  0.13937968250E+03 -0.61177592735E+02  0.91233077052E+02  0.20176895030E+03  0.96009589143E+02 0.  0.
          4    1    3    3  502    0 -0.61383092262E+02  0.76575725288E+03  0.15538504810E+04  0.17333791771E+04  0.00000000000E+00 0. -1.
         -3    1    3    3    0  502 -0.13596942757E+02  0.16848695989E+02  0.54096750155E+02  0.58268463050E+02  0.00000000000E+00 0.  1.
         13    1    5    5    0    0 -0.44679108707E+02 -0.44101345773E+03 -0.91339236191E+03  0.10152707518E+04  0.00000000000E+00 0.  1.
        -13    1    5    5    0    0 -0.19720538778E+02 -0.28041489840E+03 -0.43945412445E+03  0.52167168065E+03  0.00000000000E+00 0. -1.
          3    1    6    6  503    0  0.13728226124E+03 -0.41480463943E+02  0.10491788869E+03  0.17769302605E+03  0.00000000000E+00 0. -1.
         -3    1    6    6    0  503  0.20974212654E+01 -0.19697128792E+02 -0.13684811640E+02  0.24075924245E+02  0.00000000000E+00 0.  1.
<mgrwt>
<rscale>  0 0.35133300E+04</rscale>
<asrwt>0</asrwt>
<pdfrwt beam="1">  1        2 0.29820714E+00 0.35133300E+04</pdfrwt>
<pdfrwt beam="2">  1       -1 0.24492502E+00 0.35133300E+04</pdfrwt>
<totfact> 0.50810573E-01</totfact>
</mgrwt>
</event>
<event>
12    7  0.1661464E-007  0.2017805E+04  0.7818608E-02  0.8598341E-01
         -1   -1    0    0    0  501 -0.00000000000E+00  0.00000000000E+00  0.37335442731E+03  0.37335442731E+03  0.00000000000E+00 0.  1.
          2   -1    0    0  501    0  0.00000000000E+00 -0.00000000000E+00 -0.27263212205E+04  0.27263212205E+04  0.00000000000E+00 0. -1.
         24    2    1    2    0    0  0.42414165709E+03 -0.11966143296E+03  0.92489602646E+02  0.45760195674E+03  0.81426165304E+02 0.  0.
        254    2    1    2    0    0 -0.42414165709E+03  0.11966143296E+03 -0.24454563958E+04  0.26420736911E+04  0.89782036138E+03 0.  0.
         23    2    4    4    0    0  0.20487175437E+03 -0.87529760546E+02 -0.12438880767E+04  0.12670497019E+04  0.92322829663E+02 0.  0.
         23    2    4    4    0    0 -0.62901341146E+03  0.20719119351E+03 -0.12015683191E+04  0.13750239892E+04  0.91315294001E+02 0.  0.
          2    1    3    3  502    0  0.22275540560E+03 -0.21984069097E+02  0.35487227256E+02  0.22663321318E+03  0.00000000000E+00 0. -1.
         -1    1    3    3    0  502  0.20138625149E+03 -0.97677363865E+02  0.57002375390E+02  0.23096874355E+03  0.00000000000E+00 0.  1.
         13    1    5    5    0    0  0.44382346190E+02  0.19054686925E+02 -0.27065355314E+03  0.27492948110E+03  0.00000000000E+00 0.  1.
        -13    1    5    5    0    0  0.16048940818E+03 -0.10658444747E+03 -0.97323452358E+03  0.99212022077E+03  0.00000000000E+00 0. -1.
          3    1    6    6  503    0 -0.45143412061E+03  0.18546693196E+03 -0.83615644720E+03  0.96816752285E+03  0.00000000000E+00 0. -1.
         -3    1    6    6    0  503 -0.17757929085E+03  0.21724261545E+02 -0.36541187192E+03  0.40685646636E+03  0.00000000000E+00 0.  1.
<mgrwt>
<rscale>  0 0.20178048E+04</rscale>
<asrwt>0</asrwt>
<pdfrwt beam="1">  1        2 0.41943403E+00 0.20178048E+04</pdfrwt>
<pdfrwt beam="2">  1       -1 0.57439144E-01 0.20178048E+04</pdfrwt>
<totfact> 0.83112350E+00</totfact>
</mgrwt>
</event>
<event>
12    7  0.1661464E-007  0.1712654E+04  0.7818608E-02  0.8754180E-01
         -1   -1    0    0    0  501 -0.00000000000E+00  0.00000000000E+00  0.95813872101E+03  0.95813872101E+03  0.00000000000E+00 0.  1.
          2   -1    0    0  501    0  0.00000000000E+00 -0.00000000000E+00 -0.76533354232E+03  0.76533354232E+03  0.00000000000E+00 0. -1.
         24    2    1    2    0    0 -0.57112791805E+03 -0.65198235035E+02 -0.20810810982E+03  0.61693848408E+03  0.82862531562E+02 0.  0.
        254    2    1    2    0    0  0.57112791805E+03  0.65198235035E+02  0.40091328851E+03  0.11065337792E+04  0.85629879778E+03 0.  0.
         23    2    4    4    0    0  0.47427673373E+03 -0.34158227902E+03  0.31540488001E+03  0.67025142389E+03  0.90221169357E+02 0.  0.
         23    2    4    4    0    0  0.96851184325E+02  0.40678051406E+03  0.85508408500E+02  0.43628235535E+03  0.90443723641E+02 0.  0.
          2    1    3    3  502    0 -0.45408171545E+03 -0.34222439502E+02 -0.19425784611E+03  0.49507321726E+03  0.00000000000E+00 0. -1.
         -1    1    3    3    0  502 -0.11704620260E+03 -0.30975795533E+02 -0.13850263703E+02  0.12186526681E+03  0.00000000000E+00 0.  1.
         13    1    5    5    0    0  0.34058283554E+01  0.80417733745E+00  0.14459038922E+02  0.14876497388E+02  0.00000000000E+00 0. -1.
        -13    1    5    5    0    0  0.47087090537E+03 -0.34238645636E+03  0.30094584108E+03  0.65537492650E+03  0.00000000000E+00 0.  1.
          4    1    6    6  503    0  0.57855692382E+02  0.14840670441E+03 -0.60651578278E+01  0.15940080676E+03  0.00000000000E+00 0. -1.
         -4    1    6    6    0  503  0.38995491942E+02  0.25837380965E+03  0.91573566328E+02  0.27688154860E+03  0.00000000000E+00 0.  1.
<mgrwt>
<rscale>  0 0.17126537E+04</rscale>
<asrwt>0</asrwt>
<pdfrwt beam="1">  1        2 0.11774362E+00 0.17126537E+04</pdfrwt>
<pdfrwt beam="2">  1       -1 0.14740596E+00 0.17126537E+04</pdfrwt>
<totfact> 0.14495556E+01</totfact>
</mgrwt>
</event>
<event>
12    7  0.1661464E-007  0.1457885E+04  0.7818608E-02  0.8912952E-01
          2   -1    0    0  501    0  0.00000000000E+00  0.00000000000E+00  0.22896880630E+04  0.22896880630E+04  0.00000000000E+00 0. -1.
         -1   -1    0    0    0  501 -0.00000000000E+00 -0.00000000000E+00 -0.23206518230E+03  0.23206518230E+03  0.00000000000E+00 0.  1.
         24    2    1    2    0    0 -0.32222591746E+03 -0.17190840394E+03  0.19820379045E+03  0.42304627415E+03  0.79381145738E+02 0.  0.
        254    2    1    2    0    0  0.32222591746E+03  0.17190840394E+03  0.18594190903E+04  0.20987069712E+04  0.90208068173E+03 0.  0.
         23    2    4    4    0    0 -0.27133636339E+03  0.14899488606E+02  0.98929870135E+03  0.10298018246E+04  0.89075588901E+02 0.  0.
         23    2    4    4    0    0  0.59356228084E+03  0.15700891533E+03  0.87012038895E+03  0.10689051466E+04  0.92090935928E+02 0.  0.
          4    1    3    3  502    0 -0.75755943082E+02 -0.80720160490E+02  0.65772036375E+02  0.12876594267E+03  0.00000000000E+00 0. -1.
         -3    1    3    3    0  502 -0.24646997437E+03 -0.91188243450E+02  0.13243175407E+03  0.29428033148E+03  0.00000000000E+00 0.  1.
         13    1    5    5    0    0 -0.13162126808E+03 -0.19432930846E+02  0.60495379229E+03  0.61941172722E+03  0.00000000000E+00 0. -1.
        -13    1    5    5    0    0 -0.13971509531E+03  0.34332419452E+02  0.38434490906E+03  0.41039009735E+03  0.00000000000E+00 0.  1.
          3    1    6    6  503    0  0.26277418645E+03  0.78104178774E+02  0.31183324795E+03  0.41519936215E+03  0.00000000000E+00 0. -1.
         -3    1    6    6    0  503  0.33078809439E+03  0.78904736560E+02  0.55828714100E+03  0.65370578447E+03  0.00000000000E+00 0.  1.
<mgrwt>
<rscale>  0 0.14578846E+04</rscale>
<asrwt>0</asrwt>
<pdfrwt beam="1">  1        2 0.35225969E+00 0.14578846E+04</pdfrwt>
<pdfrwt beam="2">  1       -1 0.35702337E-01 0.14578846E+04</pdfrwt>
<totfact> 0.38046707E+01</totfact>
</mgrwt>
</event>
<event>
12    7  0.1661464E-007  0.1398773E+04  0.7818608E-02  0.8954707E-01
         -1   -1    0    0    0  501 -0.00000000000E+00  0.00000000000E+00  0.42526631324E+03  0.42526631324E+03  0.00000000000E+00 0.  1.
          2   -1    0    0  501    0  0.00000000000E+00 -0.00000000000E+00 -0.11501999451E+04  0.11501999451E+04  0.00000000000E+00 0. -1.
         24    2    1    2    0    0 -0.33369783179E+03  0.19654178359E+03 -0.70768041415E+01  0.39545805114E+03  0.79712442029E+02 0.  0.
        254    2    1    2    0    0  0.33369783179E+03 -0.19654178359E+03 -0.71785682771E+03  0.11800082072E+04  0.85271216030E+03 0.  0.
         23    2    4    4    0    0 -0.23474485632E+03  0.71254479505E+02 -0.64285031325E+02  0.26785803967E+03  0.86214939237E+02 0.  0.
         23    2    4    4    0    0  0.56844268811E+03 -0.26779626309E+03 -0.65357179639E+03  0.91215016752E+03  0.10009948493E+03 0.  0.
          2    1    3    3  502    0 -0.22343378102E+02  0.40803814050E+02  0.69847280938E+01  0.47042153571E+02  0.00000000000E+00 0. -1.
         -1    1    3    3    0  502 -0.31135445369E+03  0.15573796954E+03 -0.14061532235E+02  0.34841589757E+03  0.00000000000E+00 0.  1.
         13    1    5    5    0    0 -0.23291874857E+03  0.74437225844E+02 -0.75615089293E+02  0.25594859983E+03  0.00000000000E+00 0. -1.
        -13    1    5    5    0    0 -0.18261077467E+01 -0.31827463387E+01  0.11330057968E+02  0.11909439841E+02  0.00000000000E+00 0.  1.
          4    1    6    6  503    0  0.57271944710E+03 -0.26699849472E+03 -0.64823543248E+03  0.90526511984E+03  0.00000000000E+00 0. -1.
         -4    1    6    6    0  503 -0.42767589918E+01 -0.79776837379E+00 -0.53363639101E+01  0.68850476857E+01  0.00000000000E+00 0.  1.
<mgrwt>
<rscale>  0 0.13987727E+04</rscale>
<asrwt>0</asrwt>
<pdfrwt beam="1">  1        2 0.17695383E+00 0.13987727E+04</pdfrwt>
<pdfrwt beam="2">  1       -1 0.65425588E-01 0.13987727E+04</pdfrwt>
<totfact> 0.53358716E+01</totfact>
</mgrwt>
</event>
<event>
12    7  0.1661464E-007  0.2894388E+04  0.7818608E-02  0.8274549E-01
         -1   -1    0    0    0  501 -0.00000000000E+00  0.00000000000E+00  0.77696662535E+03  0.77696662535E+03  0.00000000000E+00 0.  1.
          2   -1    0    0  501    0  0.00000000000E+00 -0.00000000000E+00 -0.26955735791E+04  0.26955735791E+04  0.00000000000E+00 0. -1.
         24    2    1    2    0    0  0.77519178417E+03 -0.10534162906E+04 -0.82216818284E+03  0.15469887889E+04  0.81274896140E+02 0.  0.
        254    2    1    2    0    0 -0.77519178417E+03  0.10534162906E+04 -0.10964387709E+04  0.19255514155E+04  0.89160646697E+03 0.  0.
         23    2    4    4    0    0 -0.50433087315E+03  0.85916404636E+03 -0.28115011072E+03  0.10394621957E+04  0.94465778952E+02 0.  0.
         23    2    4    4    0    0 -0.27086091102E+03  0.19425224421E+03 -0.81528866017E+03  0.88608921979E+03  0.96741606978E+02 0.  0.
          2    1    3    3  502    0  0.72372268912E+02 -0.12065996484E+03 -0.11463696024E+03  0.18148885662E+03  0.00000000000E+00 0. -1.
         -1    1    3    3    0  502  0.70281951526E+03 -0.93275632572E+03 -0.70753122259E+03  0.13654999323E+04  0.00000000000E+00 0.  1.
         13    1    5    5    0    0 -0.43848136838E+02  0.58819334947E+02 -0.46124903331E+02  0.86659563667E+02  0.00000000000E+00 0. -1.
        -13    1    5    5    0    0 -0.46048273631E+03  0.80034471141E+03 -0.23502520739E+03  0.95280263204E+03  0.00000000000E+00 0.  1.
          3    1    6    6  503    0 -0.36294091329E+02  0.46384692735E+02 -0.24477551466E+03  0.25176150095E+03  0.00000000000E+00 0. -1.
         -3    1    6    6    0  503 -0.23456681970E+03  0.14786755147E+03 -0.57051314551E+03  0.63432771883E+03  0.00000000000E+00 0.  1.
<mgrwt>
<rscale>  0 0.28943882E+04</rscale>
<asrwt>0</asrwt>
<pdfrwt beam="1">  1        2 0.41470363E+00 0.28943882E+04</pdfrwt>
<pdfrwt beam="2">  1       -1 0.11953333E+00 0.28943882E+04</pdfrwt>
<totfact> 0.16381803E+00</totfact>
</mgrwt>
</event>
<event>
12    7  0.1661464E-007  0.1335108E+04  0.7818608E-02  0.9002178E-01
         -1   -1    0    0    0  501 -0.00000000000E+00  0.00000000000E+00  0.35452538814E+03  0.35452538814E+03  0.00000000000E+00 0.  1.
          2   -1    0    0  501    0  0.00000000000E+00 -0.00000000000E+00 -0.12569714997E+04  0.12569714997E+04  0.00000000000E+00 0. -1.
         24    2    1    2    0    0  0.34612662423E+03 -0.62734760161E+02 -0.20999609977E+03  0.41740545015E+03  0.79935334847E+02 0.  0.
        254    2    1    2    0    0 -0.34612662423E+03  0.62734760161E+02 -0.69245001176E+03  0.11940914377E+04  0.90698845228E+03 0.  0.
         23    2    4    4    0    0 -0.11246591142E+03 -0.34368690637E+03 -0.60257786180E+03  0.70861545067E+03  0.90920330824E+02 0.  0.
         23    2    4    4    0    0 -0.23366071281E+03  0.40642166653E+03 -0.89872149958E+02  0.48547598699E+03  0.88510060802E+02 0.  0.
          4    1    3    3  502    0  0.51487187495E+02 -0.38441006647E+02 -0.26885148731E+02  0.69652370315E+02  0.00000000000E+00 0. -1.
         -3    1    3    3    0  502  0.29463943674E+03 -0.24293753514E+02 -0.18311095104E+03  0.34775307983E+03  0.00000000000E+00 0.  1.
         13    1    5    5    0    0 -0.42295608084E+02 -0.31078558775E+02 -0.85595991245E+02  0.10040651869E+03  0.00000000000E+00 0. -1.
        -13    1    5    5    0    0 -0.70170303336E+02 -0.31260834760E+03 -0.51698187055E+03  0.60820893198E+03  0.00000000000E+00 0.  1.
          1    1    6    6  503    0 -0.78582171205E+02  0.12936315886E+03  0.12493490600E+02  0.15187518497E+03  0.00000000000E+00 0. -1.
         -1    1    6    6    0  503 -0.15507854161E+03  0.27705850767E+03 -0.10236564056E+03  0.33360080202E+03  0.00000000000E+00 0.  1.
<mgrwt>
<rscale>  0 0.13351079E+04</rscale>
<asrwt>0</asrwt>
<pdfrwt beam="1">  1        2 0.19338023E+00 0.13351079E+04</pdfrwt>
<pdfrwt beam="2">  1       -1 0.54542368E-01 0.13351079E+04</pdfrwt>
<totfact> 0.66310481E+01</totfact>
</mgrwt>
</event>
<event>
12    7  0.1661464E-007  0.1190226E+04  0.7818608E-02  0.9121455E-01
          2   -1    0    0  501    0  0.00000000000E+00  0.00000000000E+00  0.15176450929E+04  0.15176450929E+04  0.00000000000E+00 0. -1.
         -1   -1    0    0    0  501 -0.00000000000E+00 -0.00000000000E+00 -0.23336121030E+03  0.23336121030E+03  0.00000000000E+00 0.  1.
         24    2    1    2    0    0  0.47497982818E+02  0.13024099186E+02  0.59436771045E+03  0.59963490343E+03  0.62155906018E+02 0.  0.
        254    2    1    2    0    0 -0.47497982818E+02 -0.13024099186E+02  0.68991617219E+03  0.11513713998E+04  0.92045971673E+03 0.  0.
         23    2    4    4    0    0  0.90103254942E+02 -0.41664399722E+03  0.52871215584E+03  0.68553083581E+03  0.93301479835E+02 0.  0.
         23    2    4    4    0    0 -0.13760123776E+03  0.40361989803E+03  0.16120401635E+03  0.46584056400E+03  0.95799652748E+02 0.  0.
          4    1    3    3  502    0  0.52673915499E+02 -0.30531715206E+01  0.54309506735E+03  0.54565200944E+03  0.00000000000E+00 0. -1.
         -3    1    3    3    0  502 -0.51759326817E+01  0.16077270707E+02  0.51272643102E+02  0.53982893987E+02  0.00000000000E+00 0.  1.
         13    1    5    5    0    0  0.63503904482E+02 -0.10001037835E+03  0.15164524569E+03  0.19243466996E+03  0.00000000000E+00 0. -1.
        -13    1    5    5    0    0  0.26599350460E+02 -0.31663361887E+03  0.37706691015E+03  0.49309616585E+03  0.00000000000E+00 0.  1.
          4    1    6    6  503    0 -0.14427416258E+03  0.31598307305E+03  0.14528034638E+03  0.37651920998E+03  0.00000000000E+00 0. -1.
         -4    1    6    6    0  503  0.66729248254E+01  0.87636824984E+02  0.15923669963E+02  0.89321354020E+02  0.00000000000E+00 0.  1.
<mgrwt>
<rscale>  0 0.11902260E+04</rscale>
<asrwt>0</asrwt>
<pdfrwt beam="1">  1        2 0.23348385E+00 0.11902260E+04</pdfrwt>
<pdfrwt beam="2">  1       -1 0.35901726E-01 0.11902260E+04</pdfrwt>
<totfact> 0.10340669E+02</totfact>
</mgrwt>
</event>
<event>
12    7  0.1661464E-007  0.1549119E+04  0.7818608E-02  0.8852431E-01
         -1   -1    0    0    0  501 -0.00000000000E+00  0.00000000000E+00  0.42024732968E+03  0.42024732968E+03  0.00000000000E+00 0.  1.
          2   -1    0    0  501    0  0.00000000000E+00 -0.00000000000E+00 -0.14275931429E+04  0.14275931429E+04  0.00000000000E+00 0. -1.
         24    2    1    2    0    0  0.48164890113E+03  0.28851384673E+02 -0.52807924622E+03  0.71981400320E+03  0.80289741286E+02 0.  0.
        254    2    1    2    0    0 -0.48164890113E+03 -0.28851384673E+02 -0.47926656699E+03  0.11280264694E+04  0.89996066972E+03 0.  0.
         23    2    4    4    0    0 -0.70574920647E+03  0.13584359000E+03 -0.38345344048E+03  0.81983673784E+03  0.92521955878E+02 0.  0.
         23    2    4    4    0    0  0.22410030534E+03 -0.16469497467E+03 -0.95813126515E+02  0.30818973154E+03  0.91953106961E+02 0.  0.
          2    1    3    3  502    0  0.44180552732E+03  0.35577735439E+01 -0.48195808407E+03  0.65382595278E+03  0.00000000000E+00 0. -1.
         -1    1    3    3    0  502  0.39843373805E+02  0.25293611129E+02 -0.46121162149E+02  0.65988050419E+02  0.00000000000E+00 0.  1.
         13    1    5    5    0    0 -0.60373332163E+03  0.11617065104E+03 -0.28868399330E+03  0.67921130129E+03  0.00000000000E+00 0.  1.
        -13    1    5    5    0    0 -0.10201588484E+03  0.19672938956E+02 -0.94769447179E+02  0.14062543655E+03  0.00000000000E+00 0. -1.
          4    1    6    6  503    0  0.52929509251E+02 -0.50082664749E+02  0.14823625852E+02  0.74360918104E+02  0.00000000000E+00 0. -1.
         -4    1    6    6    0  503  0.17117079609E+03 -0.11461230992E+03 -0.11063675237E+03  0.23382881344E+03  0.00000000000E+00 0.  1.
<mgrwt>
<rscale>  0 0.15491187E+04</rscale>
<asrwt>0</asrwt>
<pdfrwt beam="1">  1        2 0.21962971E+00 0.15491187E+04</pdfrwt>
<pdfrwt beam="2">  1       -1 0.64653436E-01 0.15491187E+04</pdfrwt>
<totfact> 0.37134497E+01</totfact>
</mgrwt>
</event>
<event>
12    7  0.1661464E-007  0.1457127E+04  0.7818608E-02  0.8913475E-01
          2   -1    0    0  501    0  0.00000000000E+00  0.00000000000E+00  0.15443656630E+04  0.15443656630E+04  0.00000000000E+00 0. -1.
         -1   -1    0    0    0  501 -0.00000000000E+00 -0.00000000000E+00 -0.34370389996E+03  0.34370389996E+03  0.00000000000E+00 0.  1.
         24    2    1    2    0    0  0.37888185558E+03  0.22272964863E+02  0.68828900268E+03  0.79008888589E+03  0.80319057219E+02 0.  0.
        254    2    1    2    0    0 -0.37888185558E+03 -0.22272964863E+02  0.51237276032E+03  0.10979806770E+04  0.89386138530E+03 0.  0.
         23    2    4    4    0    0  0.19930085613E+03 -0.19648373124E+03  0.36583716191E+03  0.46952906199E+03  0.91071527489E+02 0.  0.
         23    2    4    4    0    0 -0.57818271171E+03  0.17421076638E+03  0.14653559841E+03  0.62845161503E+03  0.93989954724E+02 0.  0.
          4    1    3    3  502    0  0.34215585698E+02 -0.23157885237E+01  0.25852856217E+02  0.42946936511E+02  0.00000000000E+00 0. -1.
         -3    1    3    3    0  502  0.34466626988E+03  0.24588753386E+02  0.66243614646E+03  0.74714194938E+03  0.00000000000E+00 0.  1.
         13    1    5    5    0    0  0.14782389824E+03 -0.82877704954E+02  0.21728408468E+03  0.27555941705E+03  0.00000000000E+00 0. -1.
        -13    1    5    5    0    0  0.51476957888E+02 -0.11360602629E+03  0.14855307723E+03  0.19396964494E+03  0.00000000000E+00 0.  1.
          2    1    6    6  503    0 -0.13234383812E+03  0.76874453169E+02  0.16452590247E+02  0.15393265009E+03  0.00000000000E+00 0.  1.
         -2    1    6    6    0  503 -0.44583887359E+03  0.97336313211E+02  0.13008300816E+03  0.47451896493E+03  0.00000000000E+00 0. -1.
<mgrwt>
<rscale>  0 0.14571266E+04</rscale>
<asrwt>0</asrwt>
<pdfrwt beam="1">  1        2 0.23759471E+00 0.14571266E+04</pdfrwt>
<pdfrwt beam="2">  1       -1 0.52877524E-01 0.14571266E+04</pdfrwt>
<totfact> 0.47713311E+01</totfact>
</mgrwt>
</event>
<event>
12    7  0.1661464E-007  0.1521388E+04  0.7818608E-02  0.8870353E-01
          2   -1    0    0  501    0  0.00000000000E+00  0.00000000000E+00  0.58142445850E+03  0.58142445850E+03  0.00000000000E+00 0. -1.
         -1   -1    0    0    0  501 -0.00000000000E+00 -0.00000000000E+00 -0.99523779690E+03  0.99523779690E+03  0.00000000000E+00 0.  1.
         24    2    1    2    0    0  0.32924789739E+03 -0.16738660995E+03  0.18398902828E+03  0.42024608614E+03  0.79576097316E+02 0.  0.
        254    2    1    2    0    0 -0.32924789739E+03  0.16738660995E+03 -0.59780236668E+03  0.11564161693E+04  0.91842704216E+03 0.  0.
         23    2    4    4    0    0 -0.25924051954E+03 -0.32666132487E+03 -0.86167125063E+02  0.43591729002E+03  0.93197865610E+02 0.  0.
         23    2    4    4    0    0 -0.70007377848E+02  0.49404793482E+03 -0.51163524162E+03  0.72049887924E+03  0.91452827508E+02 0.  0.
          4    1    3    3  502    0  0.22296261656E+03 -0.11899923183E+03  0.16527400085E+03  0.30197456998E+03  0.00000000000E+00 0. -1.
         -3    1    3    3    0  502  0.10628528083E+03 -0.48387378125E+02  0.18715027425E+02  0.11827151616E+03  0.00000000000E+00 0.  1.
         13    1    5    5    0    0 -0.18129011894E+03 -0.25744959802E+03 -0.26943652442E+02  0.31602589000E+03  0.00000000000E+00 0.  1.
        -13    1    5    5    0    0 -0.77950400605E+02 -0.69211726855E+02 -0.59223472620E+02  0.11989140002E+03  0.00000000000E+00 0. -1.
          3    1    6    6  503    0 -0.19011873877E+02  0.30981852844E+02 -0.14333225547E+02  0.39073877572E+02  0.00000000000E+00 0. -1.
         -3    1    6    6    0  503 -0.50995503971E+02  0.46306608198E+03 -0.49730201607E+03  0.68142500166E+03  0.00000000000E+00 0.  1.
<mgrwt>
<rscale>  0 0.15213883E+04</rscale>
<asrwt>0</asrwt>
<pdfrwt beam="1">  1        2 0.89449918E-01 0.15213883E+04</pdfrwt>
<pdfrwt beam="2">  1       -1 0.15311351E+00 0.15213883E+04</pdfrwt>
<totfact> 0.18740265E+01</totfact>
</mgrwt>
</event>
<event>
12    7  0.1661464E-007  0.3785280E+04  0.7818608E-02  0.8049321E-01
         -1   -1    0    0    0  501 -0.00000000000E+00  0.00000000000E+00  0.15866444556E+04  0.15866444556E+04  0.00000000000E+00 0.  1.
          2   -1    0    0  501    0  0.00000000000E+00 -0.00000000000E+00 -0.22576484042E+04  0.22576484042E+04  0.00000000000E+00 0. -1.
         24    2    1    2    0    0 -0.72455290443E+03 -0.23702341640E+03 -0.19535980023E+04  0.20987280602E+04  0.83410461265E+02 0.  0.
        254    2    1    2    0    0  0.72455290443E+03  0.23702341640E+03  0.12825940537E+04  0.17455647995E+04  0.90597569035E+03 0.  0.
         23    2    4    4    0    0 -0.19112710122E+03 -0.17984137614E+02  0.35504812533E+03  0.41447898966E+03  0.94237272588E+02 0.  0.
         23    2    4    4    0    0  0.91568000565E+03  0.25500755401E+03  0.92754592838E+03  0.13310858099E+04  0.89158614997E+02 0.  0.
          2    1    3    3  502    0 -0.70582348649E+03 -0.21545248021E+03 -0.18680415935E+04  0.20085283071E+04  0.00000000000E+00 0. -1.
         -1    1    3    3    0  502 -0.18729417937E+02 -0.21570936189E+02 -0.85556408780E+02  0.90199753146E+02  0.00000000000E+00 0.  1.
         13    1    5    5    0    0 -0.17153992971E+03  0.35352975906E+01  0.23509334515E+03  0.29104523145E+03  0.00000000000E+00 0. -1.
        -13    1    5    5    0    0 -0.19587171506E+02 -0.21519435205E+02  0.11995478017E+03  0.12343375821E+03  0.00000000000E+00 0.  1.
          2    1    6    6  503    0  0.79564244028E+03  0.24502805937E+03  0.83571906980E+03  0.11796236715E+04  0.00000000000E+00 0. -1.
         -2    1    6    6    0  503  0.12003756537E+03  0.99794946432E+01  0.91826858584E+02  0.15146213840E+03  0.00000000000E+00 0.  1.
<mgrwt>
<rscale>  0 0.37852796E+04</rscale>
<asrwt>0</asrwt>
<pdfrwt beam="1">  1        2 0.34733052E+00 0.37852796E+04</pdfrwt>
<pdfrwt beam="2">  1       -1 0.24409915E+00 0.37852796E+04</pdfrwt>
<totfact> 0.33326554E-01</totfact>
</mgrwt>
</event>
<event>
12    7  0.1661464E-007  0.2145987E+04  0.7818608E-02  0.8541252E-01
          2   -1    0    0  501    0  0.00000000000E+00  0.00000000000E+00  0.97300107720E+03  0.97300107720E+03  0.00000000000E+00 0. -1.
         -1   -1    0    0    0  501 -0.00000000000E+00 -0.00000000000E+00 -0.11832621432E+04  0.11832621432E+04  0.00000000000E+00 0.  1.
         24    2    1    2    0    0  0.52055628538E+03 -0.66251741155E+03  0.17234572062E+03  0.86407919025E+03  0.83795183328E+02 0.  0.
        254    2    1    2    0    0 -0.52055628538E+03  0.66251741155E+03 -0.38260678663E+03  0.12921840302E+04  0.90191099769E+03 0.  0.
         23    2    4    4    0    0  0.84199735014E+02  0.58043903505E+03 -0.60752448814E+02  0.59650099708E+03  0.90130520283E+02 0.  0.
         23    2    4    4    0    0 -0.60475602040E+03  0.82078376500E+02 -0.32185433782E+03  0.69568303308E+03  0.88982940237E+02 0.  0.
          4    1    3    3  502    0  0.92112321633E+02 -0.88302376948E+02  0.17731839724E+01  0.12761321935E+03  0.00000000000E+00 0. -1.
         -3    1    3    3    0  502  0.42844396375E+03 -0.57421503461E+03  0.17057253665E+03  0.73646597090E+03  0.00000000000E+00 0.  1.
         13    1    5    5    0    0  0.12378245987E+02  0.83409219864E+02  0.22929040710E+02  0.87384551495E+02  0.00000000000E+00 0. -1.
        -13    1    5    5    0    0  0.71821489026E+02  0.49702981519E+03 -0.83681489524E+02  0.50911644558E+03  0.00000000000E+00 0.  1.
          4    1    6    6  503    0 -0.91565630582E+02 -0.19413672269E+02 -0.46734567669E+02  0.10461966923E+03  0.00000000000E+00 0. -1.
         -4    1    6    6    0  503 -0.51319038982E+03  0.10149204877E+03 -0.27511977015E+03  0.59106336385E+03  0.00000000000E+00 0.  1.
<mgrwt>
<rscale>  0 0.21459873E+04</rscale>
<asrwt>0</asrwt>
<pdfrwt beam="1">  1        2 0.14969247E+00 0.21459873E+04</pdfrwt>
<pdfrwt beam="2">  1       -1 0.18204033E+00 0.21459873E+04</pdfrwt>
<totfact> 0.55253870E+00</totfact>
</mgrwt>
</event>
<event>
12    7  0.1661464E-007  0.2754737E+04  0.7818608E-02  0.8317460E-01
          2   -1    0    0  501    0  0.00000000000E+00  0.00000000000E+00  0.35355965808E+04  0.35355965808E+04  0.00000000000E+00 0. -1.
         -1   -1    0    0    0  501 -0.00000000000E+00 -0.00000000000E+00 -0.53658380676E+03  0.53658380676E+03  0.00000000000E+00 0.  1.
         24    2    1    2    0    0 -0.87199845826E+03 -0.78670441069E+03  0.18711280429E+04  0.22106528652E+04  0.81122107449E+02 0.  0.
        254    2    1    2    0    0  0.87199845826E+03  0.78670441069E+03  0.11278847311E+04  0.18615275224E+04  0.90215054668E+03 0.  0.
         23    2    4    4    0    0  0.60740821352E+03  0.70329044789E+03  0.12356806505E+04  0.15489284281E+04  0.93329595279E+02 0.  0.
         23    2    4    4    0    0  0.26459024474E+03  0.83413962798E+02 -0.10779591942E+03  0.31259909427E+03  0.95563312498E+02 0.  0.
          4    1    3    3  502    0 -0.14717479129E+03 -0.98047184186E+02  0.30656691609E+03  0.35391657712E+03  0.00000000000E+00 0. -1.
         -3    1    3    3    0  502 -0.72482366697E+03 -0.68865722650E+03  0.15645611268E+04  0.18567362881E+04  0.00000000000E+00 0.  1.
         13    1    5    5    0    0  0.18804008645E+03  0.24753628855E+03  0.34909135670E+03  0.46743776439E+03  0.00000000000E+00 0. -1.
        -13    1    5    5    0    0  0.41936812707E+03  0.45575415934E+03  0.88658929380E+03  0.10814906637E+04  0.00000000000E+00 0.  1.
          4    1    6    6  503    0  0.36837524734E+01 -0.35544449702E+00 -0.26517505970E+02  0.26774512058E+02  0.00000000000E+00 0. -1.
         -4    1    6    6    0  503  0.26090649227E+03  0.83769407295E+02 -0.81278413447E+02  0.28582458222E+03  0.00000000000E+00 0.  1.
<mgrwt>
<rscale>  0 0.27547369E+04</rscale>
<asrwt>0</asrwt>
<pdfrwt beam="1">  1        2 0.54393792E+00 0.27547369E+04</pdfrwt>
<pdfrwt beam="2">  1       -1 0.82551357E-01 0.27547369E+04</pdfrwt>
<totfact> 0.11110802E+00</totfact>
</mgrwt>
</event>
<event>
12    7  0.1661464E-007  0.1003942E+04  0.7818608E-02  0.9304232E-01
          2   -1    0    0  501    0  0.00000000000E+00  0.00000000000E+00  0.18947227973E+04  0.18947227973E+04  0.00000000000E+00 0. -1.
         -1   -1    0    0    0  501 -0.00000000000E+00 -0.00000000000E+00 -0.13298770816E+03  0.13298770816E+03  0.00000000000E+00 0.  1.
         24    2    1    2    0    0  0.28732229562E+02 -0.54845009912E+01  0.13273613155E+03  0.16930891743E+03  0.10095052321E+03 0.  0.
        254    2    1    2    0    0 -0.28732229562E+02  0.54845009912E+01  0.16289989576E+04  0.18584015880E+04  0.89395930433E+03 0.  0.
         23    2    4    4    0    0  0.29669876927E+03  0.30394107323E+03  0.67039222973E+03  0.79899352743E+03  0.92490969844E+02 0.  0.
         23    2    4    4    0    0 -0.32543099884E+03 -0.29845657224E+03  0.95860672787E+03  0.10594080606E+04  0.91852706292E+02 0.  0.
          2    1    3    3  502    0 -0.31343223246E+02 -0.17686638009E+02  0.82655577886E+02  0.90150759083E+02  0.00000000000E+00 0. -1.
         -1    1    3    3    0  502  0.60075452809E+02  0.12202137017E+02  0.50080553663E+02  0.79158158348E+02  0.00000000000E+00 0.  1.
         13    1    5    5    0    0  0.50355061102E+02  0.49022500739E+02  0.18526666404E+03  0.19814786035E+03  0.00000000000E+00 0.  1.
        -13    1    5    5    0    0  0.24634370817E+03  0.25491857250E+03  0.48512556569E+03  0.60084566707E+03  0.00000000000E+00 0. -1.
          1    1    6    6  503    0 -0.26394445263E+03 -0.26355563675E+03  0.86587848072E+03  0.94280103475E+03  0.00000000000E+00 0. -1.
         -1    1    6    6    0  503 -0.61486546206E+02 -0.34900935491E+02  0.92728247147E+02  0.11660702587E+03  0.00000000000E+00 0.  1.
<mgrwt>
<rscale>  0 0.10039419E+04</rscale>
<asrwt>0</asrwt>
<pdfrwt beam="1">  1        2 0.29149580E+00 0.10039419E+04</pdfrwt>
<pdfrwt beam="2">  1       -1 0.20459649E-01 0.10039419E+04</pdfrwt>
<totfact> 0.17156281E+02</totfact>
</mgrwt>
</event>
<event>
12    7  0.1661464E-007  0.2427240E+04  0.7818608E-02  0.8429375E-01
          2   -1    0    0  501    0  0.00000000000E+00  0.00000000000E+00  0.12963224460E+04  0.12963224460E+04  0.00000000000E+00 0. -1.
         -1   -1    0    0    0  501 -0.00000000000E+00 -0.00000000000E+00 -0.11361937287E+04  0.11361937287E+04  0.00000000000E+00 0.  1.
         24    2    1    2    0    0  0.47222176801E+03 -0.79070499292E+03 -0.43130925968E+03  0.10199658512E+04  0.78069687508E+02 0.  0.
        254    2    1    2    0    0 -0.47222176801E+03  0.79070499292E+03  0.59143797698E+03  0.14125503235E+04  0.89291195070E+03 0.  0.
         23    2    4    4    0    0 -0.54739672587E+03  0.34446570568E+03 -0.12186066258E+02  0.65255270392E+03  0.85887911213E+02 0.  0.
         23    2    4    4    0    0  0.75174957866E+02  0.44623928725E+03  0.60362404324E+03  0.75999761955E+03  0.91943571673E+02 0.  0.
          2    1    3    3  502    0  0.53775682539E+02 -0.11186454399E+03 -0.32236370401E+02  0.12823682705E+03  0.00000000000E+00 0. -1.
         -1    1    3    3    0  502  0.41844608547E+03 -0.67884044893E+03 -0.39907288928E+03  0.89172902415E+03  0.00000000000E+00 0.  1.
         13    1    5    5    0    0 -0.85965862778E+01  0.13331525052E+02  0.11653295839E+02  0.19683245661E+02  0.00000000000E+00 0. -1.
        -13    1    5    5    0    0 -0.53880013960E+03  0.33113418062E+03 -0.23839362097E+02  0.63286945825E+03  0.00000000000E+00 0.  1.
          4    1    6    6  503    0 -0.19829231513E+02  0.11820591286E+03  0.14316297262E+03  0.18671227326E+03  0.00000000000E+00 0. -1.
         -4    1    6    6    0  503  0.95004189379E+02  0.32803337438E+03  0.46046107063E+03  0.57328534629E+03  0.00000000000E+00 0.  1.
<mgrwt>
<rscale>  0 0.24272399E+04</rscale>
<asrwt>0</asrwt>
<pdfrwt beam="1">  1        2 0.19943422E+00 0.24272399E+04</pdfrwt>
<pdfrwt beam="2">  1       -1 0.17479903E+00 0.24272399E+04</pdfrwt>
<totfact> 0.38551460E+00</totfact>
</mgrwt>
</event>
<event>
12    7  0.1661464E-007  0.1526547E+04  0.7818608E-02  0.8866989E-01
          2   -1    0    0  501    0  0.00000000000E+00  0.00000000000E+00  0.29266582710E+04  0.29266582710E+04  0.00000000000E+00 0. -1.
         -1   -1    0    0    0  501 -0.00000000000E+00 -0.00000000000E+00 -0.19906195609E+03  0.19906195609E+03  0.00000000000E+00 0.  1.
         24    2    1    2    0    0  0.42613976854E+03  0.20891556642E+03  0.56695693792E+03  0.74362297452E+03  0.79335632287E+02 0.  0.
        254    2    1    2    0    0 -0.42613976854E+03 -0.20891556642E+03  0.21606393770E+04  0.23820972525E+04  0.88361982046E+03 0.  0.
         23    2    4    4    0    0 -0.39170416097E+03  0.43148430706E+02  0.30038667651E+03  0.50258699950E+03  0.84069018382E+02 0.  0.
         23    2    4    4    0    0 -0.34435607575E+02 -0.25206399712E+03  0.18602527004E+04  0.18795102530E+04  0.85420208731E+02 0.  0.
          4    1    3    3  502    0  0.35120749722E+03  0.19943034529E+03  0.49950144429E+03  0.64235571264E+03  0.00000000000E+00 0. -1.
         -3    1    3    3    0  502  0.74932271328E+02  0.94852211306E+01  0.67455493633E+02  0.10126726187E+03  0.00000000000E+00 0.  1.
         13    1    5    5    0    0 -0.30689231458E+03  0.61781816864E+02  0.25944145650E+03  0.40658302349E+03  0.00000000000E+00 0.  1.
        -13    1    5    5    0    0 -0.84811846390E+02 -0.18633386158E+02  0.40945220008E+02  0.96003976007E+02  0.00000000000E+00 0. -1.
          4    1    6    6  503    0 -0.50202940809E+02 -0.14615827800E+03  0.88436034293E+03  0.89776154609E+03  0.00000000000E+00 0. -1.
         -4    1    6    6    0  503  0.15767333235E+02 -0.10590571912E+03  0.97589235752E+03  0.98174870695E+03  0.00000000000E+00 0.  1.
<mgrwt>
<rscale>  0 0.15265468E+04</rscale>
<asrwt>0</asrwt>
<pdfrwt beam="1">  1        2 0.45025509E+00 0.15265468E+04</pdfrwt>
<pdfrwt beam="2">  1       -1 0.30624918E-01 0.15265468E+04</pdfrwt>
<totfact> 0.21029691E+01</totfact>
</mgrwt>
</event>
<event>
12    7  0.1661464E-007  0.2500604E+04  0.7818608E-02  0.8402770E-01
         -1   -1    0    0    0  501 -0.00000000000E+00  0.00000000000E+00  0.61924698578E+03  0.61924698578E+03  0.00000000000E+00 0.  1.
          2   -1    0    0  501    0  0.00000000000E+00 -0.00000000000E+00 -0.25244451546E+04  0.25244451546E+04  0.00000000000E+00 0. -1.
         24    2    1    2    0    0  0.21648706858E+02 -0.67565507963E+03 -0.19026060602E+04  0.20206939357E+04  0.79471431088E+02 0.  0.
        254    2    1    2    0    0 -0.21648706858E+02  0.67565507963E+03 -0.25921086451E+01  0.11229982047E+04  0.89673842094E+03 0.  0.
         23    2    4    4    0    0  0.17564263443E+03  0.39906002171E+03 -0.39526126847E+03  0.59562076497E+03  0.91833487141E+02 0.  0.
         23    2    4    4    0    0 -0.19729134128E+03  0.27659505792E+03  0.39266915982E+03  0.52737743973E+03  0.92245300380E+02 0.  0.
          2    1    3    3  502    0  0.51139475247E+02 -0.48682745462E+03 -0.13774479893E+04  0.14618410241E+04  0.00000000000E+00 0. -1.
         -1    1    3    3    0  502 -0.29490768389E+02 -0.18882762501E+03 -0.52515807092E+03  0.55885291163E+03  0.00000000000E+00 0.  1.
         13    1    5    5    0    0  0.36902361530E+01  0.67619804178E+02 -0.32829780457E+02  0.75258555957E+02  0.00000000000E+00 0. -1.
        -13    1    5    5    0    0  0.17195239827E+03  0.33144021753E+03 -0.36243148801E+03  0.52036220902E+03  0.00000000000E+00 0.  1.
          1    1    6    6  503    0 -0.31207618400E+02  0.53424433092E+02  0.13363116450E+03  0.14725954510E+03  0.00000000000E+00 0. -1.
         -1    1    6    6    0  503 -0.16608372288E+03  0.22317062483E+03  0.25903799533E+03  0.38011789463E+03  0.00000000000E+00 0.  1.
<mgrwt>
<rscale>  0 0.25006040E+04</rscale>
<asrwt>0</asrwt>
<pdfrwt beam="1">  1        2 0.38837618E+00 0.25006040E+04</pdfrwt>
<pdfrwt beam="2">  1       -1 0.95268767E-01 0.25006040E+04</pdfrwt>
<totfact> 0.36354080E+00</totfact>
</mgrwt>
</event>
<event>
12    7  0.1661464E-007  0.1455889E+04  0.7818608E-02  0.8914328E-01
         -1   -1    0    0    0  501 -0.00000000000E+00  0.00000000000E+00  0.12954035748E+03  0.12954035748E+03  0.00000000000E+00 0.  1.
          2   -1    0    0  501    0  0.00000000000E+00 -0.00000000000E+00 -0.40906396371E+04  0.40906396371E+04  0.00000000000E+00 0. -1.
         24    2    1    2    0    0  0.28169636352E+03  0.33780613687E+02 -0.24257644788E+03  0.38198317051E+03  0.81079210676E+02 0.  0.
        254    2    1    2    0    0 -0.28169636352E+03 -0.33780613687E+02 -0.37185228317E+04  0.38381968241E+04  0.90766119180E+03 0.  0.
         23    2    4    4    0    0 -0.11576008404E+03  0.14864355626E+03 -0.14438459310E+03  0.25434851864E+03  0.91383556170E+02 0.  0.
         23    2    4    4    0    0 -0.16593627949E+03 -0.18242416994E+03 -0.35741382386E+04  0.35838483054E+04  0.93226073830E+02 0.  0.
          4    1    3    3  502    0  0.74575040147E+02 -0.26846524740E+02 -0.65367299954E+02  0.10273780418E+03  0.00000000000E+00 0. -1.
         -3    1    3    3    0  502  0.20712132338E+03  0.60627138426E+02 -0.17720914792E+03  0.27924536633E+03  0.00000000000E+00 0.  1.
         13    1    5    5    0    0 -0.37583021845E+02  0.51844766039E+02 -0.10652689406E+03  0.12429136114E+03  0.00000000000E+00 0.  1.
        -13    1    5    5    0    0 -0.78177062190E+02  0.96798790218E+02 -0.37857699043E+02  0.13005715750E+03  0.00000000000E+00 0. -1.
          4    1    6    6  503    0 -0.47611965243E+02 -0.11573577912E+03 -0.19694664383E+04  0.19734385528E+04  0.00000000000E+00 0. -1.
         -4    1    6    6    0  503 -0.11832431425E+03 -0.66688390820E+02 -0.16046718003E+04  0.16104097527E+04  0.00000000000E+00 0.  1.
<mgrwt>
<rscale>  0 0.14558886E+04</rscale>
<asrwt>0</asrwt>
<pdfrwt beam="1">  1        2 0.62932911E+00 0.14558886E+04</pdfrwt>
<pdfrwt beam="2">  1       -1 0.19929288E-01 0.14558886E+04</pdfrwt>
<totfact> 0.67290607E+00</totfact>
</mgrwt>
</event>
<event>
12    7  0.1661464E-007  0.1442784E+04  0.7818608E-02  0.8923418E-01
          2   -1    0    0  501    0  0.00000000000E+00  0.00000000000E+00  0.23269640683E+03  0.23269640683E+03  0.00000000000E+00 0. -1.
         -1   -1    0    0    0  501 -0.00000000000E+00 -0.00000000000E+00 -0.22364193380E+04  0.22364193380E+04  0.00000000000E+00 0.  1.
         24    2    1    2    0    0  0.10843046231E+03 -0.36444484467E+03 -0.26644960948E+03  0.47096200116E+03  0.78946831378E+02 0.  0.
        254    2    1    2    0    0 -0.10843046231E+03  0.36444484467E+03 -0.17372733217E+04  0.19981537437E+04  0.91100086670E+03 0.  0.
         23    2    4    4    0    0  0.34614315932E+03  0.14476454012E+03 -0.35875967854E+03  0.52726245517E+03  0.92332718303E+02 0.  0.
         23    2    4    4    0    0 -0.45457362163E+03  0.21968030455E+03 -0.13785136432E+04  0.14708912885E+04  0.91239818833E+02 0.  0.
          2    1    3    3  502    0  0.11966286073E+03 -0.34797167749E+03 -0.24756196400E+03  0.44349793077E+03  0.00000000000E+00 0. -1.
         -1    1    3    3    0  502 -0.11232398416E+02 -0.16473167173E+02 -0.18887645474E+02  0.27464070391E+02  0.00000000000E+00 0.  1.
         13    1    5    5    0    0  0.45041098335E+02 -0.12423729315E+02 -0.44200784783E+02  0.64317641163E+02  0.00000000000E+00 0. -1.
        -13    1    5    5    0    0  0.30110206098E+03  0.15718826944E+03 -0.31455889376E+03  0.46294481401E+03  0.00000000000E+00 0.  1.
          2    1    6    6  503    0 -0.26514326717E+03  0.17722889203E+03 -0.85794709335E+03  0.91530554860E+03  0.00000000000E+00 0. -1.
         -2    1    6    6    0  503 -0.18943035446E+03  0.42451412512E+02 -0.52056654982E+03  0.55558573993E+03  0.00000000000E+00 0.  1.
<mgrwt>
<rscale>  0 0.14427845E+04</rscale>
<asrwt>0</asrwt>
<pdfrwt beam="1">  1        2 0.35799448E-01 0.14427845E+04</pdfrwt>
<pdfrwt beam="2">  1       -1 0.34406451E+00 0.14427845E+04</pdfrwt>
<totfact> 0.27746518E+00</totfact>
</mgrwt>
</event>
<event>
12    7  0.1661464E-007  0.1587776E+04  0.7818608E-02  0.8828093E-01
         -1   -1    0    0    0  501 -0.00000000000E+00  0.00000000000E+00  0.61742553976E+03  0.61742553976E+03  0.00000000000E+00 0.  1.
          2   -1    0    0  501    0  0.00000000000E+00 -0.00000000000E+00 -0.10207836424E+04  0.10207836424E+04  0.00000000000E+00 0. -1.
         24    2    1    2    0    0  0.13657467523E+03 -0.69930384428E+02 -0.62468247295E+03  0.64803560869E+03  0.78606981497E+02 0.  0.
        254    2    1    2    0    0 -0.13657467523E+03  0.69930384428E+02  0.22132437031E+03  0.99017357347E+03  0.95284643470E+03 0.  0.
         23    2    4    4    0    0  0.13997330526E+03 -0.78620730937E+02 -0.31322173278E+03  0.36362721794E+03  0.91340868316E+02 0.  0.
         23    2    4    4    0    0 -0.27654798049E+03  0.14855111537E+03  0.53454610309E+03  0.62654635553E+03  0.90964717958E+02 0.  0.
          2    1    3    3  502    0  0.12926147040E+03 -0.37509554991E+02 -0.55106215764E+03  0.56726095937E+03  0.00000000000E+00 0. -1.
         -1    1    3    3    0  502  0.73132048356E+01 -0.32420829437E+02 -0.73620315312E+02  0.80774649322E+02  0.00000000000E+00 0.  1.
         13    1    5    5    0    0  0.13692590402E+03 -0.39564420360E+02 -0.26988761838E+03  0.30521037516E+03  0.00000000000E+00 0.  1.
        -13    1    5    5    0    0  0.30474012458E+01 -0.39056310577E+02 -0.43334114397E+02  0.58416842784E+02  0.00000000000E+00 0. -1.
          2    1    6    6  503    0 -0.21268971862E+03  0.67497836941E+02  0.38140370764E+03  0.44188421855E+03  0.00000000000E+00 0.  1.
         -2    1    6    6    0  503 -0.63858261871E+02  0.81053278424E+02  0.15314239544E+03  0.18466213698E+03  0.00000000000E+00 0. -1.
<mgrwt>
<rscale>  0 0.15877757E+04</rscale>
<asrwt>0</asrwt>
<pdfrwt beam="1">  1        2 0.15704363E+00 0.15877757E+04</pdfrwt>
<pdfrwt beam="2">  1       -1 0.94988546E-01 0.15877757E+04</pdfrwt>
<totfact> 0.28655909E+01</totfact>
</mgrwt>
</event>
<event>
12    7  0.1661464E-007  0.2320565E+04  0.7818608E-02  0.8469856E-01
         -1   -1    0    0    0  501 -0.00000000000E+00  0.00000000000E+00  0.54937124616E+03  0.54937124616E+03  0.00000000000E+00 0.  1.
          2   -1    0    0  501    0  0.00000000000E+00 -0.00000000000E+00 -0.24505391862E+04  0.24505391862E+04  0.00000000000E+00 0. -1.
         24    2    1    2    0    0  0.35000990779E+03 -0.71561420676E+03 -0.15536203912E+04  0.17476677224E+04  0.77430740324E+02 0.  0.
        254    2    1    2    0    0 -0.35000990779E+03  0.71561420676E+03 -0.34754754889E+03  0.12522427100E+04  0.90150533969E+03 0.  0.
         23    2    4    4    0    0  0.83258326425E+02 -0.12887433483E+03  0.96383060410E+02  0.20056072045E+03  0.85990494588E+02 0.  0.
         23    2    4    4    0    0 -0.43326823422E+03  0.84448854159E+03 -0.44393060930E+03  0.10516819895E+04  0.89879706081E+02 0.  0.
          2    1    3    3  502    0  0.30578202089E+03 -0.64250856748E+03 -0.14318581020E+04  0.15989176113E+04  0.00000000000E+00 0. -1.
         -1    1    3    3    0  502  0.44227886895E+02 -0.73105639280E+02 -0.12176228921E+03  0.14875011108E+03  0.00000000000E+00 0.  1.
         13    1    5    5    0    0  0.26121400987E+02 -0.54103019503E+02  0.87361949039E+02  0.10602629131E+03  0.00000000000E+00 0.  1.
        -13    1    5    5    0    0  0.57136925438E+02 -0.74771315323E+02  0.90211113714E+01  0.94534429146E+02  0.00000000000E+00 0. -1.
          4    1    6    6  503    0 -0.35158885634E+02  0.77710143893E+02 -0.13242653682E+02  0.86315592910E+02  0.00000000000E+00 0. -1.
         -4    1    6    6    0  503 -0.39810934858E+03  0.76677839770E+03 -0.43068795562E+03  0.96536639661E+03  0.00000000000E+00 0.  1.
<mgrwt>
<rscale>  0 0.23205652E+04</rscale>
<asrwt>0</asrwt>
<pdfrwt beam="1">  1        2 0.37700603E+00 0.23205652E+04</pdfrwt>
<pdfrwt beam="2">  1       -1 0.84518653E-01 0.23205652E+04</pdfrwt>
<totfact> 0.53066124E+00</totfact>
</mgrwt>
</event>
<event>
12    7  0.1661464E-007  0.1241823E+04  0.7818608E-02  0.9077016E-01
         -1   -1    0    0    0  501 -0.00000000000E+00  0.00000000000E+00  0.21101797381E+03  0.21101797381E+03  0.00000000000E+00 0.  1.
          2   -1    0    0  501    0  0.00000000000E+00 -0.00000000000E+00 -0.18270069874E+04  0.18270069874E+04  0.00000000000E+00 0. -1.
         24    2    1    2    0    0 -0.18189615220E+03 -0.22402433513E+03 -0.38979255955E+03  0.49156534856E+03  0.80156967961E+02 0.  0.
        254    2    1    2    0    0  0.18189615220E+03  0.22402433513E+03 -0.12261964540E+04  0.15464596126E+04  0.89705433319E+03 0.  0.
         23    2    4    4    0    0  0.31967608040E+03  0.50838125033E+03 -0.71166896997E+03  0.93578104558E+03  0.92569705581E+02 0.  0.
         23    2    4    4    0    0 -0.13777992819E+03 -0.28435691520E+03 -0.51452748405E+03  0.61067856703E+03  0.91365291846E+02 0.  0.
          2    1    3    3  502    0 -0.17422690705E+03 -0.20068223587E+03 -0.38282033819E+03  0.46602552105E+03  0.00000000000E+00 0. -1.
         -1    1    3    3    0  502 -0.76692451517E+01 -0.23342099258E+02 -0.69722213599E+01  0.25539827518E+02  0.00000000000E+00 0.  1.
         13    1    5    5    0    0  0.23766388643E+03  0.32539328484E+03 -0.42203847980E+03  0.58350783299E+03  0.00000000000E+00 0. -1.
        -13    1    5    5    0    0  0.82012193965E+02  0.18298796549E+03 -0.28963049017E+03  0.35227321259E+03  0.00000000000E+00 0.  1.
          1    1    6    6  503    0 -0.13725757839E+03 -0.21395004399E+03 -0.35821485736E+03  0.43924042185E+03  0.00000000000E+00 0. -1.
         -1    1    6    6    0  503 -0.52234980433E+00 -0.70406871217E+02 -0.15631262668E+03  0.17143814518E+03  0.00000000000E+00 0.  1.
<mgrwt>
<rscale>  0 0.12418234E+04</rscale>
<asrwt>0</asrwt>
<pdfrwt beam="1">  1        2 0.28107801E+00 0.12418234E+04</pdfrwt>
<pdfrwt beam="2">  1       -1 0.32464303E-01 0.12418234E+04</pdfrwt>
<totfact> 0.82960737E+01</totfact>
</mgrwt>
</event>
<event>
12    7  0.1661464E-007  0.3306502E+04  0.7818608E-02  0.8161243E-01
         -1   -1    0    0    0  501 -0.00000000000E+00  0.00000000000E+00  0.12188324403E+04  0.12188324403E+04  0.00000000000E+00 0.  1.
          2   -1    0    0  501    0  0.00000000000E+00 -0.00000000000E+00 -0.22425052322E+04  0.22425052322E+04  0.00000000000E+00 0. -1.
         24    2    1    2    0    0  0.38329259944E+03  0.11861759135E+04  0.45447071740E+03  0.13292334610E+04  0.79946521757E+02 0.  0.
        254    2    1    2    0    0 -0.38329259944E+03 -0.11861759135E+04 -0.14781435093E+04  0.21321042115E+04  0.89835049962E+03 0.  0.
         23    2    4    4    0    0 -0.20269906857E+03 -0.81690955693E+03 -0.14868807265E+04  0.17111366538E+04  0.93521208879E+02 0.  0.
         23    2    4    4    0    0 -0.18059353087E+03 -0.36926635655E+03  0.87372171925E+01  0.42096755773E+03  0.90364153431E+02 0.  0.
          2    1    3    3  502    0  0.25598184847E+03  0.75366757208E+03  0.32878651767E+03  0.86118644332E+03  0.00000000000E+00 0. -1.
         -1    1    3    3    0  502  0.12731075097E+03  0.43250834139E+03  0.12568419973E+03  0.46804701767E+03  0.00000000000E+00 0.  1.
         13    1    5    5    0    0 -0.51333991936E+02 -0.11932486075E+03 -0.28609210655E+03  0.31420104162E+03  0.00000000000E+00 0.  1.
        -13    1    5    5    0    0 -0.15136507663E+03 -0.69758469618E+03 -0.12007886199E+04  0.13969356122E+04  0.00000000000E+00 0. -1.
          1    1    6    6  503    0 -0.14372736409E+03 -0.28018141667E+03  0.44729594530E+02  0.31805646992E+03  0.00000000000E+00 0. -1.
         -1    1    6    6    0  503 -0.36866166782E+02 -0.89084939882E+02 -0.35992377338E+02  0.10291108781E+03  0.00000000000E+00 0.  1.
<mgrwt>
<rscale>  0 0.33065015E+04</rscale>
<asrwt>0</asrwt>
<pdfrwt beam="1">  1        2 0.34500081E+00 0.33065015E+04</pdfrwt>
<pdfrwt beam="2">  1       -1 0.18751268E+00 0.33065015E+04</pdfrwt>
<totfact> 0.85317374E-01</totfact>
</mgrwt>
</event>
<event>
12    7  0.1661464E-007  0.1372455E+04  0.7818608E-02  0.8974002E-01
          2   -1    0    0  501    0  0.00000000000E+00  0.00000000000E+00  0.49875417926E+03  0.49875417926E+03  0.00000000000E+00 0. -1.
         -1   -1    0    0    0  501 -0.00000000000E+00 -0.00000000000E+00 -0.94416931935E+03  0.94416931935E+03  0.00000000000E+00 0.  1.
         24    2    1    2    0    0  0.35372871667E+03  0.11525668780E+03 -0.73070139830E+02  0.38778540420E+03  0.81425826950E+02 0.  0.
        254    2    1    2    0    0 -0.35372871667E+03 -0.11525668780E+03 -0.37234500026E+03  0.10551380944E+04  0.91447662079E+03 0.  0.
         23    2    4    4    0    0  0.10386895494E+03 -0.39377443472E+03 -0.43026777619E+02  0.41965628922E+03  0.91722583096E+02 0.  0.
         23    2    4    4    0    0 -0.45759767161E+03  0.27851774692E+03 -0.32931822264E+03  0.63548180519E+03  0.91754392538E+02 0.  0.
          4    1    3    3  502    0  0.22465725887E+03  0.50440470122E+02 -0.10804453719E+02  0.23050349501E+03  0.00000000000E+00 0. -1.
         -3    1    3    3    0  502  0.12907145780E+03  0.64816217674E+02 -0.62265686111E+02  0.15728190919E+03  0.00000000000E+00 0.  1.
         13    1    5    5    0    0  0.85080164639E+02 -0.23402425656E+03  0.12941345037E+02  0.24934607574E+03  0.00000000000E+00 0. -1.
        -13    1    5    5    0    0  0.18788790300E+02 -0.15975017815E+03 -0.55968122656E+02  0.17031021348E+03  0.00000000000E+00 0.  1.
          4    1    6    6  503    0 -0.11608266553E+03  0.79698625035E+02 -0.13518983853E+03  0.19520079024E+03  0.00000000000E+00 0. -1.
         -4    1    6    6    0  503 -0.34151500609E+03  0.19881912189E+03 -0.19412838411E+03  0.44028101496E+03  0.00000000000E+00 0.  1.
<mgrwt>
<rscale>  0 0.13724553E+04</rscale>
<asrwt>0</asrwt>
<pdfrwt beam="1">  1        2 0.76731413E-01 0.13724553E+04</pdfrwt>
<pdfrwt beam="2">  1       -1 0.14525682E+00 0.13724553E+04</pdfrwt>
<totfact> 0.26193555E+01</totfact>
</mgrwt>
</event>
<event>
12    7  0.1661464E-007  0.2124004E+04  0.7818608E-02  0.8550743E-01
          2   -1    0    0  501    0  0.00000000000E+00  0.00000000000E+00  0.12151462891E+04  0.12151462891E+04  0.00000000000E+00 0. -1.
         -1   -1    0    0    0  501 -0.00000000000E+00 -0.00000000000E+00 -0.92815805334E+03  0.92815805334E+03  0.00000000000E+00 0.  1.
         24    2    1    2    0    0 -0.13876545877E+03  0.65110252890E+03 -0.45273393920E+03  0.80962497892E+03  0.85640125528E+02 0.  0.
        254    2    1    2    0    0  0.13876545877E+03 -0.65110252890E+03  0.73972217498E+03  0.13336793636E+04  0.88787464933E+03 0.  0.
         23    2    4    4    0    0  0.48394552310E+03 -0.19873501871E+03  0.38935265040E+03  0.65855882215E+03  0.91680744267E+02 0.  0.
         23    2    4    4    0    0 -0.34518006433E+03 -0.45236751018E+03  0.35036952458E+03  0.67512054140E+03  0.96142085379E+02 0.  0.
          4    1    3    3  502    0 -0.33820379030E+02  0.19413278866E+03 -0.89046923391E+02  0.21624225359E+03  0.00000000000E+00 0. -1.
         -3    1    3    3    0  502 -0.10494507974E+03  0.45696974024E+03 -0.36368701581E+03  0.59338272533E+03  0.00000000000E+00 0.  1.
         13    1    5    5    0    0  0.15931847915E+03 -0.23127721738E+02  0.99376154307E+02  0.18919008790E+03  0.00000000000E+00 0.  1.
        -13    1    5    5    0    0  0.32462704395E+03 -0.17560729697E+03  0.28997649609E+03  0.46936873426E+03  0.00000000000E+00 0. -1.
          4    1    6    6  503    0 -0.14789106962E+03 -0.16498438214E+03  0.86195377762E+02  0.23774199875E+03  0.00000000000E+00 0. -1.
         -4    1    6    6    0  503 -0.19728899471E+03 -0.28738312805E+03  0.26417414682E+03  0.43737854265E+03  0.00000000000E+00 0.  1.
<mgrwt>
<rscale>  0 0.21240036E+04</rscale>
<asrwt>0</asrwt>
<pdfrwt beam="1">  1        2 0.18694558E+00 0.21240036E+04</pdfrwt>
<pdfrwt beam="2">  1       -1 0.14279355E+00 0.21240036E+04</pdfrwt>
<totfact> 0.77405212E+00</totfact>
</mgrwt>
</event>
<event>
12    7  0.1661464E-007  0.1869693E+04  0.7818608E-02  0.8670091E-01
          2   -1    0    0  501    0  0.00000000000E+00  0.00000000000E+00  0.14984574379E+04  0.14984574379E+04  0.00000000000E+00 0. -1.
         -1   -1    0    0    0  501 -0.00000000000E+00 -0.00000000000E+00 -0.58322495653E+03  0.58322495653E+03  0.00000000000E+00 0.  1.
         24    2    1    2    0    0  0.55004253247E+03  0.31828309771E+03  0.20377330173E+01  0.64313397999E+03  0.98824319159E+02 0.  0.
        254    2    1    2    0    0 -0.55004253247E+03 -0.31828309771E+03  0.91319474832E+03  0.14385484144E+04  0.91194625631E+03 0.  0.
         23    2    4    4    0    0  0.12407535051E+03 -0.39545660336E+03  0.31107129610E+03  0.52685803013E+03  0.95044278719E+02 0.  0.
         23    2    4    4    0    0 -0.67411788298E+03  0.77173505652E+02  0.60212345222E+03  0.91169038427E+03  0.90752602837E+02 0.  0.
          4    1    3    3  502    0  0.91793475000E+02  0.24714643334E+02  0.25453888533E+02  0.98411158357E+02  0.00000000000E+00 0. -1.
         -3    1    3    3    0  502  0.45824905747E+03  0.29356845437E+03 -0.23416155516E+02  0.54472282164E+03  0.00000000000E+00 0.  1.
         13    1    5    5    0    0  0.57577078546E+02 -0.26395471470E+03  0.24742310284E+03  0.36634055632E+03  0.00000000000E+00 0. -1.
        -13    1    5    5    0    0  0.66498271964E+02 -0.13150188866E+03  0.63648193263E+02  0.16051747382E+03  0.00000000000E+00 0.  1.
          2    1    6    6  503    0 -0.59833901205E+03  0.97134692800E+02  0.53576112298E+03  0.80900228849E+03  0.00000000000E+00 0. -1.
         -2    1    6    6    0  503 -0.75778870934E+02 -0.19961187148E+02  0.66362329242E+02  0.10268809578E+03  0.00000000000E+00 0.  1.
<mgrwt>
<rscale>  0 0.18696928E+04</rscale>
<asrwt>0</asrwt>
<pdfrwt beam="1">  1        2 0.23053191E+00 0.18696928E+04</pdfrwt>
<pdfrwt beam="2">  1       -1 0.89726917E-01 0.18696928E+04</pdfrwt>
<totfact> 0.16546623E+01</totfact>
</mgrwt>
</event>
<event>
12    7  0.1661464E-007  0.3027947E+04  0.7818608E-02  0.8235795E-01
          2   -1    0    0  501    0  0.00000000000E+00  0.00000000000E+00  0.12120937682E+04  0.12120937682E+04  0.00000000000E+00 0. -1.
         -1   -1    0    0    0  501 -0.00000000000E+00 -0.00000000000E+00 -0.18910387153E+04  0.18910387153E+04  0.00000000000E+00 0.  1.
         24    2    1    2    0    0  0.17188317431E+02 -0.87567842787E+03 -0.14250713275E+04  0.16747519347E+04  0.82810668350E+02 0.  0.
        254    2    1    2    0    0 -0.17188317431E+02  0.87567842787E+03  0.74612638041E+03  0.14283805489E+04  0.84643858000E+03 0.  0.
         23    2    4    4    0    0  0.33749583961E+03  0.65792400365E+03  0.27600561695E+03  0.79405606821E+03  0.87054595132E+02 0.  0.
         23    2    4    4    0    0 -0.35468415705E+03  0.21775442422E+03  0.47012076347E+03  0.63432448072E+03  0.90200743186E+02 0.  0.
          4    1    3    3  502    0  0.15968022095E+02 -0.62593323797E+03 -0.94514516292E+03  0.11337313505E+04  0.00000000000E+00 0. -1.
         -3    1    3    3    0  502  0.12202953361E+01 -0.24974518990E+03 -0.47992616460E+03  0.54102058415E+03  0.00000000000E+00 0.  1.
         13    1    5    5    0    0  0.99951411430E+02  0.13642932676E+03  0.36776552400E+02  0.17307732565E+03  0.00000000000E+00 0.  1.
        -13    1    5    5    0    0  0.23754442819E+03  0.52149467689E+03  0.23922906455E+03  0.62097874256E+03  0.00000000000E+00 0. -1.
          2    1    6    6  503    0 -0.17837354064E+03  0.15604452610E+03  0.23167146309E+03  0.33141919217E+03  0.00000000000E+00 0. -1.
         -2    1    6    6    0  503 -0.17631061640E+03  0.61709898121E+02  0.23844930038E+03  0.30290528855E+03  0.00000000000E+00 0.  1.
<mgrwt>
<rscale>  0 0.30279473E+04</rscale>
<asrwt>0</asrwt>
<pdfrwt beam="1">  1        2 0.18647596E+00 0.30279473E+04</pdfrwt>
<pdfrwt beam="2">  1       -1 0.29092903E+00 0.30279473E+04</pdfrwt>
<totfact> 0.68527323E-01</totfact>
</mgrwt>
</event>
<event>
12    7  0.1661464E-007  0.1120579E+04  0.7818608E-02  0.9185363E-01
         -1   -1    0    0    0  501 -0.00000000000E+00  0.00000000000E+00  0.91592679698E+02  0.91592679698E+02  0.00000000000E+00 0.  1.
          2   -1    0    0  501    0  0.00000000000E+00 -0.00000000000E+00 -0.34273972229E+04  0.34273972229E+04  0.00000000000E+00 0. -1.
         24    2    1    2    0    0 -0.59862348371E+02 -0.10326064344E+03 -0.19032404983E+03  0.24558462907E+03  0.99208391048E+02 0.  0.
        254    2    1    2    0    0  0.59862348371E+02  0.10326064344E+03 -0.31454804934E+04  0.32734052735E+04  0.89826960838E+03 0.  0.
         23    2    4    4    0    0 -0.20174845337E+03 -0.20475977520E+03 -0.24134803951E+04  0.24322324723E+04  0.90764407669E+02 0.  0.
         23    2    4    4    0    0  0.26161080174E+03  0.30802041864E+03 -0.73200009831E+03  0.84117280129E+03  0.91819103737E+02 0.  0.
          2    1    3    3  502    0 -0.14347799312E+02  0.18346123364E+02 -0.16169542144E+02  0.28353018899E+02  0.00000000000E+00 0. -1.
         -1    1    3    3    0  502 -0.45514549059E+02 -0.12160676681E+03 -0.17415450769E+03  0.21723161017E+03  0.00000000000E+00 0.  1.
         13    1    5    5    0    0 -0.49133029407E+02 -0.76291012243E+02 -0.48116381239E+03  0.48964577756E+03  0.00000000000E+00 0. -1.
        -13    1    5    5    0    0 -0.15261542396E+03 -0.12846876295E+03 -0.19323165827E+04  0.19425866947E+04  0.00000000000E+00 0.  1.
          3    1    6    6  503    0  0.24041613056E+03  0.31060700192E+03 -0.70079657160E+03  0.80336321813E+03  0.00000000000E+00 0. -1.
         -3    1    6    6    0  503  0.21194671179E+02 -0.25865832787E+01 -0.31203526717E+02  0.37809583164E+02  0.00000000000E+00 0.  1.
<mgrwt>
<rscale>  0 0.11205793E+04</rscale>
<asrwt>0</asrwt>
<pdfrwt beam="1">  1        2 0.52729194E+00 0.11205793E+04</pdfrwt>
<pdfrwt beam="2">  1       -1 0.14091180E-01 0.11205793E+04</pdfrwt>
<totfact> 0.38645493E+01</totfact>
</mgrwt>
</event>
<event>
12    7  0.1661464E-007  0.1306056E+04  0.7818608E-02  0.9024777E-01
         -1   -1    0    0    0  501 -0.00000000000E+00  0.00000000000E+00  0.20386342118E+03  0.20386342118E+03  0.00000000000E+00 0.  1.
          2   -1    0    0  501    0  0.00000000000E+00 -0.00000000000E+00 -0.20918187898E+04  0.20918187898E+04  0.00000000000E+00 0. -1.
         24    2    1    2    0    0  0.27026796279E+02  0.17936219358E+03  0.17616820815E+02  0.19878295065E+03  0.79391843985E+02 0.  0.
        254    2    1    2    0    0 -0.27026796279E+02 -0.17936219358E+03 -0.19055721894E+04  0.20968992603E+04  0.85608404646E+03 0.  0.
         23    2    4    4    0    0 -0.12022997784E+03  0.30242665400E+03 -0.48701254809E+03  0.59306748683E+03  0.92901524886E+02 0.  0.
         23    2    4    4    0    0  0.93203181557E+02 -0.48178884758E+03 -0.14185596413E+04  0.15038317735E+04  0.91603603648E+02 0.  0.
          4    1    3    3  502    0  0.33291661087E+02  0.12215740156E+03 -0.22549261846E+02  0.12860495583E+03  0.00000000000E+00 0. -1.
         -3    1    3    3    0  502 -0.62648648085E+01  0.57204792023E+02  0.40166082661E+02  0.70177994826E+02  0.00000000000E+00 0.  1.
         13    1    5    5    0    0 -0.88260198367E+02  0.17112648249E+03 -0.21037403071E+03  0.28518655021E+03  0.00000000000E+00 0. -1.
        -13    1    5    5    0    0 -0.31969779469E+02  0.13130017150E+03 -0.27663851738E+03  0.30788093662E+03  0.00000000000E+00 0.  1.
          1    1    6    6  503    0  0.84614480010E+02 -0.44911291725E+03 -0.13733330382E+04  0.14473788918E+04  0.00000000000E+00 0. -1.
         -1    1    6    6    0  503  0.85887015467E+01 -0.32675930331E+02 -0.45226603152E+02  0.56452881680E+02  0.00000000000E+00 0.  1.
<mgrwt>
<rscale>  0 0.13060556E+04</rscale>
<asrwt>0</asrwt>
<pdfrwt beam="1">  1        2 0.32181827E+00 0.13060556E+04</pdfrwt>
<pdfrwt beam="2">  1       -1 0.31363603E-01 0.13060556E+04</pdfrwt>
<totfact> 0.62610862E+01</totfact>
</mgrwt>
</event>
<event>
12    7  0.1661464E-007  0.2954933E+04  0.7818608E-02  0.8256718E-01
         -1   -1    0    0    0  501 -0.00000000000E+00  0.00000000000E+00  0.14368430663E+04  0.14368430663E+04  0.00000000000E+00 0.  1.
          2   -1    0    0  501    0  0.00000000000E+00 -0.00000000000E+00 -0.15192386213E+04  0.15192386213E+04  0.00000000000E+00 0. -1.
         24    2    1    2    0    0 -0.48198898474E+03 -0.90274219530E+03  0.82568507283E+03  0.13172980880E+04  0.79130022761E+02 0.  0.
        254    2    1    2    0    0  0.48198898474E+03  0.90274219530E+03 -0.90808062782E+03  0.16387835996E+04  0.90207782765E+03 0.  0.
         23    2    4    4    0    0  0.45876048845E+03  0.90670855671E+03 -0.35882775702E+03  0.10816271516E+04  0.92619346105E+02 0.  0.
         23    2    4    4    0    0  0.23228496282E+02 -0.39663614128E+01 -0.54925287080E+03  0.55715644801E+03  0.90494731412E+02 0.  0.
          4    1    3    3  502    0 -0.30120384348E+02 -0.10641425151E+03  0.97494876120E+02  0.14743297239E+03  0.00000000000E+00 0. -1.
         -3    1    3    3    0  502 -0.45186860039E+03 -0.79632794379E+03  0.72819019671E+03  0.11698651156E+04  0.00000000000E+00 0.  1.
         13    1    5    5    0    0  0.35974216914E+03  0.66985673837E+03 -0.22981310247E+03  0.79431513914E+03  0.00000000000E+00 0.  1.
        -13    1    5    5    0    0  0.99018319311E+02  0.23685181834E+03 -0.12901465455E+03  0.28731201245E+03  0.00000000000E+00 0. -1.
          3    1    6    6  503    0  0.34267927598E+02  0.67060440912E+01 -0.75814630798E+02  0.83469276577E+02  0.00000000000E+00 0. -1.
         -3    1    6    6    0  503 -0.11039431316E+02 -0.10672405504E+02 -0.47343824001E+03  0.47368717144E+03  0.00000000000E+00 0.  1.
<mgrwt>
<rscale>  0 0.29549331E+04</rscale>
<asrwt>0</asrwt>
<pdfrwt beam="1">  1        2 0.23372902E+00 0.29549331E+04</pdfrwt>
<pdfrwt beam="2">  1       -1 0.22105278E+00 0.29549331E+04</pdfrwt>
<totfact> 0.13114318E+00</totfact>
</mgrwt>
</event>
<event>
12    7  0.1661464E-007  0.1228249E+04  0.7818608E-02  0.9088483E-01
         -1   -1    0    0    0  501 -0.00000000000E+00  0.00000000000E+00  0.42986039253E+03  0.42986039253E+03  0.00000000000E+00 0.  1.
          2   -1    0    0  501    0  0.00000000000E+00 -0.00000000000E+00 -0.87737572687E+03  0.87737572687E+03  0.00000000000E+00 0. -1.
         24    2    1    2    0    0 -0.31838736510E+02  0.24898600665E+03 -0.29790723149E+03  0.39725032669E+03  0.77790531803E+02 0.  0.
        254    2    1    2    0    0  0.31838736510E+02 -0.24898600665E+03 -0.14960810285E+03  0.90998579270E+03  0.86179105463E+03 0.  0.
         23    2    4    4    0    0  0.18940078815E+03 -0.50784436856E+03 -0.20677322420E+03  0.58653186057E+03  0.86521072502E+02 0.  0.
         23    2    4    4    0    0 -0.15756205164E+03  0.25885836191E+03  0.57165121351E+02  0.32345393213E+03  0.97576346851E+02 0.  0.
          4    1    3    3  502    0 -0.51178953918E+02  0.22975806499E+03 -0.26304610520E+03  0.35298910353E+03  0.00000000000E+00 0. -1.
         -3    1    3    3    0  502  0.19340217408E+02  0.19227941656E+02 -0.34861126285E+02  0.44261223160E+02  0.00000000000E+00 0.  1.
         13    1    5    5    0    0  0.51558774789E+01 -0.69096363904E+02 -0.50233438182E+02  0.85582059387E+02  0.00000000000E+00 0. -1.
        -13    1    5    5    0    0  0.18424491067E+03 -0.43874800466E+03 -0.15653978602E+03  0.50094980118E+03  0.00000000000E+00 0.  1.
          1    1    6    6  503    0 -0.13381536212E+02  0.10066475469E+03  0.38492229077E+02  0.10860069082E+03  0.00000000000E+00 0. -1.
         -1    1    6    6    0  503 -0.14418051543E+03  0.15819360722E+03  0.18672892273E+02  0.21485324131E+03  0.00000000000E+00 0.  1.
<mgrwt>
<rscale>  0 0.12282493E+04</rscale>
<asrwt>0</asrwt>
<pdfrwt beam="1">  1        2 0.13498088E+00 0.12282493E+04</pdfrwt>
<pdfrwt beam="2">  1       -1 0.66132369E-01 0.12282493E+04</pdfrwt>
<totfact> 0.79153395E+01</totfact>
</mgrwt>
</event>
<event>
12    7  0.1661464E-007  0.2156901E+04  0.7818608E-02  0.8536584E-01
         -1   -1    0    0    0  501 -0.00000000000E+00  0.00000000000E+00  0.69263250763E+03  0.69263250763E+03  0.00000000000E+00 0.  1.
          2   -1    0    0  501    0  0.00000000000E+00 -0.00000000000E+00 -0.16791819162E+04  0.16791819162E+04  0.00000000000E+00 0. -1.
         24    2    1    2    0    0  0.43111405177E+03 -0.51300278485E+03 -0.10410473534E+04  0.12406598682E+04  0.80163168296E+02 0.  0.
        254    2    1    2    0    0 -0.43111405177E+03  0.51300278485E+03  0.54497944847E+02  0.11311545557E+04  0.90967544755E+03 0.  0.
         23    2    4    4    0    0 -0.13958198317E+03 -0.70022477976E+02  0.36200618437E+03  0.40464670644E+03  0.91127394694E+02 0.  0.
         23    2    4    4    0    0 -0.29153206860E+03  0.58302526283E+03 -0.30750823953E+03  0.72650784921E+03  0.91339659870E+02 0.  0.
          4    1    3    3  502    0  0.26279604841E+03 -0.26907182472E+03 -0.63366683192E+03  0.73688198770E+03  0.00000000000E+00 0. -1.
         -3    1    3    3    0  502  0.16831800337E+03 -0.24393096013E+03 -0.40738052149E+03  0.50377788048E+03  0.00000000000E+00 0.  1.
         13    1    5    5    0    0 -0.72379244188E+02 -0.63080370305E+02  0.29190458843E+03  0.30728842616E+03  0.00000000000E+00 0.  1.
        -13    1    5    5    0    0 -0.67202738981E+02 -0.69421076707E+01  0.70101595944E+02  0.97358280281E+02  0.00000000000E+00 0. -1.
          2    1    6    6  503    0 -0.19508065633E+03  0.39589105069E+03 -0.16003014771E+03  0.46946334752E+03  0.00000000000E+00 0.  1.
         -2    1    6    6    0  503 -0.96451412278E+02  0.18713421214E+03 -0.14747809181E+03  0.25704450169E+03  0.00000000000E+00 0. -1.
<mgrwt>
<rscale>  0 0.21569015E+04</rscale>
<asrwt>0</asrwt>
<pdfrwt beam="1">  1        2 0.25833567E+00 0.21569015E+04</pdfrwt>
<pdfrwt beam="2">  1       -1 0.10655885E+00 0.21569015E+04</pdfrwt>
<totfact> 0.86542983E+00</totfact>
</mgrwt>
</event>
<event>
12    7  0.1661464E-007  0.1083139E+04  0.7818608E-02  0.9221783E-01
          2   -1    0    0  501    0  0.00000000000E+00  0.00000000000E+00  0.23252923630E+04  0.23252923630E+04  0.00000000000E+00 0. -1.
         -1   -1    0    0    0  501 -0.00000000000E+00 -0.00000000000E+00 -0.12613369269E+03  0.12613369269E+03  0.00000000000E+00 0.  1.
         24    2    1    2    0    0  0.93424416308E+02 -0.31174797396E+02  0.97722667462E+02  0.15959069821E+03  0.78863690401E+02 0.  0.
        254    2    1    2    0    0 -0.93424416308E+02  0.31174797396E+02  0.21014360029E+04  0.22918353575E+04  0.90927225969E+03 0.  0.
         23    2    4    4    0    0 -0.10427258437E+03 -0.37129164584E+03  0.15681195431E+04  0.16176304909E+04  0.94864353757E+02 0.  0.
         23    2    4    4    0    0  0.10848168065E+02  0.40246644323E+03  0.53331645982E+03  0.67420486663E+03  0.89603767752E+02 0.  0.
          2    1    3    3  502    0  0.51978560117E+02 -0.46331253400E+02  0.91565474269E+02  0.11503300323E+03  0.00000000000E+00 0. -1.
         -1    1    3    3    0  502  0.41445856190E+02  0.15156456004E+02  0.61571931924E+01  0.44557694980E+02  0.00000000000E+00 0.  1.
         13    1    5    5    0    0 -0.90846553534E+02 -0.36903421700E+03  0.15423633610E+04  0.15884974305E+04  0.00000000000E+00 0. -1.
        -13    1    5    5    0    0 -0.13426030839E+02 -0.22574288410E+01  0.25756182109E+02  0.29133060359E+02  0.00000000000E+00 0.  1.
          4    1    6    6  503    0 -0.32969806709E+02  0.26676117541E+03  0.37110820858E+03  0.45822465596E+03  0.00000000000E+00 0. -1.
         -4    1    6    6    0  503  0.43817974774E+02  0.13570526783E+03  0.16220825124E+03  0.21598021067E+03  0.00000000000E+00 0.  1.
<mgrwt>
<rscale>  0 0.10831393E+04</rscale>
<asrwt>0</asrwt>
<pdfrwt beam="1">  1        2 0.35773726E+00 0.10831393E+04</pdfrwt>
<pdfrwt beam="2">  1       -1 0.19405185E-01 0.10831393E+04</pdfrwt>
<totfact> 0.10752152E+02</totfact>
</mgrwt>
</event>
<event>
12    7  0.1661464E-007  0.1453649E+04  0.7818608E-02  0.8915874E-01
          2   -1    0    0  501    0  0.00000000000E+00  0.00000000000E+00  0.30318396964E+04  0.30318396964E+04  0.00000000000E+00 0. -1.
         -1   -1    0    0    0  501 -0.00000000000E+00 -0.00000000000E+00 -0.17424207882E+03  0.17424207882E+03  0.00000000000E+00 0.  1.
         24    2    1    2    0    0  0.43770168212E+03 -0.29468728278E+01  0.76931208042E+03  0.88870243480E+03  0.79746435340E+02 0.  0.
        254    2    1    2    0    0 -0.43770168212E+03  0.29468728278E+01  0.20882855371E+04  0.23173793404E+04  0.90427820723E+03 0.  0.
         23    2    4    4    0    0 -0.36322139649E+03 -0.61297692108E+02  0.20831968102E+03  0.43266708962E+03  0.90091792177E+02 0.  0.
         23    2    4    4    0    0 -0.74480285634E+02  0.64244564936E+02  0.18799658561E+04  0.18847122508E+04  0.90520555531E+02 0.  0.
          4    1    3    3  502    0 -0.14317760815E+01  0.80829588126E+00 -0.10573423617E+01  0.19548140190E+01  0.00000000000E+00 0. -1.
         -3    1    3    3    0  502  0.43913345820E+03 -0.37551687091E+01  0.77036942278E+03  0.88674762078E+03  0.00000000000E+00 0.  1.
         13    1    5    5    0    0 -0.22449214509E+03 -0.64217824686E+02  0.16964730995E+03  0.28861888709E+03  0.00000000000E+00 0. -1.
        -13    1    5    5    0    0 -0.13872925140E+03  0.29201325778E+01  0.38672371072E+02  0.14404820253E+03  0.00000000000E+00 0.  1.
          4    1    6    6  503    0 -0.11286037131E+02  0.67932688437E+02  0.11196840158E+04  0.11217996791E+04  0.00000000000E+00 0. -1.
         -4    1    6    6    0  503 -0.63194248502E+02 -0.36881235013E+01  0.76028184030E+03  0.76291257165E+03  0.00000000000E+00 0.  1.
<mgrwt>
<rscale>  0 0.14536493E+04</rscale>
<asrwt>0</asrwt>
<pdfrwt beam="1">  1        2 0.46643684E+00 0.14536493E+04</pdfrwt>
<pdfrwt beam="2">  1       -1 0.26806476E-01 0.14536493E+04</pdfrwt>
<totfact> 0.22992520E+01</totfact>
</mgrwt>
</event>
<event>
12    7  0.1661464E-007  0.1861055E+04  0.7818608E-02  0.8674488E-01
          2   -1    0    0  501    0  0.00000000000E+00  0.00000000000E+00  0.19292186655E+04  0.19292186655E+04  0.00000000000E+00 0. -1.
         -1   -1    0    0    0  501 -0.00000000000E+00 -0.00000000000E+00 -0.44882502245E+03  0.44882502245E+03  0.00000000000E+00 0.  1.
         24    2    1    2    0    0  0.37026427571E+03  0.56184913555E+03  0.27783749759E+03  0.73204702549E+03  0.77000568056E+02 0.  0.
        254    2    1    2    0    0 -0.37026427571E+03 -0.56184913555E+03  0.12025561455E+04  0.16459966625E+04  0.90021866501E+03 0.  0.
         23    2    4    4    0    0 -0.10823511210E+03 -0.76657635818E+03  0.83736868774E+03  0.11440404662E+04  0.91039094681E+02 0.  0.
         23    2    4    4    0    0 -0.26202916361E+03  0.20472722263E+03  0.36518745775E+03  0.50195619624E+03  0.89585854795E+02 0.  0.
          2    1    3    3  502    0  0.14630281808E+03  0.23449674359E+03  0.74137405541E+02  0.28616357600E+03  0.00000000000E+00 0. -1.
         -1    1    3    3    0  502  0.22396145764E+03  0.32735239196E+03  0.20370009205E+03  0.44588344949E+03  0.00000000000E+00 0.  1.
         13    1    5    5    0    0  0.77497073499E+00 -0.33236582652E-01 -0.19772896456E+01  0.21239959164E+01  0.00000000000E+00 0. -1.
        -13    1    5    5    0    0 -0.10901008284E+03 -0.76654312159E+03  0.83934597739E+03  0.11419164703E+04  0.00000000000E+00 0.  1.
          2    1    6    6  503    0 -0.54067976999E+02  0.92912653961E+02  0.13007553669E+03  0.16874760042E+03  0.00000000000E+00 0. -1.
         -2    1    6    6    0  503 -0.20796118661E+03  0.11181456867E+03  0.23511192105E+03  0.33320859581E+03  0.00000000000E+00 0.  1.
<mgrwt>
<rscale>  0 0.18610552E+04</rscale>
<asrwt>0</asrwt>
<pdfrwt beam="1">  1        2 0.29680287E+00 0.18610552E+04</pdfrwt>
<pdfrwt beam="2">  1       -1 0.69050005E-01 0.18610552E+04</pdfrwt>
<totfact> 0.16605912E+01</totfact>
</mgrwt>
</event>
<event>
12    7  0.1661464E-007  0.1202266E+04  0.7818608E-02  0.9110876E-01
         -1   -1    0    0    0  501 -0.00000000000E+00  0.00000000000E+00  0.39926074572E+03  0.39926074572E+03  0.00000000000E+00 0.  1.
          2   -1    0    0  501    0  0.00000000000E+00 -0.00000000000E+00 -0.90507434930E+03  0.90507434930E+03  0.00000000000E+00 0. -1.
         24    2    1    2    0    0 -0.21371648197E+03  0.12345540684E+03 -0.62136522126E+02  0.26679069544E+03  0.80002222773E+02 0.  0.
        254    2    1    2    0    0  0.21371648197E+03 -0.12345540684E+03 -0.44367708145E+03  0.10375443996E+04  0.90483869079E+03 0.  0.
         23    2    4    4    0    0  0.46600094328E+03 -0.70320218003E+02  0.40421629824E+02  0.48173056903E+03  0.91261277580E+02 0.  0.
         23    2    4    4    0    0 -0.25228446131E+03 -0.53135188838E+02 -0.48409871128E+03  0.55581383055E+03  0.90036960543E+02 0.  0.
          2    1    3    3  502    0 -0.62655701012E+02  0.32541017580E+02 -0.56441943659E+02  0.90389975652E+02  0.00000000000E+00 0. -1.
         -1    1    3    3    0  502 -0.15106078095E+03  0.90914389262E+02 -0.56945784666E+01  0.17640071979E+03  0.00000000000E+00 0.  1.
         13    1    5    5    0    0  0.38563900038E+03 -0.73190212361E+02  0.64506320336E+02  0.39778802290E+03  0.00000000000E+00 0. -1.
        -13    1    5    5    0    0  0.80361942893E+02  0.28699943574E+01 -0.24084690512E+02  0.83942546127E+02  0.00000000000E+00 0.  1.
          1    1    6    6  503    0 -0.24306596000E+03 -0.40795200286E+02 -0.39641184725E+03  0.46678438483E+03  0.00000000000E+00 0. -1.
         -1    1    6    6    0  503 -0.92185013105E+01 -0.12339988553E+02 -0.87686864026E+02  0.89029445728E+02  0.00000000000E+00 0.  1.
<mgrwt>
<rscale>  0 0.12022656E+04</rscale>
<asrwt>0</asrwt>
<pdfrwt beam="1">  1        2 0.13924221E+00 0.12022656E+04</pdfrwt>
<pdfrwt beam="2">  1       -1 0.61424730E-01 0.12022656E+04</pdfrwt>
<totfact> 0.88045534E+01</totfact>
</mgrwt>
</event>
<event>
12    7  0.1661464E-007  0.1330211E+04  0.7818608E-02  0.9005945E-01
          4   -1    0    0  501    0  0.00000000000E+00  0.00000000000E+00  0.29178602257E+03  0.29178602257E+03  0.00000000000E+00 0. -1.
         -3   -1    0    0    0  501 -0.00000000000E+00 -0.00000000000E+00 -0.15160611284E+04  0.15160611284E+04  0.00000000000E+00 0.  1.
         24    2    1    2    0    0  0.22737720246E+02  0.20186622084E+03  0.56244980040E+02  0.22515470287E+03  0.79146493314E+02 0.  0.
        254    2    1    2    0    0 -0.22737720246E+02 -0.20186622084E+03 -0.12805200859E+04  0.15826924481E+04  0.90769858430E+03 0.  0.
         23    2    4    4    0    0 -0.10041460540E+03 -0.35966865881E+03 -0.13240538264E+04  0.13786970162E+04  0.90787060561E+02 0.  0.
         23    2    4    4    0    0  0.77676885158E+02  0.15780243797E+03  0.43533740488E+02  0.20399543187E+03  0.93721084864E+02 0.  0.
          4    1    3    3  502    0  0.29935385976E+02  0.16531758267E+03  0.74367591937E+02  0.18372960894E+03  0.00000000000E+00 0. -1.
         -3    1    3    3    0  502 -0.71976657305E+01  0.36548638178E+02 -0.18122611897E+02  0.41425093924E+02  0.00000000000E+00 0.  1.
         13    1    5    5    0    0  0.45728835364E+01 -0.13240361568E+03 -0.40234438375E+03  0.42359489119E+03  0.00000000000E+00 0. -1.
        -13    1    5    5    0    0 -0.10498748894E+03 -0.22726504313E+03 -0.92170944262E+03  0.95510212505E+03  0.00000000000E+00 0.  1.
          1    1    6    6  503    0 -0.21018362810E+02  0.42290924086E+02  0.71206125427E+01  0.47759783901E+02  0.00000000000E+00 0. -1.
         -1    1    6    6    0  503  0.98695247969E+02  0.11551151388E+03  0.36413127945E+02  0.15623564797E+03  0.00000000000E+00 0.  1.
<mgrwt>
<rscale>  0 0.13302112E+04</rscale>
<asrwt>0</asrwt>
<pdfrwt beam="1">  1        4 0.44890157E-01 0.13302112E+04</pdfrwt>
<pdfrwt beam="2">  1       -3 0.23324017E+00 0.13302112E+04</pdfrwt>
<totfact> 0.99302694E-01</totfact>
</mgrwt>
</event>
<event>
12    7  0.1661464E-007  0.1335803E+04  0.7818608E-02  0.9001646E-01
          2   -1    0    0  501    0  0.00000000000E+00  0.00000000000E+00  0.66915661688E+03  0.66915661688E+03  0.00000000000E+00 0. -1.
         -1   -1    0    0    0  501 -0.00000000000E+00 -0.00000000000E+00 -0.66664826552E+03  0.66664826552E+03  0.00000000000E+00 0.  1.
         24    2    1    2    0    0 -0.25968491456E+03 -0.19422310066E+03 -0.19045903671E+03  0.38476592587E+03  0.81309933989E+02 0.  0.
        254    2    1    2    0    0  0.25968491456E+03  0.19422310066E+03  0.19296738807E+03  0.95103895652E+03  0.87297183017E+03 0.  0.
         23    2    4    4    0    0 -0.84790502693E+02 -0.10917782517E+03  0.40455132512E+03  0.43722057245E+03  0.91601459935E+02 0.  0.
         23    2    4    4    0    0  0.34447541725E+03  0.30340092583E+03 -0.21158393705E+03  0.51381838407E+03  0.92337070036E+02 0.  0.
          4    1    3    3  502    0 -0.54203125886E+02 -0.85111349494E+02 -0.45868123523E+02  0.11084135250E+03  0.00000000000E+00 0. -1.
         -3    1    3    3    0  502 -0.20548178868E+03 -0.10911175117E+03 -0.14459091319E+03  0.27392457337E+03  0.00000000000E+00 0.  1.
         13    1    5    5    0    0 -0.17715280944E+02 -0.19457574706E+00  0.61219070542E+01  0.18744246708E+02  0.00000000000E+00 0. -1.
        -13    1    5    5    0    0 -0.67075221748E+02 -0.10898324942E+03  0.39842941807E+03  0.41847632574E+03  0.00000000000E+00 0.  1.
          3    1    6    6  503    0  0.49863441061E+02  0.24917429248E+02  0.16346527386E+01  0.55766595058E+02  0.00000000000E+00 0. -1.
         -3    1    6    6    0  503  0.29461197619E+03  0.27848349658E+03 -0.21321858979E+03  0.45805178901E+03  0.00000000000E+00 0.  1.
<mgrwt>
<rscale>  0 0.13358025E+04</rscale>
<asrwt>0</asrwt>
<pdfrwt beam="1">  1        2 0.10294717E+00 0.13358025E+04</pdfrwt>
<pdfrwt beam="2">  1       -1 0.10256127E+00 0.13358025E+04</pdfrwt>
<totfact> 0.43574305E+01</totfact>
</mgrwt>
</event>
<event>
12    7  0.1661464E-007  0.2337292E+04  0.7818608E-02  0.8463361E-01
         -1   -1    0    0    0  501 -0.00000000000E+00  0.00000000000E+00  0.78338735625E+03  0.78338735625E+03  0.00000000000E+00 0.  1.
          2   -1    0    0  501    0  0.00000000000E+00 -0.00000000000E+00 -0.17433690125E+04  0.17433690125E+04  0.00000000000E+00 0. -1.
         24    2    1    2    0    0 -0.32863684284E+03  0.91524048586E+02 -0.14223393545E+04  0.14648019543E+04  0.78846053291E+02 0.  0.
        254    2    1    2    0    0  0.32863684284E+03 -0.91524048586E+02  0.46235769826E+03  0.10619544144E+04  0.89308102162E+03 0.  0.
         23    2    4    4    0    0 -0.13143174658E+03  0.43163399476E+02  0.54261706766E+03  0.56732319099E+03  0.91021633996E+02 0.  0.
         23    2    4    4    0    0  0.46006858942E+03 -0.13468744806E+03 -0.80259369393E+02  0.49463122341E+03  0.91731484028E+02 0.  0.
          2    1    3    3  502    0 -0.60377427865E+02 -0.13806818336E+02 -0.25398066113E+03  0.26142348451E+03  0.00000000000E+00 0. -1.
         -1    1    3    3    0  502 -0.26825941497E+03  0.10533086692E+03 -0.11683586934E+04  0.12033784698E+04  0.00000000000E+00 0.  1.
         13    1    5    5    0    0 -0.54134719894E+02 -0.10132641603E+02  0.33455216689E+03  0.33905514403E+03  0.00000000000E+00 0. -1.
        -13    1    5    5    0    0 -0.77297026690E+02  0.53296041079E+02  0.20806490077E+03  0.22826804696E+03  0.00000000000E+00 0.  1.
          3    1    6    6  503    0  0.22797365684E+03 -0.64093210714E+02 -0.86069867124E+02  0.25196815255E+03  0.00000000000E+00 0. -1.
         -3    1    6    6    0  503  0.23209493258E+03 -0.70594237349E+02  0.58104977317E+01  0.24266307086E+03  0.00000000000E+00 0.  1.
<mgrwt>
<rscale>  0 0.23372918E+04</rscale>
<asrwt>0</asrwt>
<pdfrwt beam="1">  1        2 0.26821062E+00 0.23372918E+04</pdfrwt>
<pdfrwt beam="2">  1       -1 0.12052113E+00 0.23372918E+04</pdfrwt>
<totfact> 0.58476566E+00</totfact>
</mgrwt>
</event>
<event>
12    7  0.1661464E-007  0.1584070E+04  0.7818608E-02  0.8830394E-01
          2   -1    0    0  501    0  0.00000000000E+00  0.00000000000E+00  0.15701103156E+04  0.15701103156E+04  0.00000000000E+00 0. -1.
         -1   -1    0    0    0  501 -0.00000000000E+00 -0.00000000000E+00 -0.39953866084E+03  0.39953866084E+03  0.00000000000E+00 0.  1.
         24    2    1    2    0    0 -0.39687341741E+03  0.33280586894E+03  0.50577735588E+03  0.72838851725E+03  0.80441547022E+02 0.  0.
        254    2    1    2    0    0  0.39687341741E+03 -0.33280586894E+03  0.66479429891E+03  0.12412604592E+04  0.91132201330E+03 0.  0.
         23    2    4    4    0    0 -0.12922371033E+03 -0.75407334117E+02  0.62290052288E+03  0.64702138496E+03  0.90810670351E+02 0.  0.
         23    2    4    4    0    0  0.52609712774E+03 -0.25739853482E+03  0.41893776029E+02  0.59423907426E+03  0.91284146276E+02 0.  0.
          2    1    3    3  502    0 -0.50282754841E+02  0.27016946787E+02  0.90677586242E+02  0.10714800742E+03  0.00000000000E+00 0. -1.
         -1    1    3    3    0  502 -0.34659066257E+03  0.30578892215E+03  0.41509976964E+03  0.62124050983E+03  0.00000000000E+00 0.  1.
         13    1    5    5    0    0 -0.14287884571E+03 -0.61832716673E+02  0.54799323172E+03  0.56967906001E+03  0.00000000000E+00 0. -1.
        -13    1    5    5    0    0  0.13655135377E+02 -0.13574617444E+02  0.74907291156E+02  0.77342324954E+02  0.00000000000E+00 0.  1.
          3    1    6    6  503    0  0.46581532628E+03 -0.19889527574E+03  0.53986496443E+02  0.50936999392E+03  0.00000000000E+00 0. -1.
         -3    1    6    6    0  503  0.60281801461E+02 -0.58503259080E+02 -0.12092720414E+02  0.84869080338E+02  0.00000000000E+00 0.  1.
<mgrwt>
<rscale>  0 0.15840704E+04</rscale>
<asrwt>0</asrwt>
<pdfrwt beam="1">  1        2 0.24155543E+00 0.15840704E+04</pdfrwt>
<pdfrwt beam="2">  1       -1 0.61467487E-01 0.15840704E+04</pdfrwt>
<totfact> 0.34034894E+01</totfact>
</mgrwt>
</event>
<event>
12    7  0.1661464E-007  0.1403960E+04  0.7818608E-02  0.8950957E-01
         -1   -1    0    0    0  501 -0.00000000000E+00  0.00000000000E+00  0.25913291353E+03  0.25913291353E+03  0.00000000000E+00 0.  1.
          2   -1    0    0  501    0  0.00000000000E+00 -0.00000000000E+00 -0.19016344896E+04  0.19016344896E+04  0.00000000000E+00 0. -1.
         24    2    1    2    0    0  0.27513245446E+03  0.27514163562E+03 -0.64178596835E+03  0.75406642070E+03  0.72980480374E+02 0.  0.
        254    2    1    2    0    0 -0.27513245446E+03 -0.27514163562E+03 -0.10007156077E+04  0.14067009824E+04  0.90883174419E+03 0.  0.
         23    2    4    4    0    0 -0.56537365012E+03 -0.14546534232E+02 -0.70667606623E+03  0.90980545194E+03  0.92173379501E+02 0.  0.
         23    2    4    4    0    0  0.29024119566E+03 -0.26059510139E+03 -0.29403954146E+03  0.49689553045E+03  0.91083246085E+02 0.  0.
          4    1    3    3  502    0  0.19008496681E+03  0.16887283435E+03 -0.47517288755E+03  0.53892448622E+03  0.00000000000E+00 0. -1.
         -3    1    3    3    0  502  0.85047487652E+02  0.10626880127E+03 -0.16661308080E+03  0.21514193448E+03  0.00000000000E+00 0.  1.
         13    1    5    5    0    0 -0.89204750079E+02  0.30947994696E+02 -0.10645428951E+03  0.14229469971E+03  0.00000000000E+00 0. -1.
        -13    1    5    5    0    0 -0.47616890004E+03 -0.45494528928E+02 -0.60022177673E+03  0.76751075223E+03  0.00000000000E+00 0.  1.
          3    1    6    6  503    0  0.53638556423E+02 -0.99794198480E+02 -0.10104312269E+03  0.15180806773E+03  0.00000000000E+00 0. -1.
         -3    1    6    6    0  503  0.23660263924E+03 -0.16080090291E+03 -0.19299641877E+03  0.34508746272E+03  0.00000000000E+00 0.  1.
<mgrwt>
<rscale>  0 0.14039602E+04</rscale>
<asrwt>0</asrwt>
<pdfrwt beam="1">  1        2 0.29255914E+00 0.14039602E+04</pdfrwt>
<pdfrwt beam="2">  1       -1 0.39866604E-01 0.14039602E+04</pdfrwt>
<totfact> 0.51489105E+01</totfact>
</mgrwt>
</event>
<event>
12    7  0.1661464E-007  0.1739737E+04  0.7818608E-02  0.8739020E-01
          2   -1    0    0  501    0  0.00000000000E+00  0.00000000000E+00  0.72474222732E+03  0.72474222732E+03  0.00000000000E+00 0. -1.
         -1   -1    0    0    0  501 -0.00000000000E+00 -0.00000000000E+00 -0.10440560449E+04  0.10440560449E+04  0.00000000000E+00 0.  1.
         24    2    1    2    0    0 -0.20233876477E+03  0.10749244156E+02 -0.73940882102E+03  0.77071593334E+03  0.78874097876E+02 0.  0.
        254    2    1    2    0    0  0.20233876477E+03 -0.10749244156E+02  0.42009500345E+03  0.99808233887E+03  0.88240128131E+03 0.  0.
         23    2    4    4    0    0  0.40023028430E+03  0.30918153089E+03  0.28422040216E+03  0.58733795593E+03  0.91690446370E+02 0.  0.
         23    2    4    4    0    0 -0.19789151953E+03 -0.31993077505E+03  0.13587460130E+03  0.41074438294E+03  0.93446704144E+02 0.  0.
          2    1    3    3  502    0  0.66528962326E+01  0.18147657192E+01 -0.43656160604E+02  0.44197451980E+02  0.00000000000E+00 0. -1.
         -1    1    3    3    0  502 -0.20899166100E+03  0.89344784366E+01 -0.69575266042E+03  0.72651848136E+03  0.00000000000E+00 0.  1.
         13    1    5    5    0    0  0.16644305336E+02  0.45172553789E+02  0.22084310409E+02  0.52965170463E+02  0.00000000000E+00 0. -1.
        -13    1    5    5    0    0  0.38358597896E+03  0.26400897711E+03  0.26213609175E+03  0.53437278547E+03  0.00000000000E+00 0.  1.
          4    1    6    6  503    0 -0.78767261325E+02 -0.94825499312E+02  0.88355977122E+02  0.15166718653E+03  0.00000000000E+00 0. -1.
         -4    1    6    6    0  503 -0.11912425821E+03 -0.22510527574E+03  0.47518624173E+02  0.25907719641E+03  0.00000000000E+00 0.  1.
<mgrwt>
<rscale>  0 0.17397373E+04</rscale>
<asrwt>0</asrwt>
<pdfrwt beam="1">  1        2 0.11149880E+00 0.17397373E+04</pdfrwt>
<pdfrwt beam="2">  1       -1 0.16062401E+00 0.17397373E+04</pdfrwt>
<totfact> 0.12272696E+01</totfact>
</mgrwt>
</event>
<event>
12    7  0.1661464E-007  0.1992064E+04  0.7818608E-02  0.8610340E-01
         -1   -1    0    0    0  501 -0.00000000000E+00  0.00000000000E+00  0.35418084669E+03  0.35418084669E+03  0.00000000000E+00 0.  1.
          2   -1    0    0  501    0  0.00000000000E+00 -0.00000000000E+00 -0.28010549851E+04  0.28010549851E+04  0.00000000000E+00 0. -1.
         24    2    1    2    0    0 -0.67646309112E+03  0.21606242537E+03 -0.40553687062E+03  0.82144516927E+03  0.77631999755E+02 0.  0.
        254    2    1    2    0    0  0.67646309112E+03 -0.21606242537E+03 -0.20413372677E+04  0.23337906625E+04  0.88047471870E+03 0.  0.
         23    2    4    4    0    0  0.28524408617E+03 -0.53323892009E+03 -0.97285302435E+03  0.11490322261E+04  0.90133872747E+02 0.  0.
         23    2    4    4    0    0  0.39121900495E+03  0.31717649473E+03 -0.10684842434E+04  0.11847584364E+04  0.91327627559E+02 0.  0.
          2    1    3    3  502    0 -0.20219459652E+03  0.66897077053E+02 -0.81704215801E+02  0.22810842304E+03  0.00000000000E+00 0. -1.
         -1    1    3    3    0  502 -0.47426849460E+03  0.14916534831E+03 -0.32383265482E+03  0.59333674624E+03  0.00000000000E+00 0.  1.
         13    1    5    5    0    0  0.13426763149E+03 -0.19153459713E+03 -0.43940776262E+03  0.49778758584E+03  0.00000000000E+00 0. -1.
        -13    1    5    5    0    0  0.15097645468E+03 -0.34170432296E+03 -0.53344526174E+03  0.65124464026E+03  0.00000000000E+00 0.  1.
          1    1    6    6  503    0  0.30006157370E+03  0.28739009934E+03 -0.84777972527E+03  0.94411889071E+03  0.00000000000E+00 0. -1.
         -1    1    6    6    0  503  0.91157431251E+02  0.29786395383E+02 -0.22070451811E+03  0.24063954566E+03  0.00000000000E+00 0.  1.
<mgrwt>
<rscale>  0 0.19920643E+04</rscale>
<asrwt>0</asrwt>
<pdfrwt beam="1">  1        2 0.43093154E+00 0.19920643E+04</pdfrwt>
<pdfrwt beam="2">  1       -1 0.54489361E-01 0.19920643E+04</pdfrwt>
<totfact> 0.83255885E+00</totfact>
</mgrwt>
</event>
<event>
12    7  0.1661464E-007  0.2218368E+04  0.7818608E-02  0.8510822E-01
         -1   -1    0    0    0  501 -0.00000000000E+00  0.00000000000E+00  0.10322778532E+04  0.10322778532E+04  0.00000000000E+00 0.  1.
          2   -1    0    0  501    0  0.00000000000E+00 -0.00000000000E+00 -0.11918194702E+04  0.11918194702E+04  0.00000000000E+00 0. -1.
         24    2    1    2    0    0  0.79528336577E+02 -0.80332094940E+03 -0.30521803865E+03  0.86683678031E+03  0.81232065826E+02 0.  0.
        254    2    1    2    0    0 -0.79528336577E+02  0.80332094940E+03  0.14567642166E+03  0.13572605431E+04  0.10813349426E+04 0.  0.
         23    2    4    4    0    0 -0.26748787769E+03  0.51498010777E+03  0.55977894630E+03  0.81167254959E+03  0.93303713363E+02 0.  0.
         23    2    4    4    0    0  0.18795954112E+03  0.28834084163E+03 -0.41410252464E+03  0.54558799353E+03  0.87841492014E+02 0.  0.
          4    1    3    3  502    0  0.46628337242E+01 -0.25537184340E+03 -0.13071170033E+03  0.28691822706E+03  0.00000000000E+00 0. -1.
         -3    1    3    3    0  502  0.74865502853E+02 -0.54794910600E+03 -0.17450633833E+03  0.57991855325E+03  0.00000000000E+00 0.  1.
         13    1    5    5    0    0 -0.88714288715E+02  0.21368511024E+03  0.16694714372E+03  0.28531193483E+03  0.00000000000E+00 0.  1.
        -13    1    5    5    0    0 -0.17877358898E+03  0.30129499753E+03  0.39283180258E+03  0.52636061476E+03  0.00000000000E+00 0. -1.
          2    1    6    6  503    0  0.13086528851E+03  0.24391639545E+03 -0.28309355566E+03  0.39593293998E+03  0.00000000000E+00 0. -1.
         -2    1    6    6    0  503  0.57094252602E+02  0.44424446186E+02 -0.13100896898E+03  0.14965505355E+03  0.00000000000E+00 0.  1.
<mgrwt>
<rscale>  0 0.22183677E+04</rscale>
<asrwt>0</asrwt>
<pdfrwt beam="1">  1        2 0.18335684E+00 0.22183677E+04</pdfrwt>
<pdfrwt beam="2">  1       -1 0.15881198E+00 0.22183677E+04</pdfrwt>
<totfact> 0.59470475E+00</totfact>
</mgrwt>
</event>
<event>
12    7  0.1661464E-007  0.2268480E+04  0.7818608E-02  0.8490454E-01
          2   -1    0    0  501    0  0.00000000000E+00  0.00000000000E+00  0.83247776354E+03  0.83247776354E+03  0.00000000000E+00 0. -1.
         -1   -1    0    0    0  501 -0.00000000000E+00 -0.00000000000E+00 -0.15453874817E+04  0.15453874817E+04  0.00000000000E+00 0.  1.
         24    2    1    2    0    0 -0.29889628426E+03  0.12558912604E+03  0.65211438242E+03  0.73244667533E+03  0.78187896253E+02 0.  0.
        254    2    1    2    0    0  0.29889628426E+03 -0.12558912604E+03 -0.13650241006E+04  0.16454185699E+04  0.85965100924E+03 0.  0.
         23    2    4    4    0    0  0.54382768135E+02  0.33549731690E+03 -0.32690729563E+03  0.48045263423E+03  0.91926158858E+02 0.  0.
         23    2    4    4    0    0  0.24451351613E+03 -0.46108644294E+03 -0.10381168049E+04  0.11649659357E+04  0.84092586754E+02 0.  0.
          2    1    3    3  502    0 -0.11419805170E+03  0.90011007638E+02  0.28597283690E+03  0.32081714411E+03  0.00000000000E+00 0. -1.
         -1    1    3    3    0  502 -0.18469823257E+03  0.35578118402E+02  0.36614154552E+03  0.41162953123E+03  0.00000000000E+00 0.  1.
         13    1    5    5    0    0 -0.18436625655E+02  0.15923888062E+03 -0.13067165426E+03  0.20681395382E+03  0.00000000000E+00 0. -1.
        -13    1    5    5    0    0  0.72819393791E+02  0.17625843627E+03 -0.19623564137E+03  0.27363868040E+03  0.00000000000E+00 0.  1.
          3    1    6    6  503    0  0.11324858598E+03 -0.15119872870E+03 -0.43630840431E+03  0.47544854765E+03  0.00000000000E+00 0. -1.
         -3    1    6    6    0  503  0.13126493015E+03 -0.30988771423E+03 -0.60180840062E+03  0.68951738801E+03  0.00000000000E+00 0.  1.
<mgrwt>
<rscale>  0 0.22684803E+04</rscale>
<asrwt>0</asrwt>
<pdfrwt beam="1">  1        2 0.12807350E+00 0.22684803E+04</pdfrwt>
<pdfrwt beam="2">  1       -1 0.23775192E+00 0.22684803E+04</pdfrwt>
<totfact> 0.28398621E+00</totfact>
</mgrwt>
</event>
<event>
12    7  0.1661464E-007  0.1520369E+04  0.7818608E-02  0.8871019E-01
          2   -1    0    0  501    0  0.00000000000E+00  0.00000000000E+00  0.19219109536E+04  0.19219109536E+04  0.00000000000E+00 0. -1.
         -1   -1    0    0    0  501 -0.00000000000E+00 -0.00000000000E+00 -0.30068025855E+03  0.30068025855E+03  0.00000000000E+00 0.  1.
         24    2    1    2    0    0  0.18080760767E+03 -0.12209628210E+03 -0.11106985038E+03  0.25778974631E+03  0.80747436790E+02 0.  0.
        254    2    1    2    0    0 -0.18080760767E+03  0.12209628210E+03  0.17323005455E+04  0.19648014659E+04  0.90109973222E+03 0.  0.
         23    2    4    4    0    0 -0.22731777652E+03  0.48039765953E+03  0.84344694300E+03  0.10009904533E+04  0.90132453511E+02 0.  0.
         23    2    4    4    0    0  0.46510168854E+02 -0.35830137743E+03  0.88885360247E+03  0.96381101256E+03  0.91257155578E+02 0.  0.
          2    1    3    3  502    0 -0.76409026949E+01 -0.51667590764E+01  0.10471283007E+01  0.92830636659E+01  0.00000000000E+00 0. -1.
         -1    1    3    3    0  502  0.18844851036E+03 -0.11692952302E+03 -0.11211697868E+03  0.24850668265E+03  0.00000000000E+00 0.  1.
         13    1    5    5    0    0 -0.13740689100E+03  0.27972938193E+03  0.57454303471E+03  0.65362747765E+03  0.00000000000E+00 0.  1.
        -13    1    5    5    0    0 -0.89910885518E+02  0.20066827760E+03  0.26890390829E+03  0.34736297567E+03  0.00000000000E+00 0. -1.
          1    1    6    6  503    0  0.22457866233E+02 -0.27714501121E+03  0.76349774282E+03  0.81255308521E+03  0.00000000000E+00 0. -1.
         -1    1    6    6    0  503  0.24052302622E+02 -0.81156366213E+02  0.12535585965E+03  0.15125792735E+03  0.00000000000E+00 0.  1.
<mgrwt>
<rscale>  0 0.15203693E+04</rscale>
<asrwt>0</asrwt>
<pdfrwt beam="1">  1        2 0.29567860E+00 0.15203693E+04</pdfrwt>
<pdfrwt beam="2">  1       -1 0.46258502E-01 0.15203693E+04</pdfrwt>
<totfact> 0.37741724E+01</totfact>
</mgrwt>
</event>
<event>
12    7  0.1661464E-007  0.1603830E+04  0.7818608E-02  0.8818198E-01
         -1   -1    0    0    0  501 -0.00000000000E+00  0.00000000000E+00  0.85487391465E+03  0.85487391465E+03  0.00000000000E+00 0.  1.
          2   -1    0    0  501    0  0.00000000000E+00 -0.00000000000E+00 -0.75223710846E+03  0.75223710846E+03  0.00000000000E+00 0. -1.
         24    2    1    2    0    0 -0.83608274045E+02 -0.72190486992E+02 -0.51241709362E+03  0.53027080079E+03  0.80087667169E+02 0.  0.
        254    2    1    2    0    0  0.83608274045E+02  0.72190486992E+02  0.61505389981E+03  0.10768402223E+04  0.87697876534E+03 0.  0.
         23    2    4    4    0    0  0.33153678532E+03 -0.27320528561E+03  0.38985726470E+03  0.58712347780E+03  0.90374350614E+02 0.  0.
         23    2    4    4    0    0 -0.24792851128E+03  0.34539577260E+03  0.22519663511E+03  0.48971674452E+03  0.91335529601E+02 0.  0.
          4    1    3    3  502    0 -0.39939832443E+02 -0.21760992624E+02 -0.37248060228E+03  0.37524729191E+03  0.00000000000E+00 0. -1.
         -3    1    3    3    0  502 -0.43668441602E+02 -0.50429494368E+02 -0.13993649134E+03  0.15502350887E+03  0.00000000000E+00 0.  1.
         13    1    5    5    0    0  0.30581079713E+03 -0.21614703283E+03  0.35215566224E+03  0.51405582760E+03  0.00000000000E+00 0. -1.
        -13    1    5    5    0    0  0.25725988185E+02 -0.57058252780E+02  0.37701602460E+02  0.73067650205E+02  0.00000000000E+00 0.  1.
          2    1    6    6  503    0 -0.32198087334E+01  0.38822588366E+02  0.40340323567E+02  0.56079427968E+02  0.00000000000E+00 0.  1.
         -2    1    6    6    0  503 -0.24470870254E+03  0.30657318423E+03  0.18485631154E+03  0.43363731655E+03  0.00000000000E+00 0. -1.
<mgrwt>
<rscale>  0 0.16038303E+04</rscale>
<asrwt>0</asrwt>
<pdfrwt beam="1">  1        2 0.11572879E+00 0.16038303E+04</pdfrwt>
<pdfrwt beam="2">  1       -1 0.13151906E+00 0.16038303E+04</pdfrwt>
<totfact> 0.20139385E+01</totfact>
</mgrwt>
</event>
<event>
12    7  0.1661464E-007  0.1196830E+04  0.7818608E-02  0.9115636E-01
          2   -1    0    0  501    0  0.00000000000E+00  0.00000000000E+00  0.53944647062E+03  0.53944647062E+03  0.00000000000E+00 0. -1.
         -1   -1    0    0    0  501 -0.00000000000E+00 -0.00000000000E+00 -0.66382940336E+03  0.66382940336E+03  0.00000000000E+00 0.  1.
         24    2    1    2    0    0  0.28376433270E+02  0.12164781288E+03 -0.23849708213E+03  0.28000462266E+03  0.76930606294E+02 0.  0.
        254    2    1    2    0    0 -0.28376433270E+02 -0.12164781288E+03  0.11411414939E+03  0.92327125131E+03  0.90763668506E+03 0.  0.
         23    2    4    4    0    0  0.23079311190E+03 -0.97273026046E+02 -0.31500696432E+03  0.41325075455E+03  0.93911109377E+02 0.  0.
         23    2    4    4    0    0 -0.25916954517E+03 -0.24374786838E+02  0.42912111371E+03  0.51002049676E+03  0.90625567594E+02 0.  0.
          4    1    3    3  502    0 -0.17515607218E+02  0.14034970654E+02 -0.79481954270E+02  0.82590301804E+02  0.00000000000E+00 0. -1.
         -3    1    3    3    0  502  0.45892040487E+02  0.10761284223E+03 -0.15901512786E+03  0.19741432086E+03  0.00000000000E+00 0.  1.
         13    1    5    5    0    0  0.32162861719E+01 -0.28708016351E+02 -0.24313492200E+02  0.37757656210E+02  0.00000000000E+00 0.  1.
        -13    1    5    5    0    0  0.22757682573E+03 -0.68565009695E+02 -0.29069347212E+03  0.37549309834E+03  0.00000000000E+00 0. -1.
          4    1    6    6  503    0 -0.19003479585E+03  0.21070921580E+02  0.32449687918E+03  0.37663700292E+03  0.00000000000E+00 0. -1.
         -4    1    6    6    0  503 -0.69134749323E+02 -0.45445708417E+02  0.10462423453E+03  0.13338349384E+03  0.00000000000E+00 0.  1.
<mgrwt>
<rscale>  0 0.11968299E+04</rscale>
<asrwt>0</asrwt>
<pdfrwt beam="1">  1        2 0.82991765E-01 0.11968299E+04</pdfrwt>
<pdfrwt beam="2">  1       -1 0.10212760E+00 0.11968299E+04</pdfrwt>
<totfact> 0.57744804E+01</totfact>
</mgrwt>
</event>
<event>
12    7  0.1661464E-007  0.1786298E+04  0.7818608E-02  0.8713620E-01
         -1   -1    0    0    0  501 -0.00000000000E+00  0.00000000000E+00  0.17571407500E+04  0.17571407500E+04  0.00000000000E+00 0.  1.
          2   -1    0    0  501    0  0.00000000000E+00 -0.00000000000E+00 -0.45398502164E+03  0.45398502164E+03  0.00000000000E+00 0. -1.
         24    2    1    2    0    0 -0.65102951930E+03 -0.12762399910E+03  0.41534922995E+03  0.78666205143E+03  0.78707561291E+02 0.  0.
        254    2    1    2    0    0  0.65102951930E+03  0.12762399910E+03  0.88780649846E+03  0.14244637202E+04  0.89485707878E+03 0.  0.
         23    2    4    4    0    0  0.65472831604E+03  0.39588569636E+03  0.42026087764E+03  0.87778904812E+03  0.92194117630E+02 0.  0.
         23    2    4    4    0    0 -0.36987967414E+01 -0.26826169726E+03  0.46754562082E+03  0.54667467212E+03  0.90974008790E+02 0.  0.
          4    1    3    3  502    0 -0.24283436436E+03 -0.13574834941E+02  0.17265255548E+03  0.29826449600E+03  0.00000000000E+00 0. -1.
         -3    1    3    3    0  502 -0.40819515493E+03 -0.11404916416E+03  0.24269667446E+03  0.48839755543E+03  0.00000000000E+00 0.  1.
         13    1    5    5    0    0  0.60080123224E+03  0.34403718306E+03  0.35273212319E+03  0.77700943026E+03  0.00000000000E+00 0.  1.
        -13    1    5    5    0    0  0.53927083800E+02  0.51848513301E+02  0.67528754449E+02  0.10077961786E+03  0.00000000000E+00 0. -1.
          1    1    6    6  503    0  0.38419495878E+02 -0.68850345858E+02  0.14732020647E+03  0.16709180417E+03  0.00000000000E+00 0. -1.
         -1    1    6    6    0  503 -0.42118292620E+02 -0.19941135141E+03  0.32022541435E+03  0.37958286795E+03  0.00000000000E+00 0.  1.
<mgrwt>
<rscale>  0 0.17862985E+04</rscale>
<asrwt>0</asrwt>
<pdfrwt beam="1">  1        2 0.69843850E-01 0.17862985E+04</pdfrwt>
<pdfrwt beam="2">  1       -1 0.27032934E+00 0.17862985E+04</pdfrwt>
<totfact> 0.38259941E+00</totfact>
</mgrwt>
</event>
<event>
12    7  0.1661464E-007  0.2936133E+04  0.7818608E-02  0.8262207E-01
          2   -1    0    0  501    0  0.00000000000E+00  0.00000000000E+00  0.24243869772E+04  0.24243869772E+04  0.00000000000E+00 0. -1.
         -1   -1    0    0    0  501 -0.00000000000E+00 -0.00000000000E+00 -0.88897514476E+03  0.88897514476E+03  0.00000000000E+00 0.  1.
         24    2    1    2    0    0 -0.90936322963E+03 -0.41530823962E+03 -0.29267423759E+03  0.10437761318E+04  0.66241880099E+02 0.  0.
        254    2    1    2    0    0  0.90936322963E+03  0.41530823962E+03  0.18280860700E+04  0.22695859902E+04  0.89983302337E+03 0.  0.
         23    2    4    4    0    0  0.81059921257E+03 -0.63521916618E+02  0.89690025526E+03  0.12139327969E+04  0.89981388502E+02 0.  0.
         23    2    4    4    0    0  0.98764017061E+02  0.47883015624E+03  0.93118581479E+03  0.10556531932E+04  0.90906507633E+02 0.  0.
          2    1    3    3  502    0 -0.19878825686E+03 -0.63927097852E+02 -0.49387092390E+02  0.21457523110E+03  0.00000000000E+00 0. -1.
         -1    1    3    3    0  502 -0.71057497276E+03 -0.35138114177E+03 -0.24328714520E+03  0.82920090071E+03  0.00000000000E+00 0.  1.
         13    1    5    5    0    0  0.78356426607E+03 -0.67131459508E+02  0.83915312536E+03  0.11500685022E+04  0.00000000000E+00 0.  1.
        -13    1    5    5    0    0  0.27034946501E+02  0.36095428898E+01  0.57747129899E+02  0.63864294749E+02  0.00000000000E+00 0. -1.
          3    1    6    6  503    0  0.11094905192E+03  0.35054005810E+03  0.71414136956E+03  0.80323466072E+03  0.00000000000E+00 0.  1.
         -3    1    6    6    0  503 -0.12185034855E+02  0.12829009814E+03  0.21704444522E+03  0.25241853252E+03  0.00000000000E+00 0. -1.
<mgrwt>
<rscale>  0 0.29361334E+04</rscale>
<asrwt>0</asrwt>
<pdfrwt beam="1">  1        2 0.37298261E+00 0.29361334E+04</pdfrwt>
<pdfrwt beam="2">  1       -1 0.13676541E+00 0.29361334E+04</pdfrwt>
<totfact> 0.16771763E+00</totfact>
</mgrwt>
</event>
<event>
12    7  0.1661464E-007  0.1731205E+04  0.7818608E-02  0.8743765E-01
         -1   -1    0    0    0  501 -0.00000000000E+00  0.00000000000E+00  0.68989260378E+03  0.68989260378E+03  0.00000000000E+00 0.  1.
          2   -1    0    0  501    0  0.00000000000E+00 -0.00000000000E+00 -0.10860638714E+04  0.10860638714E+04  0.00000000000E+00 0. -1.
         24    2    1    2    0    0 -0.27058166535E+03  0.33543309183E+03  0.32579753752E+03  0.54611662668E+03  0.79809383870E+02 0.  0.
        254    2    1    2    0    0  0.27058166535E+03 -0.33543309183E+03 -0.72196880515E+03  0.12298398485E+04  0.89751729824E+03 0.  0.
         23    2    4    4    0    0  0.10200671069E+03 -0.61679677033E+03 -0.33817062230E+03  0.71641445363E+03  0.89703258886E+02 0.  0.
         23    2    4    4    0    0  0.16857495467E+03  0.28136367850E+03 -0.38379818284E+03  0.51342539488E+03  0.93389271490E+02 0.  0.
          2    1    3    3  502    0 -0.30882441070E+01 -0.22258548515E+01  0.13559765373E+02  0.14083995117E+02  0.00000000000E+00 0. -1.
         -1    1    3    3    0  502 -0.26749342125E+03  0.33765894669E+03  0.31223777215E+03  0.53203263156E+03  0.00000000000E+00 0.  1.
         13    1    5    5    0    0  0.98984709880E+02 -0.55207224225E+03 -0.27040397400E+03  0.62265563726E+03  0.00000000000E+00 0.  1.
        -13    1    5    5    0    0  0.30220008080E+01 -0.64724528084E+02 -0.67766648303E+02  0.93758816368E+02  0.00000000000E+00 0. -1.
          2    1    6    6  503    0  0.75129741612E+02  0.21072517014E+03 -0.25969104114E+03  0.34276670237E+03  0.00000000000E+00 0. -1.
         -2    1    6    6    0  503  0.93445213054E+02  0.70638508361E+02 -0.12410714170E+03  0.17065869251E+03  0.00000000000E+00 0.  1.
<mgrwt>
<rscale>  0 0.17312047E+04</rscale>
<asrwt>0</asrwt>
<pdfrwt beam="1">  1        2 0.16708675E+00 0.17312047E+04</pdfrwt>
<pdfrwt beam="2">  1       -1 0.10613732E+00 0.17312047E+04</pdfrwt>
<totfact> 0.19978916E+01</totfact>
</mgrwt>
</event>
<event>
12    7  0.1661464E-007  0.1631306E+04  0.7818608E-02  0.8801543E-01
         -1   -1    0    0    0  501 -0.00000000000E+00  0.00000000000E+00  0.14504376786E+04  0.14504376786E+04  0.00000000000E+00 0.  1.
          2   -1    0    0  501    0  0.00000000000E+00 -0.00000000000E+00 -0.45868236317E+03  0.45868236317E+03  0.00000000000E+00 0. -1.
         24    2    1    2    0    0  0.26807644751E+03 -0.28623730616E+03 -0.12135992022E+03  0.41786350733E+03  0.78005790643E+02 0.  0.
        254    2    1    2    0    0 -0.26807644751E+03  0.28623730616E+03  0.11131152356E+04  0.14912565344E+04  0.91160503865E+03 0.  0.
         23    2    4    4    0    0  0.58613170728E+02  0.50900924257E+03  0.35300680702E+03  0.62963453059E+03  0.96436110998E+02 0.  0.
         23    2    4    4    0    0 -0.32668961823E+03 -0.22277193641E+03  0.76010842862E+03  0.86162200383E+03  0.90962695117E+02 0.  0.
          2    1    3    3  502    0  0.23611670485E+03 -0.27757074823E+03 -0.98066033608E+02  0.37737721914E+03  0.00000000000E+00 0. -1.
         -1    1    3    3    0  502  0.31959742659E+02 -0.86665579296E+01 -0.23293886616E+02  0.40486288184E+02  0.00000000000E+00 0.  1.
         13    1    5    5    0    0  0.43018381346E+02  0.71035955053E+02  0.60100893892E+02  0.10251246505E+03  0.00000000000E+00 0. -1.
        -13    1    5    5    0    0  0.15594789382E+02  0.43797328752E+03  0.29290591313E+03  0.52712206555E+03  0.00000000000E+00 0.  1.
          3    1    6    6  503    0 -0.37985745355E+02  0.31340986412E+01  0.55034605980E+02  0.66944359582E+02  0.00000000000E+00 0. -1.
         -3    1    6    6    0  503 -0.28870387288E+03 -0.22590603505E+03  0.70507382264E+03  0.79467764425E+03  0.00000000000E+00 0.  1.
<mgrwt>
<rscale>  0 0.16313064E+04</rscale>
<asrwt>0</asrwt>
<pdfrwt beam="1">  1        2 0.70566518E-01 0.16313064E+04</pdfrwt>
<pdfrwt beam="2">  1       -1 0.22314426E+00 0.16313064E+04</pdfrwt>
<totfact> 0.78020486E+00</totfact>
</mgrwt>
</event>
<event>
12    7  0.1661464E-007  0.3007534E+04  0.7818608E-02  0.8241583E-01
         -1   -1    0    0    0  501 -0.00000000000E+00  0.00000000000E+00  0.94362618944E+03  0.94362618944E+03  0.00000000000E+00 0.  1.
          2   -1    0    0  501    0  0.00000000000E+00 -0.00000000000E+00 -0.23964097474E+04  0.23964097474E+04  0.00000000000E+00 0. -1.
         24    2    1    2    0    0 -0.64287850272E+03  0.98399601746E+03  0.11966017074E+03  0.11849554410E+04  0.90884042115E+02 0.  0.
        254    2    1    2    0    0  0.64287850272E+03 -0.98399601746E+03 -0.15724437287E+04  0.21550804959E+04  0.88896104071E+03 0.  0.
         23    2    4    4    0    0  0.12292664122E+02 -0.94511689965E+02  0.93969830083E+02  0.16139517166E+03  0.90191481515E+02 0.  0.
         23    2    4    4    0    0  0.63058583860E+03 -0.88948432750E+03 -0.16664135588E+04  0.19936853242E+04  0.95006074374E+02 0.  0.
          2    1    3    3  502    0 -0.20151725354E+03  0.38858917153E+03  0.46861958391E+02  0.44023492688E+03  0.00000000000E+00 0. -1.
         -1    1    3    3    0  502 -0.44136124918E+03  0.59540684593E+03  0.72798212348E+02  0.74472051414E+03  0.00000000000E+00 0.  1.
         13    1    5    5    0    0  0.35561315235E+02 -0.16702410317E+02  0.63463907533E+02  0.74640774454E+02  0.00000000000E+00 0.  1.
        -13    1    5    5    0    0 -0.23268651112E+02 -0.77809279648E+02  0.30505922550E+02  0.86754397205E+02  0.00000000000E+00 0. -1.
          1    1    6    6  503    0  0.49602044698E+02 -0.12201229941E+03 -0.21237843916E+03  0.24990391247E+03  0.00000000000E+00 0. -1.
         -1    1    6    6    0  503  0.58098379390E+03 -0.76747202809E+03 -0.14540351197E+04  0.17437814117E+04  0.00000000000E+00 0.  1.
<mgrwt>
<rscale>  0 0.30075339E+04</rscale>
<asrwt>0</asrwt>
<pdfrwt beam="1">  1        2 0.36867842E+00 0.30075339E+04</pdfrwt>
<pdfrwt beam="2">  1       -1 0.14517326E+00 0.30075339E+04</pdfrwt>
<totfact> 0.14792360E+00</totfact>
</mgrwt>
</event>
<event>
12    7  0.1661464E-007  0.1633491E+04  0.7818608E-02  0.8800234E-01
         -1   -1    0    0    0  501 -0.00000000000E+00  0.00000000000E+00  0.26435437122E+03  0.26435437122E+03  0.00000000000E+00 0.  1.
          2   -1    0    0  501    0  0.00000000000E+00 -0.00000000000E+00 -0.25234039867E+04  0.25234039867E+04  0.00000000000E+00 0. -1.
         24    2    1    2    0    0 -0.89763718143E+02  0.32934767394E+03 -0.15510498012E+04  0.15906424608E+04  0.88659669607E+02 0.  0.
        254    2    1    2    0    0  0.89763718143E+02 -0.32934767394E+03 -0.70799981433E+03  0.11971158971E+04  0.90293705131E+03 0.  0.
         23    2    4    4    0    0 -0.27434036595E+03 -0.15804651216E+03  0.51611392196E+02  0.33281629496E+03  0.88665743037E+02 0.  0.
         23    2    4    4    0    0  0.36410408409E+03 -0.17130116178E+03 -0.75961120652E+03  0.86429960217E+03  0.89937451346E+02 0.  0.
          4    1    3    3  502    0 -0.10141079857E+03  0.32247596540E+03 -0.14620805560E+04  0.15006513421E+04  0.00000000000E+00 0. -1.
         -3    1    3    3    0  502  0.11647080423E+02  0.68717085410E+01 -0.88969245218E+02  0.89991118758E+02  0.00000000000E+00 0.  1.
         13    1    5    5    0    0 -0.24337891015E+03 -0.13470494149E+03  0.74260065581E+02  0.28791191797E+03  0.00000000000E+00 0. -1.
        -13    1    5    5    0    0 -0.30961455797E+02 -0.23341570668E+02 -0.22648673385E+02  0.44904376985E+02  0.00000000000E+00 0.  1.
          3    1    6    6  503    0  0.29027918869E+03 -0.15890300696E+03 -0.67199363414E+03  0.74905781975E+03  0.00000000000E+00 0. -1.
         -3    1    6    6    0  503  0.73824895401E+02 -0.12398154810E+02 -0.87617572381E+02  0.11524178241E+03  0.00000000000E+00 0.  1.
<mgrwt>
<rscale>  0 0.16334906E+04</rscale>
<asrwt>0</asrwt>
<pdfrwt beam="1">  1        2 0.38821601E+00 0.16334906E+04</pdfrwt>
<pdfrwt beam="2">  1       -1 0.40669902E-01 0.16334906E+04</pdfrwt>
<totfact> 0.21755946E+01</totfact>
</mgrwt>
</event>
<event>
12    7  0.1661464E-007  0.1855930E+04  0.7818608E-02  0.8677109E-01
          2   -1    0    0  501    0  0.00000000000E+00  0.00000000000E+00  0.18937718002E+04  0.18937718002E+04  0.00000000000E+00 0. -1.
         -1   -1    0    0    0  501 -0.00000000000E+00 -0.00000000000E+00 -0.45471115143E+03  0.45471115143E+03  0.00000000000E+00 0.  1.
         24    2    1    2    0    0 -0.47250566923E+03  0.27774670331E+03 -0.15870280076E+02  0.55411108088E+03  0.79889833529E+02 0.  0.
        254    2    1    2    0    0  0.47250566923E+03 -0.27774670331E+03  0.14549309288E+04  0.17943718707E+04  0.89584684190E+03 0.  0.
         23    2    4    4    0    0  0.11792095163E+03 -0.49164946441E+03  0.11847578005E+04  0.12912439081E+04  0.89639487495E+02 0.  0.
         23    2    4    4    0    0  0.35458471760E+03  0.21390276110E+03  0.27017312832E+03  0.50312796261E+03  0.93056511463E+02 0.  0.
          2    1    3    3  502    0 -0.19796294343E+03  0.74370974988E+02 -0.20046493748E+02  0.21241993975E+03  0.00000000000E+00 0. -1.
         -1    1    3    3    0  502 -0.27454272580E+03  0.20337572832E+03  0.41762136719E+01  0.34169114112E+03  0.00000000000E+00 0.  1.
         13    1    5    5    0    0  0.11088290402E+03 -0.40451331054E+03  0.89162604173E+03  0.98535426883E+03  0.00000000000E+00 0. -1.
        -13    1    5    5    0    0  0.70380476073E+01 -0.87136153873E+02  0.29313175875E+03  0.30588963927E+03  0.00000000000E+00 0.  1.
          2    1    6    6  503    0  0.35155443479E+03  0.21322831427E+03  0.27690493712E+03  0.49571481603E+03  0.00000000000E+00 0. -1.
         -2    1    6    6    0  503  0.30302828127E+01  0.67444682917E+00 -0.67318088011E+01  0.74131465778E+01  0.00000000000E+00 0.  1.
<mgrwt>
<rscale>  0 0.18559301E+04</rscale>
<asrwt>0</asrwt>
<pdfrwt beam="1">  1        2 0.29134950E+00 0.18559301E+04</pdfrwt>
<pdfrwt beam="2">  1       -1 0.69955563E-01 0.18559301E+04</pdfrwt>
<totfact> 0.16924435E+01</totfact>
</mgrwt>
</event>
<event>
12    7  0.1661464E-007  0.1025224E+04  0.7818608E-02  0.9281304E-01
         -3   -1    0    0    0  501 -0.00000000000E+00  0.00000000000E+00  0.52767895271E+03  0.52767895271E+03  0.00000000000E+00 0.  1.
          2   -1    0    0  501    0  0.00000000000E+00 -0.00000000000E+00 -0.49797555248E+03  0.49797555248E+03  0.00000000000E+00 0. -1.
         24    2    1    2    0    0  0.15570547421E+02  0.58272923455E+00  0.89612533586E+02  0.11870795226E+03  0.76278373297E+02 0.  0.
        254    2    1    2    0    0 -0.15570547421E+02 -0.58272923455E+00 -0.59909133358E+02  0.90694655293E+03  0.90483156670E+03 0.  0.
         23    2    4    4    0    0  0.42003412453E+03  0.11972499302E+03 -0.31457534295E+02  0.44493671599E+03  0.78843928394E+02 0.  0.
         23    2    4    4    0    0 -0.43560467196E+03 -0.12030772226E+03 -0.28451599063E+02  0.46200983694E+03  0.91750845640E+02 0.  0.
          2    1    3    3  502    0  0.12522647387E+02  0.25488711346E+02  0.30265883192E+01  0.28559610301E+02  0.00000000000E+00 0. -1.
         -3    1    3    3    0  502  0.30479000342E+01 -0.24905982112E+02  0.86585945266E+02  0.90148341955E+02  0.00000000000E+00 0.  1.
         13    1    5    5    0    0  0.30276362810E+03  0.99728230492E+02 -0.55519615846E+02  0.32356446375E+03  0.00000000000E+00 0. -1.
        -13    1    5    5    0    0  0.11727049643E+03  0.19996762533E+02  0.24062081551E+02  0.12137225224E+03  0.00000000000E+00 0.  1.
          2    1    6    6  503    0 -0.23440112026E+02 -0.13598915768E+00 -0.22721657873E+02  0.32645536928E+02  0.00000000000E+00 0.  1.
         -2    1    6    6    0  503 -0.41216455993E+03 -0.12017173310E+03 -0.57299411899E+01  0.42936430001E+03  0.00000000000E+00 0. -1.
<mgrwt>
<rscale>  0 0.10252243E+04</rscale>
<asrwt>0</asrwt>
<pdfrwt beam="1">  1        2 0.76611623E-01 0.10252243E+04</pdfrwt>
<pdfrwt beam="2">  1       -3 0.81181377E-01 0.10252243E+04</pdfrwt>
<totfact> 0.54745134E+01</totfact>
</mgrwt>
</event>
<event>
12    7  0.1661464E-007  0.1434525E+04  0.7818608E-02  0.8929200E-01
         -1   -1    0    0    0  501 -0.00000000000E+00  0.00000000000E+00  0.23649299690E+03  0.23649299690E+03  0.00000000000E+00 0.  1.
          2   -1    0    0  501    0  0.00000000000E+00 -0.00000000000E+00 -0.21753951648E+04  0.21753951648E+04  0.00000000000E+00 0. -1.
         24    2    1    2    0    0 -0.28913407887E+03 -0.16427144511E+03 -0.10720095289E+04  0.11251791743E+04  0.78994436060E+02 0.  0.
        254    2    1    2    0    0  0.28913407887E+03  0.16427144511E+03 -0.86689263900E+03  0.12867089874E+04  0.89080499971E+03 0.  0.
         23    2    4    4    0    0  0.47412766661E+03  0.16709596782E+03 -0.93741865567E+03  0.10676570198E+04  0.91758755175E+02 0.  0.
         23    2    4    4    0    0 -0.18499358774E+03 -0.28245227088E+01  0.70526016669E+02  0.21905196765E+03  0.93697599077E+02 0.  0.
          4    1    3    3  502    0 -0.21262097255E+03 -0.10966406276E+03 -0.87130720581E+03  0.90355416634E+03  0.00000000000E+00 0. -1.
         -3    1    3    3    0  502 -0.76513106321E+02 -0.54607382351E+02 -0.20070232314E+03  0.22162500797E+03  0.00000000000E+00 0.  1.
         13    1    5    5    0    0  0.30599720561E+02 -0.80805445264E+01 -0.88227789735E+02  0.93732496925E+02  0.00000000000E+00 0. -1.
        -13    1    5    5    0    0  0.44352794605E+03  0.17517651235E+03 -0.84919086593E+03  0.97392452284E+03  0.00000000000E+00 0.  1.
          1    1    6    6  503    0 -0.45674881568E+02  0.21702180756E+02  0.58132226607E+02  0.77048914504E+02  0.00000000000E+00 0. -1.
         -1    1    6    6    0  503 -0.13931870617E+03 -0.24526703465E+02  0.12393790062E+02  0.14200305315E+03  0.00000000000E+00 0.  1.
<mgrwt>
<rscale>  0 0.14345253E+04</rscale>
<asrwt>0</asrwt>
<pdfrwt beam="1">  1        2 0.33467617E+00 0.14345253E+04</pdfrwt>
<pdfrwt beam="2">  1       -1 0.36383539E-01 0.14345253E+04</pdfrwt>
<totfact> 0.42715392E+01</totfact>
</mgrwt>
</event>
<event>
12    7  0.1661464E-007  0.2883788E+04  0.7818608E-02  0.8277717E-01
         -1   -1    0    0    0  501 -0.00000000000E+00  0.00000000000E+00  0.53425182843E+03  0.53425182843E+03  0.00000000000E+00 0.  1.
          2   -1    0    0  501    0  0.00000000000E+00 -0.00000000000E+00 -0.38915336196E+04  0.38915336196E+04  0.00000000000E+00 0. -1.
         24    2    1    2    0    0  0.34849012648E+03 -0.80369651054E+03 -0.30112456913E+04  0.31370800065E+04  0.79353035480E+02 0.  0.
        254    2    1    2    0    0 -0.34849012648E+03  0.80369651054E+03 -0.34603609992E+03  0.12887054416E+04  0.87957221618E+03 0.  0.
         23    2    4    4    0    0 -0.23570439758E+03  0.37686169948E+03 -0.61354858679E+03  0.76306576747E+03  0.90808554500E+02 0.  0.
         23    2    4    4    0    0 -0.11278572891E+03  0.42683481107E+03  0.26751248687E+03  0.52563967414E+03  0.99123961845E+02 0.  0.
          4    1    3    3  502    0  0.30767809816E+03 -0.70121088629E+03 -0.27166614334E+04  0.28225187090E+04  0.00000000000E+00 0. -1.
         -3    1    3    3    0  502  0.40812028326E+02 -0.10248562425E+03 -0.29458425793E+03  0.31456129745E+03  0.00000000000E+00 0.  1.
         13    1    5    5    0    0 -0.79953214303E+02  0.83892542458E+02 -0.21708027368E+03  0.24607787463E+03  0.00000000000E+00 0.  1.
        -13    1    5    5    0    0 -0.15575118327E+03  0.29296915702E+03 -0.39646831310E+03  0.51698789285E+03  0.00000000000E+00 0. -1.
          1    1    6    6  503    0 -0.69521730406E+02  0.33163328062E+03  0.15684559235E+03  0.37338243619E+03  0.00000000000E+00 0. -1.
         -1    1    6    6    0  503 -0.43263998500E+02  0.95201530447E+02  0.11066689452E+03  0.15225723795E+03  0.00000000000E+00 0.  1.
<mgrwt>
<rscale>  0 0.28837884E+04</rscale>
<asrwt>0</asrwt>
<pdfrwt beam="1">  1        2 0.59869747E+00 0.28837884E+04</pdfrwt>
<pdfrwt beam="2">  1       -1 0.82192591E-01 0.28837884E+04</pdfrwt>
<totfact> 0.60341359E-01</totfact>
</mgrwt>
</event>
<event>
12    7  0.1661464E-007  0.1246043E+04  0.7818608E-02  0.9073483E-01
          2   -1    0    0  501    0  0.00000000000E+00  0.00000000000E+00  0.49330629614E+03  0.49330629614E+03  0.00000000000E+00 0. -1.
         -1   -1    0    0    0  501 -0.00000000000E+00 -0.00000000000E+00 -0.78684489486E+03  0.78684489486E+03  0.00000000000E+00 0.  1.
         24    2    1    2    0    0 -0.75138644350E+02 -0.25592915736E+03  0.57940811549E+02  0.28426670303E+03  0.79403219993E+02 0.  0.
        254    2    1    2    0    0  0.75138644350E+02  0.25592915736E+03 -0.35147941027E+03  0.99588448797E+03  0.89280601929E+03 0.  0.
         23    2    4    4    0    0  0.43020036677E+03  0.45328983701E+02  0.54465287081E+01  0.44228284893E+03  0.91964022593E+02 0.  0.
         23    2    4    4    0    0 -0.35506172242E+03  0.21060017366E+03 -0.35692593897E+03  0.55360163904E+03  0.93045091021E+02 0.  0.
          2    1    3    3  502    0  0.10230448716E+02 -0.36897129361E+02  0.27679512138E+02  0.47246329256E+02  0.00000000000E+00 0. -1.
         -1    1    3    3    0  502 -0.85369093067E+02 -0.21903202800E+03  0.30261299411E+02  0.23702037377E+03  0.00000000000E+00 0.  1.
         13    1    5    5    0    0  0.43465814961E+03  0.44635059548E+02  0.81564555272E+01  0.43702004911E+03  0.00000000000E+00 0. -1.
        -13    1    5    5    0    0 -0.44577828372E+01  0.69392415228E+00 -0.27099268191E+01  0.52627998174E+01  0.00000000000E+00 0.  1.
          3    1    6    6  503    0 -0.23773336747E+03  0.18783730082E+03 -0.24162314426E+03  0.38753290110E+03  0.00000000000E+00 0. -1.
         -3    1    6    6    0  503 -0.11732835495E+03  0.22762872844E+02 -0.11530279471E+03  0.16606873794E+03  0.00000000000E+00 0.  1.
<mgrwt>
<rscale>  0 0.12460426E+04</rscale>
<asrwt>0</asrwt>
<pdfrwt beam="1">  1        2 0.75893277E-01 0.12460426E+04</pdfrwt>
<pdfrwt beam="2">  1       -1 0.12105306E+00 0.12460426E+04</pdfrwt>
<totfact> 0.42658879E+01</totfact>
</mgrwt>
</event>
<event>
12    7  0.1661464E-007  0.1505031E+04  0.7818608E-02  0.8881114E-01
         -1   -1    0    0    0  501 -0.00000000000E+00  0.00000000000E+00  0.41102283923E+03  0.41102283923E+03  0.00000000000E+00 0.  1.
          2   -1    0    0  501    0  0.00000000000E+00 -0.00000000000E+00 -0.13777325989E+04  0.13777325989E+04  0.00000000000E+00 0. -1.
         24    2    1    2    0    0  0.17688042842E+03  0.12235218388E+03 -0.81574201406E+03  0.84743812953E+03  0.80371680430E+02 0.  0.
        254    2    1    2    0    0 -0.17688042842E+03 -0.12235218388E+03 -0.15096774559E+03  0.94131730858E+03  0.90389726870E+03 0.  0.
         23    2    4    4    0    0 -0.24022442648E+03 -0.99215621957E+02  0.33988676870E+03  0.43763844144E+03  0.91939519076E+02 0.  0.
         23    2    4    4    0    0  0.63343998064E+02 -0.23136561923E+02 -0.49085451429E+03  0.50367886715E+03  0.90589648543E+02 0.  0.
          4    1    3    3  502    0  0.73161322411E+02  0.24287589437E+02 -0.41341858420E+03  0.42054416160E+03  0.00000000000E+00 0. -1.
         -3    1    3    3    0  502  0.10371910601E+03  0.98064594442E+02 -0.40232342987E+03  0.42689396793E+03  0.00000000000E+00 0.  1.
         13    1    5    5    0    0 -0.32413029215E+02 -0.46526498541E+02  0.41717505484E+02  0.70396518332E+02  0.00000000000E+00 0. -1.
        -13    1    5    5    0    0 -0.20781139727E+03 -0.52689123416E+02  0.29816926321E+03  0.36724192310E+03  0.00000000000E+00 0.  1.
          2    1    6    6  503    0  0.86859878406E+00 -0.38755572616E+02 -0.94746572726E+02  0.10237021987E+03  0.00000000000E+00 0. -1.
         -2    1    6    6    0  503  0.62475399280E+02  0.15619010693E+02 -0.39610794156E+03  0.40130864728E+03  0.00000000000E+00 0.  1.
<mgrwt>
<rscale>  0 0.15050310E+04</rscale>
<asrwt>0</asrwt>
<pdfrwt beam="1">  1        2 0.21195886E+00 0.15050310E+04</pdfrwt>
<pdfrwt beam="2">  1       -1 0.63234283E-01 0.15050310E+04</pdfrwt>
<totfact> 0.41611392E+01</totfact>
</mgrwt>
</event>
<event>
12    7  0.1661464E-007  0.1899441E+04  0.7818608E-02  0.8655134E-01
         -1   -1    0    0    0  501 -0.00000000000E+00  0.00000000000E+00  0.38878573322E+03  0.38878573322E+03  0.00000000000E+00 0.  1.
          2   -1    0    0  501    0  0.00000000000E+00 -0.00000000000E+00 -0.23199654534E+04  0.23199654534E+04  0.00000000000E+00 0. -1.
         24    2    1    2    0    0 -0.16691044310E+03  0.37611351932E+03  0.11800131735E+03  0.43555131892E+03  0.80375152166E+02 0.  0.
        254    2    1    2    0    0  0.16691044310E+03 -0.37611351932E+03 -0.20491810376E+04  0.22731998677E+04  0.89385358899E+03 0.  0.
         23    2    4    4    0    0 -0.48861430943E+02 -0.46327882677E+03 -0.19453137481E+04  0.20027758663E+04  0.99251605795E+02 0.  0.
         23    2    4    4    0    0  0.21577187404E+03  0.87165307454E+02 -0.10386728948E+03  0.27042400147E+03  0.90473389998E+02 0.  0.
          2    1    3    3  502    0 -0.28901331890E+02  0.16171016198E+03  0.47588479395E+02  0.17102668460E+03  0.00000000000E+00 0. -1.
         -1    1    3    3    0  502 -0.13800911121E+03  0.21440335733E+03  0.70412837957E+02  0.26452463432E+03  0.00000000000E+00 0.  1.
         13    1    5    5    0    0 -0.76243538022E+02 -0.34781823128E+03 -0.15261859077E+04  0.15671738972E+04  0.00000000000E+00 0.  1.
        -13    1    5    5    0    0  0.27382107079E+02 -0.11546059549E+03 -0.41912784036E+03  0.43560196907E+03  0.00000000000E+00 0. -1.
          2    1    6    6  503    0  0.40431602892E+02  0.50931275757E+02 -0.54101915349E+02  0.84591527986E+02  0.00000000000E+00 0. -1.
         -2    1    6    6    0  503  0.17534027115E+03  0.36234031697E+02 -0.49765374132E+02  0.18583247349E+03  0.00000000000E+00 0.  1.
<mgrwt>
<rscale>  0 0.18994415E+04</rscale>
<asrwt>0</asrwt>
<pdfrwt beam="1">  1        2 0.35691777E+00 0.18994415E+04</pdfrwt>
<pdfrwt beam="2">  1       -1 0.59813189E-01 0.18994415E+04</pdfrwt>
<totfact> 0.13352324E+01</totfact>
</mgrwt>
</event>
<event>
12    7  0.1661464E-007  0.1357319E+04  0.7818608E-02  0.8985306E-01
          2   -1    0    0  501    0  0.00000000000E+00  0.00000000000E+00  0.33615119554E+04  0.33615119554E+04  0.00000000000E+00 0. -1.
         -1   -1    0    0    0  501 -0.00000000000E+00 -0.00000000000E+00 -0.13701526588E+03  0.13701526588E+03  0.00000000000E+00 0.  1.
         24    2    1    2    0    0 -0.34096393509E+03  0.11591934728E+03  0.11736320248E+04  0.12300848222E+04  0.77477995972E+02 0.  0.
        254    2    1    2    0    0  0.34096393509E+03 -0.11591934728E+03  0.20508646646E+04  0.22684423991E+04  0.90005074589E+03 0.  0.
         23    2    4    4    0    0  0.46816231919E+03  0.23319586778E+03  0.80761314310E+03  0.96769603140E+03  0.10315207430E+03 0.  0.
         23    2    4    4    0    0 -0.12719838410E+03 -0.34911521506E+03  0.12432515215E+04  0.13007463677E+04  0.90586449884E+02 0.  0.
          2    1    3    3  502    0 -0.16112823945E+03  0.78182005160E+02  0.68560577925E+03  0.70861133213E+03  0.00000000000E+00 0. -1.
         -1    1    3    3    0  502 -0.17983569564E+03  0.37737342116E+02  0.48802624560E+03  0.52147349003E+03  0.00000000000E+00 0.  1.
         13    1    5    5    0    0  0.43851937108E+03  0.19370583710E+03  0.76324845119E+03  0.90131536566E+03  0.00000000000E+00 0.  1.
        -13    1    5    5    0    0  0.29642948107E+02  0.39490030685E+02  0.44364691910E+02  0.66380665742E+02  0.00000000000E+00 0. -1.
          1    1    6    6  503    0 -0.14471326032E+02 -0.10574406765E+03  0.24806401621E+03  0.27004996438E+03  0.00000000000E+00 0. -1.
         -1    1    6    6    0  503 -0.11272705807E+03 -0.24337114741E+03  0.99518750533E+03  0.10306964033E+04  0.00000000000E+00 0.  1.
<mgrwt>
<rscale>  0 0.13573186E+04</rscale>
<asrwt>0</asrwt>
<pdfrwt beam="1">  1        2 0.51715562E+00 0.13573186E+04</pdfrwt>
<pdfrwt beam="2">  1       -1 0.21079274E-01 0.13573186E+04</pdfrwt>
<totfact> 0.21422914E+01</totfact>
</mgrwt>
</event>
<event>
12    7  0.1661464E-007  0.1579684E+04  0.7818608E-02  0.8833127E-01
          2   -1    0    0  501    0  0.00000000000E+00  0.00000000000E+00  0.18960199712E+04  0.18960199712E+04  0.00000000000E+00 0. -1.
         -1   -1    0    0    0  501 -0.00000000000E+00 -0.00000000000E+00 -0.32903163027E+03  0.32903163027E+03  0.00000000000E+00 0.  1.
         24    2    1    2    0    0  0.10482862701E+03 -0.44854255258E+03  0.95765838350E+03  0.10659844628E+04  0.83867949348E+02 0.  0.
        254    2    1    2    0    0 -0.10482862701E+03  0.44854255258E+03  0.60932995745E+03  0.11590671387E+04  0.87176497546E+03 0.  0.
         23    2    4    4    0    0 -0.35364430294E+03  0.42596045011E+03  0.80183148557E+02  0.56693879095E+03  0.92106771295E+02 0.  0.
         23    2    4    4    0    0  0.24881567593E+03  0.22582102471E+02  0.52914680889E+03  0.59212834773E+03  0.90556296814E+02 0.  0.
          2    1    3    3  502    0  0.17330935496E+02 -0.51152418534E+02  0.18508268188E+03  0.19280179040E+03  0.00000000000E+00 0. -1.
         -1    1    3    3    0  502  0.87497691511E+02 -0.39739013405E+03  0.77257570162E+03  0.87318267240E+03  0.00000000000E+00 0.  1.
         13    1    5    5    0    0 -0.31900789040E+02  0.92391873059E+02  0.11255375357E+02  0.98390050428E+02  0.00000000000E+00 0. -1.
        -13    1    5    5    0    0 -0.32174351390E+03  0.33356857705E+03  0.68927773200E+02  0.46854874053E+03  0.00000000000E+00 0.  1.
          4    1    6    6  503    0  0.12091121064E+03 -0.33906186495E+02  0.26547176209E+03  0.29367398048E+03  0.00000000000E+00 0. -1.
         -4    1    6    6    0  503  0.12790446529E+03  0.56488288966E+02  0.26367504679E+03  0.29845436726E+03  0.00000000000E+00 0.  1.
<mgrwt>
<rscale>  0 0.15796842E+04</rscale>
<asrwt>0</asrwt>
<pdfrwt beam="1">  1        2 0.29169537E+00 0.15796842E+04</pdfrwt>
<pdfrwt beam="2">  1       -1 0.50620252E-01 0.15796842E+04</pdfrwt>
<totfact> 0.32737748E+01</totfact>
</mgrwt>
</event>
<event>
12    7  0.1661464E-007  0.1479661E+04  0.7818608E-02  0.8898092E-01
          2   -1    0    0  501    0  0.00000000000E+00  0.00000000000E+00  0.75763933327E+03  0.75763933327E+03  0.00000000000E+00 0. -1.
         -1   -1    0    0    0  501 -0.00000000000E+00 -0.00000000000E+00 -0.72243993378E+03  0.72243993378E+03  0.00000000000E+00 0.  1.
         24    2    1    2    0    0  0.27348306905E+03 -0.29039513924E+03  0.23605107554E+03  0.47066190707E+03  0.81732457148E+02 0.  0.
        254    2    1    2    0    0 -0.27348306905E+03  0.29039513924E+03 -0.20085167605E+03  0.10094173600E+04  0.90524012555E+03 0.  0.
         23    2    4    4    0    0  0.17252844572E+03  0.44457587506E+03 -0.20933787555E+03  0.52876131726E+03  0.91391527119E+02 0.  0.
         23    2    4    4    0    0 -0.44601151477E+03 -0.15418073582E+03  0.84861994945E+01  0.48065604271E+03  0.90885891163E+02 0.  0.
          4    1    3    3  502    0  0.26450515960E+03 -0.24681461630E+03  0.21968634008E+03  0.42325231517E+03  0.00000000000E+00 0. -1.
         -3    1    3    3    0  502  0.89779094430E+01 -0.43580522936E+02  0.16364735464E+02  0.47409591900E+02  0.00000000000E+00 0.  1.
         13    1    5    5    0    0  0.18017235477E+03  0.43853395681E+03 -0.21089576252E+03  0.51889414272E+03  0.00000000000E+00 0. -1.
        -13    1    5    5    0    0 -0.76439090494E+01  0.60419182456E+01  0.15578869723E+01  0.98671745429E+01  0.00000000000E+00 0.  1.
          3    1    6    6  503    0 -0.11918044145E+03 -0.27043226393E+02  0.39911576486E+02  0.12856223262E+03  0.00000000000E+00 0. -1.
         -3    1    6    6    0  503 -0.32683107332E+03 -0.12713750943E+03 -0.31425376992E+02  0.35209381010E+03  0.00000000000E+00 0.  1.
<mgrwt>
<rscale>  0 0.14796606E+04</rscale>
<asrwt>0</asrwt>
<pdfrwt beam="1">  1        2 0.11655990E+00 0.14796606E+04</pdfrwt>
<pdfrwt beam="2">  1       -1 0.11114461E+00 0.14796606E+04</pdfrwt>
<totfact> 0.30462760E+01</totfact>
</mgrwt>
</event>
<event>
12    7  0.1661464E-007  0.1539372E+04  0.7818608E-02  0.8858685E-01
         -1   -1    0    0    0  501 -0.00000000000E+00  0.00000000000E+00  0.15142632861E+04  0.15142632861E+04  0.00000000000E+00 0.  1.
          2   -1    0    0  501    0  0.00000000000E+00 -0.00000000000E+00 -0.39122430438E+03  0.39122430438E+03  0.00000000000E+00 0. -1.
         24    2    1    2    0    0  0.41078254067E+03 -0.22405797385E+03  0.14392694194E+03  0.49592919832E+03  0.79287664631E+02 0.  0.
        254    2    1    2    0    0 -0.41078254067E+03  0.22405797385E+03  0.97911203976E+03  0.14095583921E+04  0.89958334972E+03 0.  0.
         23    2    4    4    0    0 -0.30385443350E+03  0.37702963376E+03  0.95236950629E+02  0.50158725746E+03  0.89670723190E+02 0.  0.
         23    2    4    4    0    0 -0.10692810717E+03 -0.15297165991E+03  0.88387508913E+03  0.90797113468E+03  0.91337064684E+02 0.  0.
          2    1    3    3  502    0  0.37324461952E+03 -0.18265336490E+03  0.10750708372E+03  0.42922205298E+03  0.00000000000E+00 0. -1.
         -1    1    3    3    0  502  0.37537921145E+02 -0.41404608955E+02  0.36419858223E+02  0.66707145341E+02  0.00000000000E+00 0.  1.
         13    1    5    5    0    0 -0.84816665868E+01  0.42000919350E+01 -0.10693240053E+02  0.14280224900E+02  0.00000000000E+00 0. -1.
        -13    1    5    5    0    0 -0.29537276691E+03  0.37282954182E+03  0.10593019068E+03  0.48730703256E+03  0.00000000000E+00 0.  1.
          3    1    6    6  503    0  0.50172094202E+01 -0.47890478133E+01  0.17610219234E+03  0.17623872877E+03  0.00000000000E+00 0. -1.
         -3    1    6    6    0  503 -0.11194531659E+03 -0.14818261209E+03  0.70777289679E+03  0.73173240591E+03  0.00000000000E+00 0.  1.
<mgrwt>
<rscale>  0 0.15393721E+04</rscale>
<asrwt>0</asrwt>
<pdfrwt beam="1">  1        2 0.60188356E-01 0.15393721E+04</pdfrwt>
<pdfrwt beam="2">  1       -1 0.23296358E+00 0.15393721E+04</pdfrwt>
<totfact> 0.81083868E+00</totfact>
</mgrwt>
</event>
<event>
12    7  0.1661464E-007  0.1351619E+04  0.7818608E-02  0.8989604E-01
         -1   -1    0    0    0  501 -0.00000000000E+00  0.00000000000E+00  0.15137168379E+03  0.15137168379E+03  0.00000000000E+00 0.  1.
          2   -1    0    0  501    0  0.00000000000E+00 -0.00000000000E+00 -0.30171978507E+04  0.30171978507E+04  0.00000000000E+00 0. -1.
         24    2    1    2    0    0  0.34770820855E+03 -0.11441722938E+03 -0.60475887044E+03  0.71107832987E+03  0.76855703522E+02 0.  0.
        254    2    1    2    0    0 -0.34770820855E+03  0.11441722938E+03 -0.22610672965E+04  0.24574912046E+04  0.89041866609E+03 0.  0.
         23    2    4    4    0    0 -0.26398802905E+03  0.46546273454E+03 -0.94468174933E+03  0.10896542367E+04  0.92614855177E+02 0.  0.
         23    2    4    4    0    0 -0.83720179502E+02 -0.35104550515E+03 -0.13163855472E+04  0.13678369679E+04  0.88685099241E+02 0.  0.
          4    1    3    3  502    0  0.32683886161E+02 -0.34537219546E+01 -0.10469354225E+03  0.10973104573E+03  0.00000000000E+00 0. -1.
         -3    1    3    3    0  502  0.31502432239E+03 -0.11096350743E+03 -0.50006532820E+03  0.60134728414E+03  0.00000000000E+00 0.  1.
         13    1    5    5    0    0 -0.20466579807E+02  0.60604255625E+01 -0.57486164550E+02  0.61321030338E+02  0.00000000000E+00 0.  1.
        -13    1    5    5    0    0 -0.24352144924E+03  0.45940230897E+03 -0.88719558478E+03  0.10283332064E+04  0.00000000000E+00 0. -1.
          1    1    6    6  503    0 -0.78119435965E+02 -0.24584234125E+03 -0.10536323911E+04  0.10847498876E+04  0.00000000000E+00 0. -1.
         -1    1    6    6    0  503 -0.56007435363E+01 -0.10520316391E+03 -0.26275315608E+03  0.28308708034E+03  0.00000000000E+00 0.  1.
<mgrwt>
<rscale>  0 0.13516188E+04</rscale>
<asrwt>0</asrwt>
<pdfrwt beam="1">  1        2 0.46418428E+00 0.13516188E+04</pdfrwt>
<pdfrwt beam="2">  1       -1 0.23287951E-01 0.13516188E+04</pdfrwt>
<totfact> 0.30189092E+01</totfact>
</mgrwt>
</event>
<event>
12    7  0.1661464E-007  0.1406584E+04  0.7818608E-02  0.8949067E-01
          2   -1    0    0  501    0  0.00000000000E+00  0.00000000000E+00  0.12524621135E+04  0.12524621135E+04  0.00000000000E+00 0. -1.
         -1   -1    0    0    0  501 -0.00000000000E+00 -0.00000000000E+00 -0.39491757743E+03  0.39491757743E+03  0.00000000000E+00 0.  1.
         24    2    1    2    0    0 -0.18880164813E+03  0.28123011312E+03  0.55580186920E+03  0.65587265570E+03  0.80726599252E+02 0.  0.
        254    2    1    2    0    0  0.18880164813E+03 -0.28123011312E+03  0.30174266690E+03  0.99150703527E+03  0.88164682561E+03 0.  0.
         23    2    4    4    0    0 -0.23708875295E+03 -0.11419312785E+03  0.42562508533E+03  0.50891902095E+03  0.92686079868E+02 0.  0.
         23    2    4    4    0    0  0.42589040108E+03 -0.16703698527E+03 -0.12388241842E+03  0.48258801432E+03  0.90886466476E+02 0.  0.
          4    1    3    3  502    0 -0.15946170577E+03  0.24398442062E+03  0.52123730757E+03  0.59719742457E+03  0.00000000000E+00 0. -1.
         -3    1    3    3    0  502 -0.29339942359E+02  0.37245692495E+02  0.34564561632E+02  0.58675231128E+02  0.00000000000E+00 0.  1.
         13    1    5    5    0    0 -0.31362969336E+01 -0.13069840204E+02  0.70674445678E+02  0.71941186766E+02  0.00000000000E+00 0.  1.
        -13    1    5    5    0    0 -0.23395245602E+03 -0.10112328764E+03  0.35495063965E+03  0.43697783419E+03  0.00000000000E+00 0. -1.
          2    1    6    6  503    0  0.40741341184E+03 -0.13735848055E+03 -0.10390533545E+03  0.44232268658E+03  0.00000000000E+00 0. -1.
         -2    1    6    6    0  503  0.18476989240E+02 -0.29678504720E+02 -0.19977082977E+02  0.40265327741E+02  0.00000000000E+00 0.  1.
<mgrwt>
<rscale>  0 0.14065835E+04</rscale>
<asrwt>0</asrwt>
<pdfrwt beam="1">  1        2 0.19268648E+00 0.14065835E+04</pdfrwt>
<pdfrwt beam="2">  1       -1 0.60756551E-01 0.14065835E+04</pdfrwt>
<totfact> 0.53713740E+01</totfact>
</mgrwt>
</event>
<event>
12    7  0.1661464E-007  0.1201057E+04  0.7818608E-02  0.9111932E-01
          2   -1    0    0  501    0  0.00000000000E+00  0.00000000000E+00  0.11093843504E+04  0.11093843504E+04  0.00000000000E+00 0. -1.
         -1   -1    0    0    0  501 -0.00000000000E+00 -0.00000000000E+00 -0.32507615016E+03  0.32507615016E+03  0.00000000000E+00 0.  1.
         24    2    1    2    0    0  0.32900385854E+02 -0.18412522033E+03 -0.30448523267E+02  0.20564786163E+03  0.79871135403E+02 0.  0.
        254    2    1    2    0    0 -0.32900385854E+02  0.18412522033E+03  0.81475672351E+03  0.12288126389E+04  0.90064835034E+03 0.  0.
         23    2    4    4    0    0 -0.34708487480E+03  0.37969593755E+03  0.35559817419E+03  0.63202446366E+03  0.91476477142E+02 0.  0.
         23    2    4    4    0    0  0.31418448895E+03 -0.19557071722E+03  0.45915854932E+03  0.59678817528E+03  0.91486360793E+02 0.  0.
          2    1    3    3  502    0 -0.16683884949E+02 -0.12342833952E+03 -0.11978628055E+02  0.12512551516E+03  0.00000000000E+00 0. -1.
         -1    1    3    3    0  502  0.49584270802E+02 -0.60696880809E+02 -0.18469895212E+02  0.80522346464E+02  0.00000000000E+00 0.  1.
         13    1    5    5    0    0 -0.13068511531E+00  0.22670882831E+02  0.28174848878E+02  0.36163629743E+02  0.00000000000E+00 0.  1.
        -13    1    5    5    0    0 -0.34695418969E+03  0.35702505472E+03  0.32742332531E+03  0.59586083392E+03  0.00000000000E+00 0. -1.
          1    1    6    6  503    0  0.87140465159E+02 -0.57497654666E+02  0.70514163436E+02  0.12598288854E+03  0.00000000000E+00 0. -1.
         -1    1    6    6    0  503  0.22704402379E+03 -0.13807306255E+03  0.38864438589E+03  0.47080528674E+03  0.00000000000E+00 0.  1.
<mgrwt>
<rscale>  0 0.12010569E+04</rscale>
<asrwt>0</asrwt>
<pdfrwt beam="1">  1        2 0.17067451E+00 0.12010569E+04</pdfrwt>
<pdfrwt beam="2">  1       -1 0.50011716E-01 0.12010569E+04</pdfrwt>
<totfact> 0.97010121E+01</totfact>
</mgrwt>
</event>
<event>
12    7  0.1661464E-007  0.1569063E+04  0.7818608E-02  0.8839783E-01
          2   -1    0    0  501    0  0.00000000000E+00  0.00000000000E+00  0.79985585673E+03  0.79985585673E+03  0.00000000000E+00 0. -1.
         -1   -1    0    0    0  501 -0.00000000000E+00 -0.00000000000E+00 -0.76950065885E+03  0.76950065885E+03  0.00000000000E+00 0.  1.
         24    2    1    2    0    0  0.39057476446E+03  0.20214879500E+03 -0.26015009277E+03  0.51700366094E+03  0.78752350436E+02 0.  0.
        254    2    1    2    0    0 -0.39057476446E+03 -0.20214879500E+03  0.29050529065E+03  0.10523528546E+04  0.91084599402E+03 0.  0.
         23    2    4    4    0    0 -0.45658787707E+03 -0.18834885163E+03  0.56290668289E+03  0.75466089362E+03  0.93281034054E+02 0.  0.
         23    2    4    4    0    0  0.66013112607E+02 -0.13799943374E+02 -0.27240139224E+03  0.29769196103E+03  0.99346946071E+02 0.  0.
          2    1    3    3  502    0  0.19436337553E+03  0.58714019749E+02 -0.10407604132E+03  0.22815845423E+03  0.00000000000E+00 0. -1.
         -1    1    3    3    0  502  0.19621138894E+03  0.14343477526E+03 -0.15607405145E+03  0.28884520671E+03  0.00000000000E+00 0.  1.
         13    1    5    5    0    0 -0.19586575200E+03 -0.96671097669E+02  0.31548784608E+03  0.38372030824E+03  0.00000000000E+00 0.  1.
        -13    1    5    5    0    0 -0.26072212507E+03 -0.91677753961E+02  0.24741883681E+03  0.37094058538E+03  0.00000000000E+00 0. -1.
          3    1    6    6  503    0  0.62595150886E+02  0.69148661335E+00 -0.66781083421E+02  0.91533295423E+02  0.00000000000E+00 0. -1.
         -3    1    6    6    0  503  0.34179617209E+01 -0.14491429987E+02 -0.20562030882E+03  0.20615866561E+03  0.00000000000E+00 0.  1.
<mgrwt>
<rscale>  0 0.15690629E+04</rscale>
<asrwt>0</asrwt>
<pdfrwt beam="1">  1        2 0.12305475E+00 0.15690629E+04</pdfrwt>
<pdfrwt beam="2">  1       -1 0.11838472E+00 0.15690629E+04</pdfrwt>
<totfact> 0.24203106E+01</totfact>
</mgrwt>
</event>
<event>
12    7  0.1661464E-007  0.2187543E+04  0.7818608E-02  0.8523631E-01
          2   -1    0    0  501    0  0.00000000000E+00  0.00000000000E+00  0.36201143514E+04  0.36201143514E+04  0.00000000000E+00 0. -1.
         -1   -1    0    0    0  501 -0.00000000000E+00 -0.00000000000E+00 -0.33046912178E+03  0.33046912178E+03  0.00000000000E+00 0.  1.
         24    2    1    2    0    0  0.72307465915E+03  0.28819976770E+02  0.39947322240E+03  0.83039134251E+03  0.79393781394E+02 0.  0.
        254    2    1    2    0    0 -0.72307465915E+03 -0.28819976770E+02  0.28901720072E+04  0.31201921307E+04  0.92673466928E+03 0.  0.
         23    2    4    4    0    0 -0.79315182588E+03 -0.32220519372E+03  0.21229434467E+04  0.22909008225E+04  0.91824260346E+02 0.  0.
         23    2    4    4    0    0  0.70077166733E+02  0.29338521695E+03  0.76722856054E+03  0.82929130821E+03  0.89992860546E+02 0.  0.
          4    1    3    3  502    0  0.82270740825E+02  0.12361353209E+02  0.74640870856E+02  0.11177002036E+03  0.00000000000E+00 0. -1.
         -3    1    3    3    0  502  0.64080391833E+03  0.16458623561E+02  0.32483235155E+03  0.71862132215E+03  0.00000000000E+00 0.  1.
         13    1    5    5    0    0 -0.71612894447E+03 -0.31556442133E+03  0.18961860424E+04  0.20513271501E+04  0.00000000000E+00 0.  1.
        -13    1    5    5    0    0 -0.77022881413E+02 -0.66407723875E+01  0.22675740428E+03  0.23957367241E+03  0.00000000000E+00 0. -1.
          1    1    6    6  503    0  0.46365919724E+02  0.54237934949E+02  0.13073639525E+03  0.14894145542E+03  0.00000000000E+00 0. -1.
         -1    1    6    6    0  503  0.23711247009E+02  0.23914728200E+03  0.63649216528E+03  0.68034985279E+03  0.00000000000E+00 0.  1.
<mgrwt>
<rscale>  0 0.21875429E+04</rscale>
<asrwt>0</asrwt>
<pdfrwt beam="1">  1        2 0.55694064E+00 0.21875429E+04</pdfrwt>
<pdfrwt beam="2">  1       -1 0.50841406E-01 0.21875429E+04</pdfrwt>
<totfact> 0.27147634E+00</totfact>
</mgrwt>
</event>
<event>
12    7  0.1661464E-007  0.2100708E+04  0.7818608E-02  0.8560931E-01
         -1   -1    0    0    0  501 -0.00000000000E+00  0.00000000000E+00  0.55252708070E+03  0.55252708070E+03  0.00000000000E+00 0.  1.
          2   -1    0    0  501    0  0.00000000000E+00 -0.00000000000E+00 -0.19967236434E+04  0.19967236434E+04  0.00000000000E+00 0. -1.
         24    2    1    2    0    0 -0.10784817242E+03 -0.11450479901E+03  0.41568392585E+03  0.45162438027E+03  0.80180280370E+02 0.  0.
        254    2    1    2    0    0  0.10784817242E+03  0.11450479901E+03 -0.18598804886E+04  0.20976263438E+04  0.95715112147E+03 0.  0.
         23    2    4    4    0    0 -0.57265339485E+02 -0.26191470863E+03 -0.15477839846E+04  0.15732424781E+04  0.87051698780E+02 0.  0.
         23    2    4    4    0    0  0.16511351190E+03  0.37641950764E+03 -0.31209650396E+03  0.52438386572E+03  0.92844457566E+02 0.  0.
          2    1    3    3  502    0 -0.30838309675E+02 -0.28839019482E+02  0.38137434882E+02  0.56895995708E+02  0.00000000000E+00 0. -1.
         -1    1    3    3    0  502 -0.77009862744E+02 -0.85665779527E+02  0.37754649097E+03  0.39472838457E+03  0.00000000000E+00 0.  1.
         13    1    5    5    0    0  0.13699075476E+02 -0.51243466025E+01 -0.57408998821E+02  0.59242862377E+02  0.00000000000E+00 0. -1.
        -13    1    5    5    0    0 -0.70964414961E+02 -0.25679036202E+03 -0.14903749858E+04  0.15139996157E+04  0.00000000000E+00 0.  1.
          3    1    6    6  503    0  0.42956431491E+02  0.16240981374E+03 -0.17418635680E+03  0.24199811880E+03  0.00000000000E+00 0. -1.
         -3    1    6    6    0  503  0.12215708041E+03  0.21400969389E+03 -0.13791014716E+03  0.28238574692E+03  0.00000000000E+00 0.  1.
<mgrwt>
<rscale>  0 0.21007083E+04</rscale>
<asrwt>0</asrwt>
<pdfrwt beam="1">  1        2 0.30718825E+00 0.21007083E+04</pdfrwt>
<pdfrwt beam="2">  1       -1 0.85004167E-01 0.21007083E+04</pdfrwt>
<totfact> 0.96344967E+00</totfact>
</mgrwt>
</event>
<event>
12    7  0.1661464E-007  0.1216917E+04  0.7818608E-02  0.9098176E-01
         -1   -1    0    0    0  501 -0.00000000000E+00  0.00000000000E+00  0.23815739366E+04  0.23815739366E+04  0.00000000000E+00 0.  1.
          2   -1    0    0  501    0  0.00000000000E+00 -0.00000000000E+00 -0.15545263277E+03  0.15545263277E+03  0.00000000000E+00 0. -1.
         24    2    1    2    0    0 -0.90394615762E+02 -0.21507179109E+03  0.25294715631E+03  0.35447489880E+03  0.85106569166E+02 0.  0.
        254    2    1    2    0    0  0.90394615762E+02  0.21507179109E+03  0.19731741475E+04  0.21825516706E+04  0.90315475770E+03 0.  0.
         23    2    4    4    0    0 -0.30422923263E+03 -0.17465944211E+03  0.63859293189E+03  0.73428180316E+03  0.91145417233E+02 0.  0.
         23    2    4    4    0    0  0.39462384839E+03  0.38973123320E+03  0.13345812156E+04  0.14482698674E+04  0.93595789854E+02 0.  0.
          2    1    3    3  502    0 -0.18415891395E+02  0.29270981138E+01  0.21925139107E+02  0.28782367590E+02  0.00000000000E+00 0. -1.
         -1    1    3    3    0  502 -0.71978724367E+02 -0.21799888920E+03  0.23102201720E+03  0.32569253121E+03  0.00000000000E+00 0.  1.
         13    1    5    5    0    0 -0.28063428164E+03 -0.13553391899E+03  0.50855225753E+03  0.59644818875E+03  0.00000000000E+00 0. -1.
        -13    1    5    5    0    0 -0.23594950991E+02 -0.39125523117E+02  0.13004067436E+03  0.13783361440E+03  0.00000000000E+00 0.  1.
          2    1    6    6  503    0  0.37008561486E+02  0.82791238089E+02  0.23896431946E+03  0.25559336592E+03  0.00000000000E+00 0.  1.
         -2    1    6    6    0  503  0.35761528691E+03  0.30693999511E+03  0.10956168962E+04  0.11926765015E+04  0.00000000000E+00 0. -1.
<mgrwt>
<rscale>  0 0.12169173E+04</rscale>
<asrwt>0</asrwt>
<pdfrwt beam="1">  1        2 0.23915791E-01 0.12169173E+04</pdfrwt>
<pdfrwt beam="2">  1       -1 0.36639596E+00 0.12169173E+04</pdfrwt>
<totfact> 0.31960446E+00</totfact>
</mgrwt>
</event>
<event>
12    7  0.1661464E-007  0.1366423E+04  0.7818608E-02  0.8978489E-01
          4   -1    0    0  501    0  0.00000000000E+00  0.00000000000E+00  0.52604792605E+03  0.52604792605E+03  0.00000000000E+00 0. -1.
         -3   -1    0    0    0  501 -0.00000000000E+00 -0.00000000000E+00 -0.88732935425E+03  0.88732935425E+03  0.00000000000E+00 0.  1.
         24    2    1    2    0    0  0.16376000919E+03 -0.13427944565E+03  0.21988696634E+03  0.31553062465E+03  0.79755795965E+02 0.  0.
        254    2    1    2    0    0 -0.16376000919E+03  0.13427944565E+03 -0.58116839454E+03  0.10978466556E+04  0.90700731330E+03 0.  0.
         23    2    4    4    0    0 -0.51498192473E+03  0.19590839034E+03 -0.40915463454E+03  0.69139933676E+03  0.83899032804E+02 0.  0.
         23    2    4    4    0    0  0.35122191554E+03 -0.61628944688E+02 -0.17201376000E+03  0.40644731889E+03  0.91955035912E+02 0.  0.
          2    1    3    3  502    0  0.15858893646E+03 -0.12216754115E+03  0.22521358174E+03  0.30132460284E+03  0.00000000000E+00 0. -1.
         -1    1    3    3    0  502  0.51710727315E+01 -0.12111904500E+02 -0.53266154031E+01  0.14206021803E+02  0.00000000000E+00 0.  1.
         13    1    5    5    0    0 -0.23745779767E+03  0.49621445505E+02 -0.19937142367E+03  0.31400232181E+03  0.00000000000E+00 0. -1.
        -13    1    5    5    0    0 -0.27752412706E+03  0.14628694483E+03 -0.20978321087E+03  0.37739701495E+03  0.00000000000E+00 0.  1.
          4    1    6    6  503    0  0.65609391499E+02  0.13840739246E+02 -0.61657994304E+02  0.91092626361E+02  0.00000000000E+00 0. -1.
         -4    1    6    6    0  503  0.28561252404E+03 -0.75469683933E+02 -0.11035576570E+03  0.31535469253E+03  0.00000000000E+00 0.  1.
<mgrwt>
<rscale>  0 0.13664227E+04</rscale>
<asrwt>0</asrwt>
<pdfrwt beam="1">  1        4 0.80930451E-01 0.13664227E+04</pdfrwt>
<pdfrwt beam="2">  1       -3 0.13651221E+00 0.13664227E+04</pdfrwt>
<totfact> 0.12388662E+00</totfact>
</mgrwt>
</event>
<event>
12    7  0.1661464E-007  0.1818424E+04  0.7818608E-02  0.8696563E-01
          2   -1    0    0  501    0  0.00000000000E+00  0.00000000000E+00  0.20799073978E+04  0.20799073978E+04  0.00000000000E+00 0. -1.
         -1   -1    0    0    0  501 -0.00000000000E+00 -0.00000000000E+00 -0.39745330403E+03  0.39745330403E+03  0.00000000000E+00 0.  1.
         24    2    1    2    0    0  0.68557374854E+02 -0.59972282484E+02 -0.28442057253E+03  0.30923512197E+03  0.80215399208E+02 0.  0.
        254    2    1    2    0    0 -0.68557374854E+02  0.59972282484E+02  0.19668746663E+04  0.21681255799E+04  0.90767603738E+03 0.  0.
         23    2    4    4    0    0 -0.46086070617E+03 -0.89751151276E+02  0.93202662224E+03  0.10477023164E+04  0.92513024187E+02 0.  0.
         23    2    4    4    0    0  0.39230333132E+03  0.14972343376E+03  0.10348480441E+04  0.11204232634E+04  0.90104409347E+02 0.  0.
          2    1    3    3  502    0  0.25222263262E+02  0.12835856777E+02 -0.30761749861E+02  0.41799605713E+02  0.00000000000E+00 0. -1.
         -1    1    3    3    0  502  0.43335111592E+02 -0.72808139262E+02 -0.25365882266E+03  0.26743551626E+03  0.00000000000E+00 0.  1.
         13    1    5    5    0    0 -0.27609271524E+03 -0.87229016075E+02  0.49942682045E+03  0.57728956134E+03  0.00000000000E+00 0. -1.
        -13    1    5    5    0    0 -0.18476799093E+03 -0.25221352015E+01  0.43259980179E+03  0.47041275509E+03  0.00000000000E+00 0.  1.
          1    1    6    6  503    0  0.11558304324E+03  0.89239882628E+02  0.36771348701E+03  0.39564681860E+03  0.00000000000E+00 0. -1.
         -1    1    6    6    0  503  0.27672028807E+03  0.60483551133E+02  0.66713455705E+03  0.72477644485E+03  0.00000000000E+00 0.  1.
<mgrwt>
<rscale>  0 0.18184236E+04</rscale>
<asrwt>0</asrwt>
<pdfrwt beam="1">  1        2 0.31998575E+00 0.18184236E+04</pdfrwt>
<pdfrwt beam="2">  1       -1 0.61146664E-01 0.18184236E+04</pdfrwt>
<totfact> 0.17559570E+01</totfact>
</mgrwt>
</event>
<event>
12    7  0.1661464E-007  0.2025381E+04  0.7818608E-02  0.8594845E-01
          2   -1    0    0  501    0  0.00000000000E+00  0.00000000000E+00  0.10621637700E+04  0.10621637700E+04  0.00000000000E+00 0. -1.
         -1   -1    0    0    0  501 -0.00000000000E+00 -0.00000000000E+00 -0.96552127291E+03  0.96552127291E+03  0.00000000000E+00 0.  1.
         24    2    1    2    0    0  0.33925949849E+03  0.19206338967E+03 -0.68508154865E+03  0.79204553037E+03  0.77550247645E+02 0.  0.
        254    2    1    2    0    0 -0.33925949849E+03 -0.19206338967E+03  0.78172404576E+03  0.12356395126E+04  0.87391485186E+03 0.  0.
         23    2    4    4    0    0  0.85756389393E+02  0.27917152573E+03  0.17154131287E+03  0.35123015640E+03  0.92980114252E+02 0.  0.
         23    2    4    4    0    0 -0.42501588789E+03 -0.47123491540E+03  0.61018273289E+03  0.88440935616E+03  0.84593683528E+02 0.  0.
          4    1    3    3  502    0  0.18172325384E+03  0.12591445347E+03 -0.45062070962E+03  0.50193307773E+03  0.00000000000E+00 0. -1.
         -1    1    3    3    0  502  0.15753624465E+03  0.66148936197E+02 -0.23446083903E+03  0.29011245264E+03  0.00000000000E+00 0.  1.
         13    1    5    5    0    0  0.62119785865E+02  0.27183472359E+03  0.14273127226E+03  0.31324942271E+03  0.00000000000E+00 0.  1.
        -13    1    5    5    0    0  0.23636603529E+02  0.73368021371E+01  0.28810040614E+02  0.37980733697E+02  0.00000000000E+00 0. -1.
          4    1    6    6  503    0 -0.36415030784E+02 -0.38010383408E+02  0.87824273631E+02  0.10239114587E+03  0.00000000000E+00 0. -1.
         -4    1    6    6    0  503 -0.38860085710E+03 -0.43322453199E+03  0.52235845926E+03  0.78201821028E+03  0.00000000000E+00 0.  1.
<mgrwt>
<rscale>  0 0.20253807E+04</rscale>
<asrwt>0</asrwt>
<pdfrwt beam="1">  1        2 0.16340981E+00 0.20253807E+04</pdfrwt>
<pdfrwt beam="2">  1       -1 0.14854173E+00 0.20253807E+04</pdfrwt>
<totfact> 0.87124164E+00</totfact>
</mgrwt>
</event>
<event>
12    7  0.1661464E-007  0.1886373E+04  0.7818608E-02  0.8661669E-01
          2   -1    0    0  501    0  0.00000000000E+00  0.00000000000E+00  0.16219897720E+04  0.16219897720E+04  0.00000000000E+00 0. -1.
         -1   -1    0    0    0  501 -0.00000000000E+00 -0.00000000000E+00 -0.54846244637E+03  0.54846244637E+03  0.00000000000E+00 0.  1.
         24    2    1    2    0    0  0.12285147409E+03  0.71378097317E+03  0.46470505771E+03  0.86471450341E+03  0.84880029433E+02 0.  0.
        254    2    1    2    0    0 -0.12285147409E+03 -0.71378097317E+03  0.60882226796E+03  0.13057377150E+04  0.89983924345E+03 0.  0.
         23    2    4    4    0    0 -0.72045456841E+02  0.40619921814E+02  0.52537341140E+03  0.53939154318E+03  0.89919350245E+02 0.  0.
         23    2    4    4    0    0 -0.50806017244E+02 -0.75440089499E+03  0.83448856553E+02  0.76634617181E+03  0.92848164466E+02 0.  0.
          2    1    3    3  502    0  0.17136967195E+02  0.32868951695E+02  0.43312222653E+02  0.57008703382E+02  0.00000000000E+00 0. -1.
         -1    1    3    3    0  502  0.10571450689E+03  0.68091202148E+03  0.42139283506E+03  0.80770580003E+03  0.00000000000E+00 0.  1.
         13    1    5    5    0    0 -0.15708747417E+02  0.50551987618E+02  0.37104124059E+03  0.37479843972E+03  0.00000000000E+00 0.  1.
        -13    1    5    5    0    0 -0.56336709424E+02 -0.99320658040E+01  0.15433217081E+03  0.16459310346E+03  0.00000000000E+00 0. -1.
          2    1    6    6  503    0  0.84297230405E+01 -0.30067689992E+03 -0.23137834441E+01  0.30080394274E+03  0.00000000000E+00 0. -1.
         -2    1    6    6    0  503 -0.59235740285E+02 -0.45372399507E+03  0.85762639998E+02  0.46554222907E+03  0.00000000000E+00 0.  1.
<mgrwt>
<rscale>  0 0.18863727E+04</rscale>
<asrwt>0</asrwt>
<pdfrwt beam="1">  1        2 0.24953689E+00 0.18863727E+04</pdfrwt>
<pdfrwt beam="2">  1       -1 0.84378839E-01 0.18863727E+04</pdfrwt>
<totfact> 0.16105625E+01</totfact>
</mgrwt>
</event>
<event>
12    7  0.1661464E-007  0.1598006E+04  0.7818608E-02  0.8821774E-01
         -1   -1    0    0    0  501 -0.00000000000E+00  0.00000000000E+00  0.16167066439E+04  0.16167066439E+04  0.00000000000E+00 0.  1.
          2   -1    0    0  501    0  0.00000000000E+00 -0.00000000000E+00 -0.39488027198E+03  0.39488027198E+03  0.00000000000E+00 0. -1.
         24    2    1    2    0    0 -0.18369203180E+03  0.49874412343E+03  0.52627756260E+03  0.75188024792E+03  0.76598767030E+02 0.  0.
        254    2    1    2    0    0  0.18369203180E+03 -0.49874412343E+03  0.69554880933E+03  0.12597066680E+04  0.90586107101E+03 0.  0.
         23    2    4    4    0    0 -0.13475867335E+03  0.14425831028E+03  0.44263691072E+03  0.49300770205E+03  0.90326072751E+02 0.  0.
         23    2    4    4    0    0  0.31845070515E+03 -0.64300243371E+03  0.25291189861E+03  0.76669896593E+03  0.94867773931E+02 0.  0.
          2    1    3    3  502    0 -0.37792894581E+02  0.16565753235E+03  0.20841053247E+03  0.26889713823E+03  0.00000000000E+00 0. -1.
         -3    1    3    3    0  502 -0.14589913722E+03  0.33308659108E+03  0.31786703014E+03  0.48298310969E+03  0.00000000000E+00 0.  1.
         13    1    5    5    0    0 -0.82459808864E+02  0.11120008838E+03  0.20441043032E+03  0.24687791266E+03  0.00000000000E+00 0.  1.
        -13    1    5    5    0    0 -0.52298864487E+02  0.33058221894E+02  0.23822648040E+03  0.24612978939E+03  0.00000000000E+00 0. -1.
          4    1    6    6  503    0  0.15485633896E+03 -0.38003736276E+03  0.10557943886E+03  0.42374036947E+03  0.00000000000E+00 0. -1.
         -4    1    6    6    0  503  0.16359436619E+03 -0.26296507095E+03  0.14733245975E+03  0.34295859646E+03  0.00000000000E+00 0.  1.
<mgrwt>
<rscale>  0 0.15980057E+04</rscale>
<asrwt>0</asrwt>
<pdfrwt beam="1">  1        2 0.60750812E-01 0.15980057E+04</pdfrwt>
<pdfrwt beam="2">  1       -1 0.24872409E+00 0.15980057E+04</pdfrwt>
<totfact> 0.62933991E+00</totfact>
</mgrwt>
</event>
<event>
12    7  0.1661464E-007  0.3728451E+04  0.7818608E-02  0.8061686E-01
          2   -1    0    0  501    0  0.00000000000E+00  0.00000000000E+00  0.29341779669E+04  0.29341779669E+04  0.00000000000E+00 0. -1.
         -1   -1    0    0    0  501 -0.00000000000E+00 -0.00000000000E+00 -0.11844327667E+04  0.11844327667E+04  0.00000000000E+00 0.  1.
         24    2    1    2    0    0 -0.81875793086E+03  0.48329763249E+03 -0.80589534738E+03  0.12489995686E+04  0.81187809708E+02 0.  0.
        254    2    1    2    0    0  0.81875793086E+03 -0.48329763249E+03  0.25556405476E+04  0.28696111651E+04  0.89410764421E+03 0.  0.
         23    2    4    4    0    0  0.98202496007E+03 -0.51582169166E+03  0.21204673298E+04  0.23947907415E+04  0.90531536755E+02 0.  0.
         23    2    4    4    0    0 -0.16326702922E+03  0.32524059171E+02  0.43517321775E+03  0.47482042354E+03  0.91459105093E+02 0.  0.
          2    1    3    3  502    0 -0.15929256765E+03  0.91207262922E+02 -0.19928012935E+03  0.27093441434E+03  0.00000000000E+00 0. -1.
         -1    1    3    3    0  502 -0.65946536321E+03  0.39209036957E+03 -0.60661521803E+03  0.97806515423E+03  0.00000000000E+00 0.  1.
         13    1    5    5    0    0  0.97021262373E+03 -0.51890442211E+03  0.20889709957E+04  0.23610112569E+04  0.00000000000E+00 0. -1.
        -13    1    5    5    0    0  0.11812336347E+02  0.30827304431E+01  0.31496334150E+02  0.33779484630E+02  0.00000000000E+00 0.  1.
          1    1    6    6  503    0 -0.63175953959E+02  0.58962452674E+02  0.19946799242E+03  0.21738273156E+03  0.00000000000E+00 0. -1.
         -1    1    6    6    0  503 -0.10009107526E+03 -0.26438393502E+02  0.23570522534E+03  0.25743769197E+03  0.00000000000E+00 0.  1.
<mgrwt>
<rscale>  0 0.37284509E+04</rscale>
<asrwt>0</asrwt>
<pdfrwt beam="1">  1        2 0.45141199E+00 0.37284509E+04</pdfrwt>
<pdfrwt beam="2">  1       -1 0.18222043E+00 0.37284509E+04</pdfrwt>
<totfact> 0.35146202E-01</totfact>
</mgrwt>
</event>
<event>
12    7  0.1661464E-007  0.1693847E+04  0.7818608E-02  0.8764881E-01
          2   -1    0    0  501    0  0.00000000000E+00  0.00000000000E+00  0.14771713645E+04  0.14771713645E+04  0.00000000000E+00 0. -1.
         -1   -1    0    0    0  501 -0.00000000000E+00 -0.00000000000E+00 -0.48557646685E+03  0.48557646685E+03  0.00000000000E+00 0.  1.
         24    2    1    2    0    0  0.43017697537E+03  0.11973657656E+03  0.82978396514E+03  0.94580387887E+03  0.81329395573E+02 0.  0.
        254    2    1    2    0    0 -0.43017697537E+03 -0.11973657656E+03  0.16181093253E+03  0.10169439525E+04  0.89922363554E+03 0.  0.
         23    2    4    4    0    0 -0.30488230017E+03 -0.49579948055E+03  0.15661343524E+03  0.61042362039E+03  0.96534379199E+02 0.  0.
         23    2    4    4    0    0 -0.12529467520E+03  0.37606290399E+03  0.51974972906E+01  0.40652033210E+03  0.90053889639E+02 0.  0.
          2    1    3    3  502    0  0.35436282866E+03  0.83781295762E+02  0.72721662151E+03  0.81328736278E+03  0.00000000000E+00 0. -1.
         -1    1    3    3    0  502  0.75814146708E+02  0.35955280796E+02  0.10256734363E+03  0.13251651609E+03  0.00000000000E+00 0.  1.
         13    1    5    5    0    0 -0.26216288975E+03 -0.36973977426E+03  0.14896266563E+03  0.47710245984E+03  0.00000000000E+00 0.  1.
        -13    1    5    5    0    0 -0.42719410422E+02 -0.12605970629E+03  0.76507696082E+01  0.13332116056E+03  0.00000000000E+00 0. -1.
          2    1    6    6  503    0 -0.78210264791E+01  0.16275800777E+03  0.43950771924E+01  0.16300507431E+03  0.00000000000E+00 0. -1.
         -2    1    6    6    0  503 -0.11747364872E+03  0.21330489622E+03  0.80242009822E+00  0.24351525778E+03  0.00000000000E+00 0.  1.
<mgrwt>
<rscale>  0 0.16938473E+04</rscale>
<asrwt>0</asrwt>
<pdfrwt beam="1">  1        2 0.22725713E+00 0.16938473E+04</pdfrwt>
<pdfrwt beam="2">  1       -1 0.74704072E-01 0.16938473E+04</pdfrwt>
<totfact> 0.25575632E+01</totfact>
</mgrwt>
</event>
<event>
12    7  0.1661464E-007  0.1992499E+04  0.7818608E-02  0.8610136E-01
         -1   -1    0    0    0  501 -0.00000000000E+00  0.00000000000E+00  0.44958765775E+03  0.44958765775E+03  0.00000000000E+00 0.  1.
          2   -1    0    0  501    0  0.00000000000E+00 -0.00000000000E+00 -0.22076071595E+04  0.22076071595E+04  0.00000000000E+00 0. -1.
         24    2    1    2    0    0  0.58769251820E+03  0.52647382995E+03 -0.82878967950E+03  0.11471837526E+04  0.81123607640E+02 0.  0.
        254    2    1    2    0    0 -0.58769251820E+03 -0.52647382995E+03 -0.92922982229E+03  0.15100110647E+04  0.89112746756E+03 0.  0.
         23    2    4    4    0    0 -0.49889802938E+03  0.11173786284E+03 -0.55204385721E+03  0.75797442108E+03  0.91587166181E+02 0.  0.
         23    2    4    4    0    0 -0.88794488820E+02 -0.63821169278E+03 -0.37718596508E+03  0.75203664367E+03  0.89951293002E+02 0.  0.
          4    1    3    3  502    0  0.44587542243E+03  0.39123469726E+03 -0.57086469334E+03  0.82325936300E+03  0.00000000000E+00 0. -1.
         -3    1    3    3    0  502  0.14181709577E+03  0.13523913268E+03 -0.25792498617E+03  0.32392438956E+03  0.00000000000E+00 0.  1.
         13    1    5    5    0    0 -0.48297268106E+02  0.24986807628E+02 -0.27147480745E+02  0.60777893783E+02  0.00000000000E+00 0.  1.
        -13    1    5    5    0    0 -0.45060076128E+03  0.86751055208E+02 -0.52489637647E+03  0.69719652729E+03  0.00000000000E+00 0. -1.
          3    1    6    6  503    0 -0.10677723789E+03 -0.55597054329E+03 -0.32066914917E+03  0.65064070482E+03  0.00000000000E+00 0. -1.
         -3    1    6    6    0  503  0.17982749071E+02 -0.82241149498E+02 -0.56516815910E+02  0.10139593885E+03  0.00000000000E+00 0.  1.
<mgrwt>
<rscale>  0 0.19924989E+04</rscale>
<asrwt>0</asrwt>
<pdfrwt beam="1">  1        2 0.33963187E+00 0.19924989E+04</pdfrwt>
<pdfrwt beam="2">  1       -1 0.69167332E-01 0.19924989E+04</pdfrwt>
<totfact> 0.11443479E+01</totfact>
</mgrwt>
</event>
<event>
12    7  0.1661464E-007  0.1244519E+04  0.7818608E-02  0.9074758E-01
         -1   -1    0    0    0  501 -0.00000000000E+00  0.00000000000E+00  0.49603612492E+03  0.49603612492E+03  0.00000000000E+00 0.  1.
          2   -1    0    0  501    0  0.00000000000E+00 -0.00000000000E+00 -0.78060190997E+03  0.78060190997E+03  0.00000000000E+00 0. -1.
         24    2    1    2    0    0  0.13758117843E+03 -0.20265309704E+03 -0.23287864077E+03  0.34804290190E+03  0.83093572791E+02 0.  0.
        254    2    1    2    0    0 -0.13758117843E+03  0.20265309704E+03 -0.51687144280E+02  0.92859513298E+03  0.89421501984E+03 0.  0.
         23    2    4    4    0    0  0.11386646572E+03  0.45986211952E+03  0.15079977500E+03  0.50553682059E+03  0.91586919667E+02 0.  0.
         23    2    4    4    0    0 -0.25144764415E+03 -0.25720902247E+03 -0.20248691928E+03  0.42305831239E+03  0.92709137684E+02 0.  0.
          2    1    3    3  502    0  0.11730412060E+03 -0.14445181916E+03 -0.21398967485E+03  0.28358096853E+03  0.00000000000E+00 0. -1.
         -1    1    3    3    0  502  0.20277057824E+02 -0.58201277878E+02 -0.18888965923E+02  0.64461933374E+02  0.00000000000E+00 0.  1.
         13    1    5    5    0    0  0.12830595751E+03  0.42219537176E+03  0.12924457853E+03  0.45979942556E+03  0.00000000000E+00 0. -1.
        -13    1    5    5    0    0 -0.14439491786E+02  0.37666747759E+02  0.21555196464E+02  0.45737395033E+02  0.00000000000E+00 0.  1.
          4    1    6    6  503    0 -0.18151551555E+03 -0.19668932779E+03 -0.10182440082E+03  0.28636127995E+03  0.00000000000E+00 0. -1.
         -4    1    6    6    0  503 -0.69932128600E+02 -0.60519694683E+02 -0.10066251845E+03  0.13669703244E+03  0.00000000000E+00 0.  1.
<mgrwt>
<rscale>  0 0.12445188E+04</rscale>
<asrwt>0</asrwt>
<pdfrwt beam="1">  1        2 0.12009260E+00 0.12445188E+04</pdfrwt>
<pdfrwt beam="2">  1       -1 0.76313251E-01 0.12445188E+04</pdfrwt>
<totfact> 0.68941231E+01</totfact>
</mgrwt>
</event>
<event>
12    7  0.1661464E-007  0.1542918E+04  0.7818608E-02  0.8856404E-01
         -1   -1    0    0    0  501 -0.00000000000E+00  0.00000000000E+00  0.79594799781E+03  0.79594799781E+03  0.00000000000E+00 0.  1.
          2   -1    0    0  501    0  0.00000000000E+00 -0.00000000000E+00 -0.74772380562E+03  0.74772380562E+03  0.00000000000E+00 0. -1.
         24    2    1    2    0    0 -0.30734368838E+03 -0.36688071440E+03 -0.17007671192E+03  0.51422396463E+03  0.80240865358E+02 0.  0.
        254    2    1    2    0    0  0.30734368838E+03  0.36688071440E+03  0.21830090411E+03  0.10294478388E+04  0.88489884546E+03 0.  0.
         23    2    4    4    0    0  0.55349182093E+03  0.25041096913E+03  0.35700678923E+03  0.71042702386E+03  0.90519939137E+02 0.  0.
         23    2    4    4    0    0 -0.24614813255E+03  0.11646974527E+03 -0.13870588511E+03  0.31902081494E+03  0.91546999303E+02 0.  0.
          2    1    3    3  502    0 -0.60232445671E+02 -0.10332858758E+03 -0.13114250974E+02  0.12031927568E+03  0.00000000000E+00 0. -1.
         -1    1    3    3    0  502 -0.24711124271E+03 -0.26355212683E+03 -0.15696246095E+03  0.39390468895E+03  0.00000000000E+00 0.  1.
         13    1    5    5    0    0  0.40276241848E+03  0.14489299314E+03  0.27663895420E+03  0.50964758038E+03  0.00000000000E+00 0. -1.
        -13    1    5    5    0    0  0.15072940245E+03  0.10551797599E+03  0.80367835026E+02  0.20077944348E+03  0.00000000000E+00 0.  1.
          1    1    6    6  503    0 -0.24275738358E+03  0.92999432087E+02 -0.14001679712E+03  0.29527063032E+03  0.00000000000E+00 0. -1.
         -1    1    6    6    0  503 -0.33907489693E+01  0.23470313184E+02  0.13109120088E+01  0.23750184627E+02  0.00000000000E+00 0.  1.
<mgrwt>
<rscale>  0 0.15429184E+04</rscale>
<asrwt>0</asrwt>
<pdfrwt beam="1">  1        2 0.11503443E+00 0.15429184E+04</pdfrwt>
<pdfrwt beam="2">  1       -1 0.12245354E+00 0.15429184E+04</pdfrwt>
<totfact> 0.24392394E+01</totfact>
</mgrwt>
</event>
<event>
12    7  0.1661464E-007  0.1369856E+04  0.7818608E-02  0.8975932E-01
         -1   -1    0    0    0  501 -0.00000000000E+00  0.00000000000E+00  0.16205661409E+03  0.16205661409E+03  0.00000000000E+00 0.  1.
          2   -1    0    0  501    0  0.00000000000E+00 -0.00000000000E+00 -0.28948313562E+04  0.28948313562E+04  0.00000000000E+00 0. -1.
         24    2    1    2    0    0  0.91364307165E+02  0.35127217594E+03 -0.10653920142E+04  0.11284214345E+04  0.80840656272E+02 0.  0.
        254    2    1    2    0    0 -0.91364307165E+02 -0.35127217594E+03 -0.16673827279E+04  0.19284665358E+04  0.89837544499E+03 0.  0.
         23    2    4    4    0    0  0.20310872550E+03 -0.67447230269E+01 -0.29953537824E+02  0.22697256544E+03  0.96543696695E+02 0.  0.
         23    2    4    4    0    0 -0.29447303267E+03 -0.34452745291E+03 -0.16374291901E+04  0.17014939704E+04  0.92162062857E+02 0.  0.
          4    1    3    3  502    0  0.54575729045E+02  0.19140816154E+03 -0.46034309486E+03  0.50152902158E+03  0.00000000000E+00 0. -1.
         -3    1    3    3    0  502  0.36788578120E+02  0.15986401440E+03 -0.60504891933E+03  0.62689241291E+03  0.00000000000E+00 0.  1.
         13    1    5    5    0    0  0.26043682988E-01 -0.76805615503E+01 -0.22473815039E+02  0.23750032977E+02  0.00000000000E+00 0. -1.
        -13    1    5    5    0    0  0.20308268182E+03  0.93583852340E+00 -0.74797227849E+01  0.20322253246E+03  0.00000000000E+00 0.  1.
          3    1    6    6  503    0 -0.64107671468E+01 -0.21817263582E+02 -0.17372956761E+03  0.17521145393E+03  0.00000000000E+00 0. -1.
         -3    1    6    6    0  503 -0.28806226552E+03 -0.32271018933E+03 -0.14636996225E+04  0.15262825165E+04  0.00000000000E+00 0.  1.
<mgrwt>
<rscale>  0 0.13698563E+04</rscale>
<asrwt>0</asrwt>
<pdfrwt beam="1">  1        2 0.44535864E+00 0.13698563E+04</pdfrwt>
<pdfrwt beam="2">  1       -1 0.24931788E-01 0.13698563E+04</pdfrwt>
<totfact> 0.31904285E+01</totfact>
</mgrwt>
</event>
<event>
12    7  0.1661464E-007  0.1554974E+04  0.7818608E-02  0.8848697E-01
         -1   -1    0    0    0  501 -0.00000000000E+00  0.00000000000E+00  0.92782890788E+03  0.92782890788E+03  0.00000000000E+00 0.  1.
          2   -1    0    0  501    0  0.00000000000E+00 -0.00000000000E+00 -0.65150615784E+03  0.65150615784E+03  0.00000000000E+00 0. -1.
         24    2    1    2    0    0  0.38774155257E+03  0.22646318372E+03 -0.16616114205E+03  0.48486990891E+03  0.76552062474E+02 0.  0.
        254    2    1    2    0    0 -0.38774155257E+03 -0.22646318372E+03  0.44248389208E+03  0.10944651568E+04  0.89466915648E+03 0.  0.
         23    2    4    4    0    0 -0.11937845575E+03  0.93978431962E+02  0.61063128948E+03  0.63567473629E+03  0.90158955658E+02 0.  0.
         23    2    4    4    0    0 -0.26836309681E+03 -0.32044161568E+03 -0.16814739741E+03  0.45879042052E+03  0.86680574067E+02 0.  0.
          2    1    3    3  502    0  0.23567243428E+03  0.17568672749E+03 -0.12445149598E+03  0.31921074128E+03  0.00000000000E+00 0. -1.
         -1    1    3    3    0  502  0.15206911829E+03  0.50776456223E+02 -0.41709646069E+02  0.16565916763E+03  0.00000000000E+00 0.  1.
         13    1    5    5    0    0 -0.91364209343E+02  0.15120463082E+02  0.30001494506E+03  0.31398250654E+03  0.00000000000E+00 0. -1.
        -13    1    5    5    0    0 -0.28014246411E+02  0.78857968880E+02  0.31061634442E+03  0.32169222975E+03  0.00000000000E+00 0.  1.
          2    1    6    6  503    0 -0.21377081917E+03 -0.25816695673E+03 -0.95232656829E+02  0.34844999585E+03  0.00000000000E+00 0.  1.
         -2    1    6    6    0  503 -0.54592277644E+02 -0.62274658943E+02 -0.72914740577E+02  0.11034042468E+03  0.00000000000E+00 0. -1.
<mgrwt>
<rscale>  0 0.15549743E+04</rscale>
<asrwt>0</asrwt>
<pdfrwt beam="1">  1        2 0.10023172E+00 0.15549743E+04</pdfrwt>
<pdfrwt beam="2">  1       -1 0.14274291E+00 0.15549743E+04</pdfrwt>
<totfact> 0.19631117E+01</totfact>
</mgrwt>
</event>
<event>
12    7  0.1661464E-007  0.1502917E+04  0.7818608E-02  0.8882516E-01
          2   -1    0    0  501    0  0.00000000000E+00  0.00000000000E+00  0.73119783366E+03  0.73119783366E+03  0.00000000000E+00 0. -1.
         -1   -1    0    0    0  501 -0.00000000000E+00 -0.00000000000E+00 -0.77228010490E+03  0.77228010490E+03  0.00000000000E+00 0.  1.
         24    2    1    2    0    0 -0.35354961289E+03 -0.23756372026E+03 -0.20659425267E+03  0.47960717990E+03  0.76863592238E+02 0.  0.
        254    2    1    2    0    0  0.35354961289E+03  0.23756372026E+03  0.16551198144E+03  0.10238707587E+04  0.91623319329E+03 0.  0.
         23    2    4    4    0    0  0.16123977841E+03 -0.34298872523E+03  0.34312437521E+02  0.39133651011E+03  0.91254528638E+02 0.  0.
         23    2    4    4    0    0  0.19230983448E+03  0.58055244549E+03  0.13119954391E+03  0.63253424856E+03  0.94138413380E+02 0.  0.
          4    1    3    3  502    0 -0.11827307543E+02  0.53309113633E+01 -0.10844020813E+02  0.16908477373E+02  0.00000000000E+00 0. -1.
         -3    1    3    3    0  502 -0.34172230535E+03 -0.24289463162E+03 -0.19575023185E+03  0.46269870252E+03  0.00000000000E+00 0.  1.
         13    1    5    5    0    0  0.11982833414E+03 -0.25986575502E+03  0.65146077371E+02  0.29348432955E+03  0.00000000000E+00 0. -1.
        -13    1    5    5    0    0  0.41411444272E+02 -0.83122970205E+02 -0.30833639850E+02  0.97852180552E+02  0.00000000000E+00 0.  1.
          1    1    6    6  503    0  0.38607150100E+02  0.21937364940E+03  0.15356662199E+02  0.22327368220E+03  0.00000000000E+00 0. -1.
         -1    1    6    6    0  503  0.15370268438E+03  0.36117879609E+03  0.11584288172E+03  0.40926056636E+03  0.00000000000E+00 0.  1.
<mgrwt>
<rscale>  0 0.15029166E+04</rscale>
<asrwt>0</asrwt>
<pdfrwt beam="1">  1        2 0.11249197E+00 0.15029166E+04</pdfrwt>
<pdfrwt beam="2">  1       -1 0.11881232E+00 0.15029166E+04</pdfrwt>
<totfact> 0.27126800E+01</totfact>
</mgrwt>
</event>
<event>
12    7  0.1661464E-007  0.1282144E+04  0.7818608E-02  0.9043846E-01
         -1   -1    0    0    0  501 -0.00000000000E+00  0.00000000000E+00  0.19777966824E+03  0.19777966824E+03  0.00000000000E+00 0.  1.
          2   -1    0    0  501    0  0.00000000000E+00 -0.00000000000E+00 -0.20779364945E+04  0.20779364945E+04  0.00000000000E+00 0. -1.
         24    2    1    2    0    0  0.52873615665E+02  0.31457072401E+03 -0.59834073160E+03  0.68317900532E+03  0.83495883620E+02 0.  0.
        254    2    1    2    0    0 -0.52873615665E+02 -0.31457072401E+03 -0.12818160946E+04  0.15925371574E+04  0.88959076974E+03 0.  0.
         23    2    4    4    0    0 -0.35235510421E+03 -0.46345738424E+03 -0.91316395822E+03  0.10867985670E+04  0.91191250104E+02 0.  0.
         23    2    4    4    0    0  0.29948148854E+03  0.14888666023E+03 -0.36865213641E+03  0.50573859044E+03  0.89502651358E+02 0.  0.
          2    1    3    3  502    0  0.26636327705E+02  0.21942039513E+03 -0.48431657715E+03  0.53236956211E+03  0.00000000000E+00 0. -1.
         -1    1    3    3    0  502  0.26237287960E+02  0.95150328876E+02 -0.11402415445E+03  0.15080944321E+03  0.00000000000E+00 0.  1.
         13    1    5    5    0    0 -0.70982793919E+02 -0.52935264483E+02 -0.10148633369E+03  0.13468546761E+03  0.00000000000E+00 0.  1.
        -13    1    5    5    0    0 -0.28137231029E+03 -0.41052211976E+03 -0.81167762453E+03  0.95211309936E+03  0.00000000000E+00 0. -1.
          2    1    6    6  503    0  0.24034489349E+03  0.92204155534E+02 -0.23267538466E+03  0.34699439297E+03  0.00000000000E+00 0. -1.
         -2    1    6    6    0  503  0.59136595055E+02  0.56682504700E+02 -0.13597675175E+03  0.15874419747E+03  0.00000000000E+00 0.  1.
<mgrwt>
<rscale>  0 0.12821444E+04</rscale>
<asrwt>0</asrwt>
<pdfrwt beam="1">  1        2 0.31968255E+00 0.12821444E+04</pdfrwt>
<pdfrwt beam="2">  1       -1 0.30427640E-01 0.12821444E+04</pdfrwt>
<totfact> 0.67352190E+01</totfact>
</mgrwt>
</event>
<event>
12    7  0.1661464E-007  0.1561992E+04  0.7818608E-02  0.8844244E-01
          2   -1    0    0  501    0  0.00000000000E+00  0.00000000000E+00  0.53904515939E+03  0.53904515939E+03  0.00000000000E+00 0. -1.
         -1   -1    0    0    0  501 -0.00000000000E+00 -0.00000000000E+00 -0.11315463747E+04  0.11315463747E+04  0.00000000000E+00 0.  1.
         24    2    1    2    0    0  0.48670448187E+02 -0.43508725398E+02  0.33002685498E+03  0.34618508049E+03  0.81636776224E+02 0.  0.
        254    2    1    2    0    0 -0.48670448187E+02  0.43508725398E+02 -0.92252807028E+03  0.13244064536E+04  0.94801508012E+03 0.  0.
         23    2    4    4    0    0 -0.30275350677E+02 -0.33735633826E+03 -0.85826561523E+03  0.92710809900E+03  0.90463612067E+02 0.  0.
         23    2    4    4    0    0 -0.18395097509E+02  0.38086506366E+03 -0.64262455050E+02  0.39729835459E+03  0.91212625773E+02 0.  0.
          2    1    3    3  502    0  0.15786941781E+02 -0.14957072635E+02  0.27570751783E+03  0.27656387497E+03  0.00000000000E+00 0. -1.
         -1    1    3    3    0  502  0.32883506406E+02 -0.28551652762E+02  0.54319337156E+02  0.69621205520E+02  0.00000000000E+00 0.  1.
         13    1    5    5    0    0 -0.28380567330E+02 -0.75733986762E+02 -0.12820661530E+03  0.15158505718E+03  0.00000000000E+00 0.  1.
        -13    1    5    5    0    0 -0.18947833473E+01 -0.26162235150E+03 -0.73005899993E+03  0.77552304182E+03  0.00000000000E+00 0. -1.
          3    1    6    6  503    0  0.12018466790E+02  0.28591583626E+03 -0.16224889512E+02  0.28662790514E+03  0.00000000000E+00 0. -1.
         -3    1    6    6    0  503 -0.30413564299E+02  0.94949227405E+02 -0.48037565538E+02  0.11067044945E+03  0.00000000000E+00 0.  1.
<mgrwt>
<rscale>  0 0.15619918E+04</rscale>
<asrwt>0</asrwt>
<pdfrwt beam="1">  1        2 0.82930026E-01 0.15619918E+04</pdfrwt>
<pdfrwt beam="2">  1       -1 0.17408405E+00 0.15619918E+04</pdfrwt>
<totfact> 0.14232637E+01</totfact>
</mgrwt>
</event>
<event>
12    7  0.1661464E-007  0.2162707E+04  0.7818608E-02  0.8534112E-01
          2   -1    0    0  501    0  0.00000000000E+00  0.00000000000E+00  0.15113159057E+04  0.15113159057E+04  0.00000000000E+00 0. -1.
         -1   -1    0    0    0  501 -0.00000000000E+00 -0.00000000000E+00 -0.77371352843E+03  0.77371352843E+03  0.00000000000E+00 0.  1.
         24    2    1    2    0    0 -0.73856455893E+03  0.39658575349E+03 -0.67770233350E+01  0.84219767492E+03  0.80579948056E+02 0.  0.
        254    2    1    2    0    0  0.73856455893E+03 -0.39658575349E+03  0.74437940065E+03  0.14428317593E+04  0.90824276812E+03 0.  0.
         23    2    4    4    0    0  0.66806006237E+03 -0.31618470795E+03  0.62962169180E+02  0.74695571938E+03  0.87758734564E+02 0.  0.
         23    2    4    4    0    0  0.70504496559E+02 -0.80401045544E+02  0.68141723147E+03  0.69587603988E+03  0.92080439719E+02 0.  0.
          4    1    3    3  502    0 -0.91709821046E+02  0.74197100885E+02  0.16307158753E+02  0.11908746568E+03  0.00000000000E+00 0. -1.
         -3    1    3    3    0  502 -0.64685473788E+03  0.32238865260E+03 -0.23084182088E+02  0.72311020924E+03  0.00000000000E+00 0.  1.
         13    1    5    5    0    0  0.89234784204E+02 -0.11059896567E+02  0.10593513216E+02  0.90539441936E+02  0.00000000000E+00 0. -1.
        -13    1    5    5    0    0  0.57882527816E+03 -0.30512481138E+03  0.52368655965E+02  0.65641627744E+03  0.00000000000E+00 0.  1.
          3    1    6    6  503    0  0.57459173184E+02 -0.84624725334E+02  0.36225598192E+03  0.37642037293E+03  0.00000000000E+00 0. -1.
         -3    1    6    6    0  503  0.13045323375E+02  0.42236797903E+01  0.31916124955E+03  0.31945566695E+03  0.00000000000E+00 0.  1.
<mgrwt>
<rscale>  0 0.21627072E+04</rscale>
<asrwt>0</asrwt>
<pdfrwt beam="1">  1        2 0.23251014E+00 0.21627072E+04</pdfrwt>
<pdfrwt beam="2">  1       -1 0.11903285E+00 0.21627072E+04</pdfrwt>
<totfact> 0.82504366E+00</totfact>
</mgrwt>
</event>
<event>
12    7  0.1661464E-007  0.1793430E+04  0.7818608E-02  0.8709801E-01
          2   -1    0    0  501    0  0.00000000000E+00  0.00000000000E+00  0.10794367490E+04  0.10794367490E+04  0.00000000000E+00 0. -1.
         -1   -1    0    0    0  501 -0.00000000000E+00 -0.00000000000E+00 -0.74492350298E+03  0.74492350298E+03  0.00000000000E+00 0.  1.
         24    2    1    2    0    0 -0.51679880699E+03  0.41555703064E+03  0.20732738601E+03  0.69969276540E+03  0.82563117323E+02 0.  0.
        254    2    1    2    0    0  0.51679880699E+03 -0.41555703064E+03  0.12718586004E+03  0.11246674866E+04  0.89940650420E+03 0.  0.
         23    2    4    4    0    0 -0.19080503194E+02  0.24500904414E+03  0.38295669299E+02  0.26478562118E+03  0.90837049611E+02 0.  0.
         23    2    4    4    0    0  0.53587931019E+03 -0.66056607479E+03  0.88890190737E+02  0.85988186542E+03  0.89337462634E+02 0.  0.
          4    1    3    3  502    0 -0.36774007162E+03  0.26822798079E+03  0.17490931260E+03  0.48761898813E+03  0.00000000000E+00 0. -1.
         -1    1    3    3    0  502 -0.14905873538E+03  0.14732904986E+03  0.32418073405E+02  0.21207377727E+03  0.00000000000E+00 0.  1.
         13    1    5    5    0    0 -0.15746336253E+02  0.41662688031E+02  0.42226011133E+02  0.61373957796E+02  0.00000000000E+00 0.  1.
        -13    1    5    5    0    0 -0.33341669411E+01  0.20334635611E+03 -0.39303418342E+01  0.20341166338E+03  0.00000000000E+00 0. -1.
          3    1    6    6  503    0  0.38655932616E+03 -0.53435450561E+03  0.59930279839E+02  0.66223446660E+03  0.00000000000E+00 0. -1.
         -3    1    6    6    0  503  0.14931998402E+03 -0.12621156917E+03  0.28959910898E+02  0.19764739882E+03  0.00000000000E+00 0.  1.
<mgrwt>
<rscale>  0 0.17934300E+04</rscale>
<asrwt>0</asrwt>
<pdfrwt beam="1">  1        2 0.16606719E+00 0.17934300E+04</pdfrwt>
<pdfrwt beam="2">  1       -1 0.11460362E+00 0.17934300E+04</pdfrwt>
<totfact> 0.16731971E+01</totfact>
</mgrwt>
</event>
<event>
12    7  0.1661464E-007  0.1142932E+04  0.7818608E-02  0.9164329E-01
         -1   -1    0    0    0  501 -0.00000000000E+00  0.00000000000E+00  0.15305711080E+03  0.15305711080E+03  0.00000000000E+00 0.  1.
          2   -1    0    0  501    0  0.00000000000E+00 -0.00000000000E+00 -0.21336694066E+04  0.21336694066E+04  0.00000000000E+00 0. -1.
         24    2    1    2    0    0 -0.42134389445E+02 -0.21911288460E+02 -0.71856440974E+03  0.72458829885E+03  0.80237027250E+02 0.  0.
        254    2    1    2    0    0  0.42134389445E+02  0.21911288460E+02 -0.12620478860E+04  0.15621382185E+04  0.91937779818E+03 0.  0.
         23    2    4    4    0    0 -0.41629873168E+03  0.27948193420E+00 -0.41529453218E+03  0.59503867901E+03  0.91086601365E+02 0.  0.
         23    2    4    4    0    0  0.45843312112E+03  0.21631806526E+02 -0.84675335384E+03  0.96709953950E+03  0.87529511983E+02 0.  0.
          4    1    3    3  502    0 -0.11941007686E+02 -0.49529583315E+02 -0.45888227365E+03  0.46170196919E+03  0.00000000000E+00 0. -1.
         -3    1    3    3    0  502 -0.30193381759E+02  0.27618294855E+02 -0.25968213610E+03  0.26288632966E+03  0.00000000000E+00 0.  1.
         13    1    5    5    0    0 -0.26598621245E+02  0.17997762322E+02 -0.56687488183E+02  0.65152723790E+02  0.00000000000E+00 0. -1.
        -13    1    5    5    0    0 -0.38970011043E+03 -0.17718280388E+02 -0.35860704400E+03  0.52988595522E+03  0.00000000000E+00 0.  1.
          4    1    6    6  503    0  0.10930624001E+03  0.29381179327E+02 -0.15193494565E+03  0.18946064371E+03  0.00000000000E+00 0. -1.
         -4    1    6    6    0  503  0.34912688111E+03 -0.77493728017E+01 -0.69481840819E+03  0.77763889580E+03  0.00000000000E+00 0.  1.
<mgrwt>
<rscale>  0 0.11429318E+04</rscale>
<asrwt>0</asrwt>
<pdfrwt beam="1">  1        2 0.32825679E+00 0.11429318E+04</pdfrwt>
<pdfrwt beam="2">  1       -1 0.23547251E-01 0.11429318E+04</pdfrwt>
<totfact> 0.98794960E+01</totfact>
</mgrwt>
</event>
<event>
12    7  0.1661464E-007  0.1938169E+04  0.7818608E-02  0.8636087E-01
         -1   -1    0    0    0  501 -0.00000000000E+00  0.00000000000E+00  0.77460609975E+03  0.77460609975E+03  0.00000000000E+00 0.  1.
          2   -1    0    0  501    0  0.00000000000E+00 -0.00000000000E+00 -0.12123898546E+04  0.12123898546E+04  0.00000000000E+00 0. -1.
         24    2    1    2    0    0 -0.29712569685E+03 -0.57882057271E+03  0.22192361763E+03  0.69206848344E+03  0.79948474610E+02 0.  0.
        254    2    1    2    0    0  0.29712569685E+03  0.57882057271E+03 -0.65970737247E+03  0.12949274709E+04  0.90460289766E+03 0.  0.
         23    2    4    4    0    0  0.44473403139E+03 -0.10450493498E+02 -0.46635465086E+03  0.65079281765E+03  0.90261063791E+02 0.  0.
         23    2    4    4    0    0 -0.14760833455E+03  0.58927106621E+03 -0.19335272161E+03  0.64413465324E+03  0.92171398222E+02 0.  0.
          2    1    3    3  502    0 -0.23135812600E+03 -0.48369655492E+03  0.15359764132E+03  0.55774651512E+03  0.00000000000E+00 0. -1.
         -1    1    3    3    0  502 -0.65767570843E+02 -0.95124017794E+02  0.68325976314E+02  0.13432196833E+03  0.00000000000E+00 0.  1.
         13    1    5    5    0    0  0.13585210687E+03 -0.16462255476E+02 -0.20310762921E+03  0.24490714535E+03  0.00000000000E+00 0.  1.
        -13    1    5    5    0    0  0.30888192452E+03  0.60117619780E+01 -0.26324702164E+03  0.40588567230E+03  0.00000000000E+00 0. -1.
          1    1    6    6  503    0 -0.14198585205E+03  0.50999320221E+03 -0.13737535245E+03  0.54692324502E+03  0.00000000000E+00 0. -1.
         -1    1    6    6    0  503 -0.56224824931E+01  0.79277863997E+02 -0.55977369158E+02  0.97211408215E+02  0.00000000000E+00 0.  1.
<mgrwt>
<rscale>  0 0.19381688E+04</rscale>
<asrwt>0</asrwt>
<pdfrwt beam="1">  1        2 0.18652151E+00 0.19381688E+04</pdfrwt>
<pdfrwt beam="2">  1       -1 0.11917017E+00 0.19381688E+04</pdfrwt>
<totfact> 0.12483768E+01</totfact>
</mgrwt>
</event>
<event>
12    7  0.1661464E-007  0.1758920E+04  0.7818608E-02  0.8728456E-01
          2   -1    0    0  501    0  0.00000000000E+00  0.00000000000E+00  0.26283086869E+04  0.26283086869E+04  0.00000000000E+00 0. -1.
         -1   -1    0    0    0  501 -0.00000000000E+00 -0.00000000000E+00 -0.29427649211E+03  0.29427649211E+03  0.00000000000E+00 0.  1.
         24    2    1    2    0    0  0.24345986003E+03 -0.32879775811E+03  0.16907919077E+04  0.17414841643E+04  0.81296679860E+02 0.  0.
        254    2    1    2    0    0 -0.24345986003E+03  0.32879775811E+03  0.64324028710E+03  0.11811010147E+04  0.90214237837E+03 0.  0.
         23    2    4    4    0    0  0.16881385940E+03 -0.14961995403E+03  0.45510440844E+03  0.51574403123E+03  0.89373560960E+02 0.  0.
         23    2    4    4    0    0 -0.41227371943E+03  0.47841771214E+03  0.18813587866E+03  0.66535698349E+03  0.91933016991E+02 0.  0.
          4    1    3    3  502    0  0.17373813512E+03 -0.28727593201E+03  0.13374148472E+04  0.13789093061E+04  0.00000000000E+00 0. -1.
         -3    1    3    3    0  502  0.69721724905E+02 -0.41521826099E+02  0.35337706048E+03  0.36257485825E+03  0.00000000000E+00 0.  1.
         13    1    5    5    0    0  0.70875830159E+02 -0.11769064404E+02  0.16480835120E+03  0.17978789393E+03  0.00000000000E+00 0. -1.
        -13    1    5    5    0    0  0.97938029243E+02 -0.13785088963E+03  0.29029605724E+03  0.33595613730E+03  0.00000000000E+00 0.  1.
          1    1    6    6  503    0 -0.36045825895E+03  0.38945114139E+03  0.12710781895E+03  0.54567274589E+03  0.00000000000E+00 0. -1.
         -1    1    6    6    0  503 -0.51815460479E+02  0.88966570753E+02  0.61028059707E+02  0.11968423759E+03  0.00000000000E+00 0.  1.
<mgrwt>
<rscale>  0 0.17589195E+04</rscale>
<asrwt>0</asrwt>
<pdfrwt beam="1">  1        2 0.40435517E+00 0.17589195E+04</pdfrwt>
<pdfrwt beam="2">  1       -1 0.45273308E-01 0.17589195E+04</pdfrwt>
<totfact> 0.15323328E+01</totfact>
</mgrwt>
</event>
<event>
12    7  0.1661464E-007  0.1187705E+04  0.7818608E-02  0.9123687E-01
         -1   -1    0    0    0  501 -0.00000000000E+00  0.00000000000E+00  0.19696019973E+03  0.19696019973E+03  0.00000000000E+00 0.  1.
          2   -1    0    0  501    0  0.00000000000E+00 -0.00000000000E+00 -0.17905175547E+04  0.17905175547E+04  0.00000000000E+00 0. -1.
         24    2    1    2    0    0 -0.54193595124E+02  0.18674514098E+02  0.50664123343E+02  0.11005092162E+03  0.79111748346E+02 0.  0.
        254    2    1    2    0    0  0.54193595124E+02 -0.18674514098E+02 -0.16442214783E+04  0.18774268328E+04  0.90442332983E+03 0.  0.
         23    2    4    4    0    0  0.38749584288E+03  0.24467543653E+03 -0.92814681591E+03  0.10401951497E+04  0.10261744567E+03 0.  0.
         23    2    4    4    0    0 -0.33330224775E+03 -0.26334995062E+03 -0.71607466239E+03  0.83723168306E+03  0.88036266065E+02 0.  0.
          2    1    3    3  502    0 -0.36965234225E+02 -0.19064522120E+02 -0.35977234008E+01  0.41747193422E+02  0.00000000000E+00 0. -1.
         -1    1    3    3    0  502 -0.17228360899E+02  0.37739036217E+02  0.54261846744E+02  0.68303728199E+02  0.00000000000E+00 0.  1.
         13    1    5    5    0    0  0.32565624596E+03  0.24458615790E+03 -0.78863072058E+03  0.88758818864E+03  0.00000000000E+00 0.  1.
        -13    1    5    5    0    0  0.61839596915E+02  0.89278623485E-01 -0.13951609534E+03  0.15260696110E+03  0.00000000000E+00 0. -1.
          3    1    6    6  503    0 -0.12007874712E+03 -0.53307726481E+02 -0.17415585257E+03  0.21815334102E+03  0.00000000000E+00 0. -1.
         -3    1    6    6    0  503 -0.21322350064E+03 -0.21004222414E+03 -0.54191880982E+03  0.61907834204E+03  0.00000000000E+00 0.  1.
<mgrwt>
<rscale>  0 0.11877048E+04</rscale>
<asrwt>0</asrwt>
<pdfrwt beam="1">  1        2 0.27546424E+00 0.11877048E+04</pdfrwt>
<pdfrwt beam="2">  1       -1 0.30301569E-01 0.11877048E+04</pdfrwt>
<totfact> 0.98537207E+01</totfact>
</mgrwt>
</event>
<event>
12    7  0.1661464E-007  0.1757424E+04  0.7818608E-02  0.8729274E-01
          2   -1    0    0  501    0  0.00000000000E+00  0.00000000000E+00  0.14738324246E+04  0.14738324246E+04  0.00000000000E+00 0. -1.
         -1   -1    0    0    0  501 -0.00000000000E+00 -0.00000000000E+00 -0.52389599052E+03  0.52389599052E+03  0.00000000000E+00 0.  1.
         24    2    1    2    0    0  0.41528963568E+03 -0.16464628883E+03 -0.17736189738E+03  0.48743756316E+03  0.81020080277E+02 0.  0.
        254    2    1    2    0    0 -0.41528963568E+03  0.16464628883E+03  0.11272983315E+04  0.15102908520E+04  0.90033496405E+03 0.  0.
         23    2    4    4    0    0 -0.19043988182E+03  0.43246509467E+03  0.10267922433E+04  0.11338505064E+04  0.89561450301E+02 0.  0.
         23    2    4    4    0    0 -0.22484975387E+03 -0.26781880584E+03  0.10050608824E+03  0.37644034559E+03  0.96548099083E+02 0.  0.
          4    1    3    3  502    0  0.17177845750E+03 -0.36485553451E+02 -0.97711405367E+02  0.20096405851E+03  0.00000000000E+00 0. -1.
         -3    1    3    3    0  502  0.24351117818E+03 -0.12816073538E+03 -0.79650492014E+02  0.28647350466E+03  0.00000000000E+00 0.  1.
         13    1    5    5    0    0 -0.14712206610E+03  0.30276562838E+03  0.63213249670E+03  0.71617275950E+03  0.00000000000E+00 0. -1.
        -13    1    5    5    0    0 -0.43317815718E+02  0.12969946629E+03  0.39465974655E+03  0.41767774690E+03  0.00000000000E+00 0.  1.
          3    1    6    6  503    0 -0.34419359715E+02 -0.11051564574E+03  0.29983058947E+02  0.11957166930E+03  0.00000000000E+00 0. -1.
         -3    1    6    6    0  503 -0.19043039415E+03 -0.15730316010E+03  0.70523029294E+02  0.25686867628E+03  0.00000000000E+00 0.  1.
<mgrwt>
<rscale>  0 0.17574241E+04</rscale>
<asrwt>0</asrwt>
<pdfrwt beam="1">  1        2 0.22674345E+00 0.17574241E+04</pdfrwt>
<pdfrwt beam="2">  1       -1 0.80599384E-01 0.17574241E+04</pdfrwt>
<totfact> 0.21766305E+01</totfact>
</mgrwt>
</event>
<event>
12    7  0.1661464E-007  0.2115803E+04  0.7818608E-02  0.8554314E-01
          2   -1    0    0  501    0  0.00000000000E+00  0.00000000000E+00  0.78074648680E+03  0.78074648680E+03  0.00000000000E+00 0. -1.
         -1   -1    0    0    0  501 -0.00000000000E+00 -0.00000000000E+00 -0.14334427234E+04  0.14334427234E+04  0.00000000000E+00 0.  1.
         24    2    1    2    0    0  0.68536043026E+03  0.77453514031E+02  0.27485111283E+03  0.74663984716E+03  0.78803305412E+02 0.  0.
        254    2    1    2    0    0 -0.68536043026E+03 -0.77453514031E+02 -0.92754734947E+03  0.14675493631E+04  0.90423397490E+03 0.  0.
         23    2    4    4    0    0 -0.51052031047E+02  0.31932964670E+03 -0.49562621961E+03  0.59875623712E+03  0.91027187095E+02 0.  0.
         23    2    4    4    0    0 -0.63430839921E+03 -0.39678316073E+03 -0.43192112987E+03  0.86879312596E+03  0.91987017237E+02 0.  0.
          2    1    3    3  502    0  0.38409270582E+02 -0.76964367182E+01  0.31289821862E+02  0.50135418189E+02  0.00000000000E+00 0. -1.
         -1    1    3    3    0  502  0.64695115968E+03  0.85149950749E+02  0.24356129097E+03  0.69650442898E+03  0.00000000000E+00 0.  1.
         13    1    5    5    0    0 -0.44867177280E+02  0.74752947174E+02 -0.91823620980E+02  0.12662007771E+03  0.00000000000E+00 0.  1.
        -13    1    5    5    0    0 -0.61848537668E+01  0.24457669953E+03 -0.40380259862E+03  0.47213615941E+03  0.00000000000E+00 0. -1.
          4    1    6    6  503    0  0.20580453549E+01 -0.71845317081E+01 -0.24415388812E+01  0.78621980805E+01  0.00000000000E+00 0.  1.
         -4    1    6    6    0  503 -0.63636644457E+03 -0.38959862903E+03 -0.42947959099E+03  0.86093092788E+03  0.00000000000E+00 0. -1.
<mgrwt>
<rscale>  0 0.21158028E+04</rscale>
<asrwt>0</asrwt>
<pdfrwt beam="1">  1        2 0.12011484E+00 0.21158028E+04</pdfrwt>
<pdfrwt beam="2">  1       -1 0.22052965E+00 0.21158028E+04</pdfrwt>
<totfact> 0.40782617E+00</totfact>
</mgrwt>
</event>
<event>
12    7  0.1661464E-007  0.3394209E+04  0.7818608E-02  0.8139329E-01
          2   -1    0    0  501    0  0.00000000000E+00  0.00000000000E+00  0.35120878289E+04  0.35120878289E+04  0.00000000000E+00 0. -1.
         -1   -1    0    0    0  501 -0.00000000000E+00 -0.00000000000E+00 -0.82007143501E+03  0.82007143501E+03  0.00000000000E+00 0.  1.
         24    2    1    2    0    0 -0.12767307376E+04  0.86362103534E+03  0.81792187637E+03  0.17466881297E+04  0.77721024862E+02 0.  0.
        254    2    1    2    0    0  0.12767307376E+04 -0.86362103534E+03  0.18740945175E+04  0.25854711342E+04  0.89249540969E+03 0.  0.
         23    2    4    4    0    0  0.12647776315E+04 -0.99251879101E+03  0.16065094985E+04  0.22746107309E+04  0.90692891757E+02 0.  0.
         23    2    4    4    0    0  0.11953106100E+02  0.12889775566E+03  0.26758501898E+03  0.31086040333E+03  0.90966696174E+02 0.  0.
          4    1    3    3  502    0 -0.20367359566E+03  0.16993992280E+03  0.12691843394E+03  0.29405917738E+03  0.00000000000E+00 0. -1.
         -3    1    3    3    0  502 -0.10730571419E+04  0.69368111254E+03  0.69100344243E+03  0.14526289523E+04  0.00000000000E+00 0.  1.
         13    1    5    5    0    0  0.46205517365E+03 -0.36645990403E+03  0.65156108741E+03  0.87881721386E+03  0.00000000000E+00 0. -1.
        -13    1    5    5    0    0  0.80272245781E+03 -0.62605888698E+03  0.95494841112E+03  0.13957935170E+04  0.00000000000E+00 0.  1.
          2    1    6    6  503    0 -0.86271733162E+01  0.28655852248E+02  0.15845578320E+03  0.16125700362E+03  0.00000000000E+00 0.  1.
         -2    1    6    6    0  503  0.20580279416E+02  0.10024190342E+03  0.10912923578E+03  0.14960339971E+03  0.00000000000E+00 0. -1.
<mgrwt>
<rscale>  0 0.33942085E+04</rscale>
<asrwt>0</asrwt>
<pdfrwt beam="1">  1        2 0.54032119E+00 0.33942085E+04</pdfrwt>
<pdfrwt beam="2">  1       -1 0.12616484E+00 0.33942085E+04</pdfrwt>
<totfact> 0.40958057E-01</totfact>
</mgrwt>
</event>
<event>
12    7  0.1661464E-007  0.1395477E+04  0.7818608E-02  0.8957099E-01
          2   -1    0    0  501    0  0.00000000000E+00  0.00000000000E+00  0.15502050827E+04  0.15502050827E+04  0.00000000000E+00 0. -1.
         -1   -1    0    0    0  501 -0.00000000000E+00 -0.00000000000E+00 -0.31404802359E+03  0.31404802359E+03  0.00000000000E+00 0.  1.
         24    2    1    2    0    0  0.25285522246E+03 -0.23251968094E+03  0.65548229396E+03  0.74440034837E+03  0.80459153718E+02 0.  0.
        254    2    1    2    0    0 -0.25285522246E+03  0.23251968094E+03  0.58067476511E+03  0.11198527579E+04  0.89380414573E+03 0.  0.
         23    2    4    4    0    0  0.43737907096E+02 -0.29684146889E+03  0.33507337815E+03  0.45889340835E+03  0.91000710544E+02 0.  0.
         23    2    4    4    0    0 -0.29659312955E+03  0.52936114983E+03  0.24560138697E+03  0.66095934952E+03  0.91413943058E+02 0.  0.
          2    1    3    3  502    0  0.13749810999E+03 -0.12773507398E+03  0.27202163277E+03  0.33048108580E+03  0.00000000000E+00 0. -1.
         -1    1    3    3    0  502  0.11535711247E+03 -0.10478460696E+03  0.38346066118E+03  0.41391926257E+03  0.00000000000E+00 0.  1.
         13    1    5    5    0    0  0.10786730803E+02 -0.17878184368E+02  0.68593716262E+02  0.71701331566E+02  0.00000000000E+00 0.  1.
        -13    1    5    5    0    0  0.32951176293E+02 -0.27896328452E+03  0.26647966188E+03  0.38719207679E+03  0.00000000000E+00 0. -1.
          1    1    6    6  503    0 -0.26967162186E+03  0.43560967406E+03  0.23224468007E+03  0.56250881166E+03  0.00000000000E+00 0. -1.
         -1    1    6    6    0  503 -0.26921507695E+02  0.93751475769E+02  0.13356706893E+02  0.98450537858E+02  0.00000000000E+00 0.  1.
<mgrwt>
<rscale>  0 0.13954768E+04</rscale>
<asrwt>0</asrwt>
<pdfrwt beam="1">  1        2 0.23849309E+00 0.13954768E+04</pdfrwt>
<pdfrwt beam="2">  1       -1 0.48315081E-01 0.13954768E+04</pdfrwt>
<totfact> 0.56515262E+01</totfact>
</mgrwt>
</event>
<event>
12    7  0.1661464E-007  0.2055352E+04  0.7818608E-02  0.8581170E-01
         -1   -1    0    0    0  501 -0.00000000000E+00  0.00000000000E+00  0.52835552700E+03  0.52835552700E+03  0.00000000000E+00 0.  1.
          2   -1    0    0  501    0  0.00000000000E+00 -0.00000000000E+00 -0.19988778140E+04  0.19988778140E+04  0.00000000000E+00 0. -1.
         24    2    1    2    0    0 -0.34711271555E+03 -0.14138738242E+03  0.31399325230E+03  0.49544089446E+03  0.79951786814E+02 0.  0.
        254    2    1    2    0    0  0.34711271555E+03  0.14138738242E+03 -0.17845155393E+04  0.20317924466E+04  0.89621828069E+03 0.  0.
         23    2    4    4    0    0 -0.16704763008E+03  0.35487046565E+03 -0.67303320272E+03  0.78507021897E+03  0.97588926831E+02 0.  0.
         23    2    4    4    0    0  0.51416034563E+03 -0.21348308324E+03 -0.11114823366E+04  0.12467222276E+04  0.94802111576E+02 0.  0.
          4    1    3    3  502    0 -0.31593169386E+02 -0.10845447623E+02  0.29180006200E+01  0.33530088184E+02  0.00000000000E+00 0. -1.
         -1    1    3    3    0  502 -0.31551954616E+03 -0.13054193480E+03  0.31107525168E+03  0.46191080628E+03  0.00000000000E+00 0.  1.
         13    1    5    5    0    0 -0.12280342235E+03  0.28444790327E+03 -0.44406710715E+03  0.54146734516E+03  0.00000000000E+00 0. -1.
        -13    1    5    5    0    0 -0.44244207731E+02  0.70422562381E+02 -0.22896609556E+03  0.24360287381E+03  0.00000000000E+00 0.  1.
          2    1    6    6  503    0  0.46369958206E+03 -0.18395445299E+03 -0.92041451522E+03  0.10469094627E+04  0.00000000000E+00 0. -1.
         -2    1    6    6    0  503  0.50460763567E+02 -0.29528630247E+02 -0.19106782138E+03  0.19981276493E+03  0.00000000000E+00 0.  1.
<mgrwt>
<rscale>  0 0.20553522E+04</rscale>
<asrwt>0</asrwt>
<pdfrwt beam="1">  1        2 0.30751967E+00 0.20553522E+04</pdfrwt>
<pdfrwt beam="2">  1       -1 0.81285465E-01 0.20553522E+04</pdfrwt>
<totfact> 0.10621140E+01</totfact>
</mgrwt>
</event>
<event>
12    7  0.1661464E-007  0.1643258E+04  0.7818608E-02  0.8794405E-01
          2   -1    0    0  501    0  0.00000000000E+00  0.00000000000E+00  0.16426969759E+04  0.16426969759E+04  0.00000000000E+00 0. -1.
         -1   -1    0    0    0  501 -0.00000000000E+00 -0.00000000000E+00 -0.41095492192E+03  0.41095492192E+03  0.00000000000E+00 0.  1.
         24    2    1    2    0    0 -0.24218486684E+03 -0.42068904462E+03  0.51026597122E+02  0.49464910263E+03  0.80257330671E+02 0.  0.
        254    2    1    2    0    0  0.24218486684E+03  0.42068904462E+03  0.11807154569E+04  0.15590027952E+04  0.89485638142E+03 0.  0.
         23    2    4    4    0    0 -0.27503641829E+03  0.38799145756E+03  0.66328720883E+03  0.82113279889E+03  0.90148485769E+02 0.  0.
         23    2    4    4    0    0  0.51722128514E+03  0.32697587064E+02  0.51742824807E+03  0.73786999634E+03  0.90183976398E+02 0.  0.
          2    1    3    3  502    0 -0.61443378892E+02 -0.17728803571E+03  0.36369724719E+02  0.19112585720E+03  0.00000000000E+00 0. -1.
         -1    1    3    3    0  502 -0.18074148795E+03 -0.24340100892E+03  0.14656872402E+02  0.30352324543E+03  0.00000000000E+00 0.  1.
         13    1    5    5    0    0 -0.25366814883E+03  0.38667793382E+03  0.63842405882E+03  0.78832267068E+03  0.00000000000E+00 0.  1.
        -13    1    5    5    0    0 -0.21368269463E+02  0.13135237418E+01  0.24863150013E+02  0.32810128208E+02  0.00000000000E+00 0. -1.
          4    1    6    6  503    0  0.33072887506E+03  0.63895503261E+02  0.33872479603E+03  0.47770148794E+03  0.00000000000E+00 0. -1.
         -4    1    6    6    0  503  0.18649241008E+03 -0.31197916197E+02  0.17870345204E+03  0.26016850840E+03  0.00000000000E+00 0.  1.
<mgrwt>
<rscale>  0 0.16432582E+04</rscale>
<asrwt>0</asrwt>
<pdfrwt beam="1">  1        2 0.25272261E+00 0.16432582E+04</pdfrwt>
<pdfrwt beam="2">  1       -1 0.63223835E-01 0.16432582E+04</pdfrwt>
<totfact> 0.29161552E+01</totfact>
</mgrwt>
</event>
<event>
12    7  0.1661464E-007  0.1559633E+04  0.7818608E-02  0.8845738E-01
          2   -1    0    0  501    0  0.00000000000E+00  0.00000000000E+00  0.19709082803E+04  0.19709082803E+04  0.00000000000E+00 0. -1.
         -1   -1    0    0    0  501 -0.00000000000E+00 -0.00000000000E+00 -0.30854502708E+03  0.30854502708E+03  0.00000000000E+00 0.  1.
         24    2    1    2    0    0 -0.13683752988E+03  0.48561806153E+03  0.79476547644E+03  0.94483901342E+03  0.80741485442E+02 0.  0.
        254    2    1    2    0    0  0.13683752988E+03 -0.48561806153E+03  0.86759777677E+03  0.13346142940E+04  0.87972723051E+03 0.  0.
         23    2    4    4    0    0  0.16488306867E+03 -0.47742296579E+03  0.10272675747E+04  0.11482489025E+04  0.89876345204E+02 0.  0.
         23    2    4    4    0    0 -0.28045538797E+02 -0.81950957313E+01 -0.15966979792E+03  0.18636539147E+03  0.91563655078E+02 0.  0.
          4    1    3    3  502    0 -0.87353615696E+02  0.38092146292E+03  0.66122138305E+03  0.76807911863E+03  0.00000000000E+00 0. -1.
         -3    1    3    3    0  502 -0.49483914181E+02  0.10469659861E+03  0.13354409339E+03  0.17675989478E+03  0.00000000000E+00 0.  1.
         13    1    5    5    0    0  0.11631509606E+03 -0.41959627010E+03  0.83559255571E+03  0.94223412728E+03  0.00000000000E+00 0. -1.
        -13    1    5    5    0    0  0.48567972609E+02 -0.57826695695E+02  0.19167501898E+03  0.20601477520E+03  0.00000000000E+00 0.  1.
          1    1    6    6  503    0  0.24055432092E+02  0.19261000680E+02 -0.90051998485E+02  0.95178844244E+02  0.00000000000E+00 0. -1.
         -1    1    6    6    0  503 -0.52100970889E+02 -0.27456096412E+02 -0.69617799433E+02  0.91186547230E+02  0.00000000000E+00 0.  1.
<mgrwt>
<rscale>  0 0.15596332E+04</rscale>
<asrwt>0</asrwt>
<pdfrwt beam="1">  1        2 0.30321665E+00 0.15596332E+04</pdfrwt>
<pdfrwt beam="2">  1       -1 0.47468467E-01 0.15596332E+04</pdfrwt>
<totfact> 0.33665755E+01</totfact>
</mgrwt>
</event>
