<event>
12    7  0.1675873E-007  0.2578585E+04  0.7818608E-02  0.8375512E-01
         -1   -1    0    0    0  501 -0.00000000000E+00  0.00000000000E+00  0.14253299029E+04  0.14253299029E+04  0.00000000000E+00 0.  1.
          2   -1    0    0  501    0  0.00000000000E+00 -0.00000000000E+00 -0.11662386406E+04  0.11662386406E+04  0.00000000000E+00 0. -1.
         24    2    1    2    0    0 -0.66682288733E+03  0.90846067865E+03  0.20248845359E+03  0.11477642731E+04  0.80048017724E+02 0.  0.
        254    2    1    2    0    0  0.66682288733E+03 -0.90846067865E+03  0.56602808696E+02  0.14438042704E+04  0.90078483870E+03 0.  0.
         23    2    4    4    0    0  0.59158364499E+03 -0.89900142623E+03  0.34392481735E+03  0.11334161291E+04  0.90405023224E+02 0.  0.
         23    2    4    4    0    0  0.75239242338E+02 -0.94592524197E+01 -0.28732200865E+03  0.31038814137E+03  0.89646196813E+02 0.  0.
          2    1    3    3  502    0 -0.24637495797E+03  0.36172467500E+03  0.42298514977E+02  0.43969822013E+03  0.00000000000E+00 0. -1.
         -1    1    3    3    0  502 -0.42044792936E+03  0.54673600366E+03  0.16018993862E+03  0.70806605301E+03  0.00000000000E+00 0.  1.
         13    1    5    5    0    0  0.55474861983E+03 -0.82362627389E+03  0.29332899779E+03  0.10354458804E+04  0.00000000000E+00 0. -1.
        -13    1    5    5    0    0  0.36835025160E+02 -0.75375152344E+02  0.50595819556E+02  0.97970248678E+02  0.00000000000E+00 0.  1.
          2    1    6    6  503    0  0.26628932335E+02 -0.26806989284E+02 -0.23069458155E+03  0.23376848519E+03  0.00000000000E+00 0. -1.
         -2    1    6    6    0  503  0.48610310003E+02  0.17347736864E+02 -0.56627427106E+02  0.76619656182E+02  0.00000000000E+00 0.  1.
<mgrwt>
<rscale>  0 0.25785847E+04</rscale>
<asrwt>0</asrwt>
<pdfrwt beam="1">  1        2 0.17942133E+00 0.25785847E+04</pdfrwt>
<pdfrwt beam="2">  1       -1 0.21928152E+00 0.25785847E+04</pdfrwt>
<totfact> 0.22304343E+00</totfact>
</mgrwt>
</event>
<event>
12    7  0.1675873E-007  0.1678223E+04  0.7818608E-02  0.8773883E-01
         -1   -1    0    0    0  501 -0.00000000000E+00  0.00000000000E+00  0.61278009802E+03  0.61278009802E+03  0.00000000000E+00 0.  1.
          2   -1    0    0  501    0  0.00000000000E+00 -0.00000000000E+00 -0.11490394808E+04  0.11490394808E+04  0.00000000000E+00 0. -1.
         24    2    1    2    0    0 -0.10288492291E+03  0.41572336055E+02  0.40081646022E+03  0.42383412568E+03  0.81657607239E+02 0.  0.
        254    2    1    2    0    0  0.10288492291E+03 -0.41572336055E+02 -0.93707584303E+03  0.13379854532E+04  0.94856753625E+03 0.  0.
         23    2    4    4    0    0 -0.41303489992E+03  0.23812923619E+02 -0.47380446543E+03  0.63580908657E+03  0.92723455642E+02 0.  0.
         23    2    4    4    0    0  0.51591982283E+03 -0.65385259674E+02 -0.46327137761E+03  0.70217636660E+03  0.89346431014E+02 0.  0.
          4    1    3    3  502    0 -0.13284093043E+02  0.19291764735E+02  0.16674185831E+02  0.28751831032E+02  0.00000000000E+00 0. -1.
         -1    1    3    3    0  502 -0.89600829865E+02  0.22280571320E+02  0.38414227439E+03  0.39508229464E+03  0.00000000000E+00 0.  1.
         13    1    5    5    0    0 -0.26788372791E+03 -0.26284626924E+02 -0.27774319399E+03  0.38677364840E+03  0.00000000000E+00 0.  1.
        -13    1    5    5    0    0 -0.14515117201E+03  0.50097550543E+02 -0.19606127144E+03  0.24903543817E+03  0.00000000000E+00 0. -1.
          1    1    6    6  503    0  0.18323010984E+02 -0.12737174264E+02 -0.33930024061E+01  0.22571681486E+02  0.00000000000E+00 0. -1.
         -1    1    6    6    0  503  0.49759681184E+03 -0.52648085410E+02 -0.45987837520E+03  0.67960468512E+03  0.00000000000E+00 0.  1.
<mgrwt>
<rscale>  0 0.16782235E+04</rscale>
<asrwt>0</asrwt>
<pdfrwt beam="1">  1        2 0.17677530E+00 0.16782235E+04</pdfrwt>
<pdfrwt beam="2">  1       -1 0.94273863E-01 0.16782235E+04</pdfrwt>
<totfact> 0.24077434E+01</totfact>
</mgrwt>
</event>
<event>
12    7  0.1675873E-007  0.1963785E+04  0.7818608E-02  0.8623742E-01
         -1   -1    0    0    0  501 -0.00000000000E+00  0.00000000000E+00  0.81741487471E+03  0.81741487471E+03  0.00000000000E+00 0.  1.
          2   -1    0    0  501    0  0.00000000000E+00 -0.00000000000E+00 -0.11794656257E+04  0.11794656257E+04  0.00000000000E+00 0. -1.
         24    2    1    2    0    0  0.28759356350E+03  0.23406180773E+03 -0.83481257849E+03  0.91688074373E+03  0.79140820122E+02 0.  0.
        254    2    1    2    0    0 -0.28759356350E+03 -0.23406180773E+03  0.47276182754E+03  0.10799997566E+04  0.89744121878E+03 0.  0.
         23    2    4    4    0    0 -0.30798918951E+03  0.15346840356E+03  0.56825704478E+03  0.67010601513E+03  0.87841395853E+02 0.  0.
         23    2    4    4    0    0  0.20395626007E+02 -0.38753021130E+03 -0.95495217241E+02  0.40989374151E+03  0.91092791091E+02 0.  0.
          4    1    3    3  502    0  0.13371995958E+03  0.15910351556E+03 -0.44448983272E+03  0.49067929205E+03  0.00000000000E+00 0. -1.
         -3    1    3    3    0  502  0.15387360392E+03  0.74958292170E+02 -0.39032274577E+03  0.42620145168E+03  0.00000000000E+00 0.  1.
         13    1    5    5    0    0 -0.16630023096E+03  0.84089254451E+02  0.22371218794E+03  0.29115959982E+03  0.00000000000E+00 0. -1.
        -13    1    5    5    0    0 -0.14168895855E+03  0.69379149113E+02  0.34454485683E+03  0.37894641531E+03  0.00000000000E+00 0.  1.
          3    1    6    6  503    0  0.90937764832E+01 -0.81492214949E+02  0.16811997390E+02  0.83703770072E+02  0.00000000000E+00 0. -1.
         -3    1    6    6    0  503  0.11301849523E+02 -0.30603799635E+03 -0.11230721463E+03  0.32618997144E+03  0.00000000000E+00 0.  1.
<mgrwt>
<rscale>  0 0.19637849E+04</rscale>
<asrwt>0</asrwt>
<pdfrwt beam="1">  1        2 0.18145625E+00 0.19637849E+04</pdfrwt>
<pdfrwt beam="2">  1       -1 0.12575614E+00 0.19637849E+04</pdfrwt>
<totfact> 0.11414064E+01</totfact>
</mgrwt>
</event>
<event>
12    7  0.1675873E-007  0.2759045E+04  0.7818608E-02  0.8316097E-01
          2   -1    0    0  501    0  0.00000000000E+00  0.00000000000E+00  0.82259150470E+03  0.82259150470E+03  0.00000000000E+00 0. -1.
         -1   -1    0    0    0  501 -0.00000000000E+00 -0.00000000000E+00 -0.23135202182E+04  0.23135202182E+04  0.00000000000E+00 0.  1.
         24    2    1    2    0    0  0.94487280834E+03 -0.73971548111E+03 -0.59611426415E+03  0.13422947426E+04  0.80245517988E+02 0.  0.
        254    2    1    2    0    0 -0.94487280834E+03  0.73971548111E+03 -0.89481444936E+03  0.17938169803E+04  0.98849524182E+03 0.  0.
         23    2    4    4    0    0 -0.92312616080E+03  0.90271835373E+03 -0.56214995996E+03  0.14113876657E+04  0.94552791830E+02 0.  0.
         23    2    4    4    0    0 -0.21746647533E+02 -0.16300287262E+03 -0.33266448940E+03  0.38242931462E+03  0.92431947996E+02 0.  0.
          2    1    3    3  502    0  0.62315366429E+02 -0.58771179928E+02 -0.64939391464E+02  0.10749130684E+03  0.00000000000E+00 0. -1.
         -1    1    3    3    0  502  0.88255744191E+03 -0.68094430118E+03 -0.53117487269E+03  0.12348034358E+04  0.00000000000E+00 0.  1.
         13    1    5    5    0    0 -0.28941486278E+03  0.25027474430E+03 -0.20644087107E+03  0.43475998399E+03  0.00000000000E+00 0. -1.
        -13    1    5    5    0    0 -0.63371129803E+03  0.65244360943E+03 -0.35570908889E+03  0.97662768169E+03  0.00000000000E+00 0.  1.
          1    1    6    6  503    0  0.25134054054E+02 -0.12704203711E+03 -0.22412500819E+03  0.25885018671E+03  0.00000000000E+00 0. -1.
         -1    1    6    6    0  503 -0.46880701587E+02 -0.35960835506E+02 -0.10853948121E+03  0.12357912790E+03  0.00000000000E+00 0.  1.
<mgrwt>
<rscale>  0 0.27590448E+04</rscale>
<asrwt>0</asrwt>
<pdfrwt beam="1">  1        2 0.12655254E+00 0.27590448E+04</pdfrwt>
<pdfrwt beam="2">  1       -1 0.35592618E+00 0.27590448E+04</pdfrwt>
<totfact> 0.46873288E-01</totfact>
</mgrwt>
</event>
<event>
12    7  0.1675873E-007  0.1465613E+04  0.7818608E-02  0.8907647E-01
         -1   -1    0    0    0  501 -0.00000000000E+00  0.00000000000E+00  0.43789712118E+03  0.43789712118E+03  0.00000000000E+00 0.  1.
          2   -1    0    0  501    0  0.00000000000E+00 -0.00000000000E+00 -0.12263279786E+04  0.12263279786E+04  0.00000000000E+00 0. -1.
         24    2    1    2    0    0 -0.27616034001E+03  0.27186006253E+03  0.11708578502E+02  0.39571426149E+03  0.79248084761E+02 0.  0.
        254    2    1    2    0    0  0.27616034001E+03 -0.27186006253E+03 -0.80013943590E+03  0.12685108383E+04  0.90483379850E+03 0.  0.
         23    2    4    4    0    0  0.17546779114E+03 -0.52683074642E+03 -0.80174329274E+03  0.97924800716E+03  0.88288000220E+02 0.  0.
         23    2    4    4    0    0  0.10069254887E+03  0.25497068389E+03  0.16038568382E+01  0.28926283110E+03  0.92311288905E+02 0.  0.
          4    1    3    3  502    0 -0.12809257496E+03  0.76280044142E+02  0.19050252558E+02  0.15029725552E+03  0.00000000000E+00 0. -1.
         -3    1    3    3    0  502 -0.14806776506E+03  0.19558001839E+03 -0.73416740558E+01  0.24541700597E+03  0.00000000000E+00 0.  1.
         13    1    5    5    0    0  0.43324620092E+02 -0.16352387299E+03 -0.17918602859E+03  0.24642384744E+03  0.00000000000E+00 0.  1.
        -13    1    5    5    0    0  0.13214317105E+03 -0.36330687343E+03 -0.62255726414E+03  0.73282415972E+03  0.00000000000E+00 0. -1.
          3    1    6    6  503    0  0.76268133209E+02  0.19341571607E+03  0.41414099900E+02  0.21199432784E+03  0.00000000000E+00 0. -1.
         -3    1    6    6    0  503  0.24424415662E+02  0.61554967821E+02 -0.39810243062E+02  0.77268503263E+02  0.00000000000E+00 0.  1.
<mgrwt>
<rscale>  0 0.14656132E+04</rscale>
<asrwt>0</asrwt>
<pdfrwt beam="1">  1        2 0.18866584E+00 0.14656132E+04</pdfrwt>
<pdfrwt beam="2">  1       -1 0.67368789E-01 0.14656132E+04</pdfrwt>
<totfact> 0.45026915E+01</totfact>
</mgrwt>
</event>
<event>
12    7  0.1675873E-007  0.1869049E+04  0.7818608E-02  0.8670418E-01
          2   -1    0    0  501    0  0.00000000000E+00  0.00000000000E+00  0.13321192557E+04  0.13321192557E+04  0.00000000000E+00 0. -1.
         -1   -1    0    0    0  501 -0.00000000000E+00 -0.00000000000E+00 -0.65559875154E+03  0.65559875154E+03  0.00000000000E+00 0.  1.
         24    2    1    2    0    0  0.52530619286E+03 -0.23611272279E+03 -0.19131880352E+03  0.61256368517E+03  0.83280067785E+02 0.  0.
        254    2    1    2    0    0 -0.52530619286E+03  0.23611272279E+03  0.86783930770E+03  0.13751543221E+04  0.89789115792E+03 0.  0.
         23    2    4    4    0    0  0.73901114329E+02 -0.13938446278E+03 -0.71708673467E+02  0.19593260811E+03  0.91422370929E+02 0.  0.
         23    2    4    4    0    0 -0.59920730719E+03  0.37549718557E+03  0.93954798117E+03  0.11792217140E+04  0.88124392001E+02 0.  0.
          2    1    3    3  502    0  0.12966950625E+03 -0.39711101397E+02 -0.13042115706E+02  0.13623967560E+03  0.00000000000E+00 0. -1.
         -1    1    3    3    0  502  0.39563668661E+03 -0.19640162139E+03 -0.17827668781E+03  0.47632400957E+03  0.00000000000E+00 0.  1.
         13    1    5    5    0    0  0.45629730615E+02 -0.10083462027E+02 -0.30538377170E+01  0.46830272765E+02  0.00000000000E+00 0.  1.
        -13    1    5    5    0    0  0.28271383714E+02 -0.12930100076E+03 -0.68654835750E+02  0.14910233534E+03  0.00000000000E+00 0. -1.
          4    1    6    6  503    0 -0.44376477821E+03  0.28359736787E+03  0.75945341075E+03  0.92418836205E+03  0.00000000000E+00 0. -1.
         -4    1    6    6    0  503 -0.15544252897E+03  0.91899817709E+02  0.18009457042E+03  0.25503335194E+03  0.00000000000E+00 0.  1.
<mgrwt>
<rscale>  0 0.18690487E+04</rscale>
<asrwt>0</asrwt>
<pdfrwt beam="1">  1        2 0.20494142E+00 0.18690487E+04</pdfrwt>
<pdfrwt beam="2">  1       -1 0.10086135E+00 0.18690487E+04</pdfrwt>
<totfact> 0.15837841E+01</totfact>
</mgrwt>
</event>
<event>
12    7  0.1675873E-007  0.3848632E+04  0.7818608E-02  0.8035798E-01
          2   -1    0    0  501    0  0.00000000000E+00  0.00000000000E+00  0.27333541200E+04  0.27333541200E+04  0.00000000000E+00 0. -1.
         -1   -1    0    0    0  501 -0.00000000000E+00 -0.00000000000E+00 -0.13547425480E+04  0.13547425480E+04  0.00000000000E+00 0.  1.
         24    2    1    2    0    0 -0.53576005331E+03  0.16452421927E+04  0.12417439921E+04  0.21312781036E+04  0.80978426432E+02 0.  0.
        254    2    1    2    0    0  0.53576005331E+03 -0.16452421927E+04  0.13686757985E+03  0.19568185644E+04  0.90362904557E+03 0.  0.
         23    2    4    4    0    0  0.73252913211E+03 -0.14309723267E+04  0.25090982636E+03  0.16296867094E+04  0.92963975952E+02 0.  0.
         23    2    4    4    0    0 -0.19676907880E+03 -0.21426986608E+03 -0.11404224652E+03  0.32713185496E+03  0.96850248643E+02 0.  0.
          2    1    3    3  502    0 -0.75646459340E+02  0.29906463387E+03  0.25017012201E+03  0.39717393166E+03  0.00000000000E+00 0. -1.
         -1    1    3    3    0  502 -0.46011359397E+03  0.13461775589E+04  0.99157387012E+03  0.17341041720E+04  0.00000000000E+00 0.  1.
         13    1    5    5    0    0  0.23585869937E+03 -0.48412683585E+03  0.12725962058E+03  0.55335624176E+03  0.00000000000E+00 0. -1.
        -13    1    5    5    0    0  0.49667043273E+03 -0.94684549082E+03  0.12365020578E+03  0.10763304677E+04  0.00000000000E+00 0.  1.
          3    1    6    6  503    0 -0.41615390212E+01  0.99573004106E+01 -0.64124239514E+01  0.12553303128E+02  0.00000000000E+00 0. -1.
         -3    1    6    6    0  503 -0.19260753978E+03 -0.22422716649E+03 -0.10762982256E+03  0.31457855184E+03  0.00000000000E+00 0.  1.
<mgrwt>
<rscale>  0 0.38486315E+04</rscale>
<asrwt>0</asrwt>
<pdfrwt beam="1">  1        2 0.42051602E+00 0.38486315E+04</pdfrwt>
<pdfrwt beam="2">  1       -1 0.20842193E+00 0.38486315E+04</pdfrwt>
<totfact> 0.30316919E-01</totfact>
</mgrwt>
</event>
<event>
12    7  0.1675873E-007  0.2356163E+04  0.7818608E-02  0.8456100E-01
          2   -1    0    0  501    0  0.00000000000E+00  0.00000000000E+00  0.10750152216E+04  0.10750152216E+04  0.00000000000E+00 0. -1.
         -1   -1    0    0    0  501 -0.00000000000E+00 -0.00000000000E+00 -0.12910291837E+04  0.12910291837E+04  0.00000000000E+00 0.  1.
         24    2    1    2    0    0 -0.82085386595E+03 -0.98857337723E+02  0.48033404292E+03  0.95933296977E+03  0.77621592504E+02 0.  0.
        254    2    1    2    0    0  0.82085386595E+03  0.98857337723E+02 -0.69634800499E+03  0.14067114356E+04  0.90020146440E+03 0.  0.
         23    2    4    4    0    0  0.84027679635E+03 -0.23276370565E+03 -0.46762348131E+03  0.99366841548E+03  0.91984577583E+02 0.  0.
         23    2    4    4    0    0 -0.19422930394E+02  0.33162104337E+03 -0.22872452368E+03  0.41304302011E+03  0.89105903832E+02 0.  0.
          4    1    3    3  502    0 -0.58184745794E+03 -0.79420720329E+02  0.30096012977E+03  0.65987204429E+03  0.00000000000E+00 0. -1.
         -3    1    3    3    0  502 -0.23900640801E+03 -0.19436617394E+02  0.17937391315E+03  0.29946092547E+03  0.00000000000E+00 0.  1.
         13    1    5    5    0    0  0.87332992112E+02 -0.34169713152E+02 -0.21425238024E+02  0.96195954345E+02  0.00000000000E+00 0.  1.
        -13    1    5    5    0    0  0.75294380424E+03 -0.19859399250E+03 -0.44619824328E+03  0.89747246114E+03  0.00000000000E+00 0. -1.
          4    1    6    6  503    0 -0.34362680100E+02  0.17286416212E+03 -0.74961680834E+02  0.19152562733E+03  0.00000000000E+00 0. -1.
         -4    1    6    6    0  503  0.14939749707E+02  0.15875688125E+03 -0.15376284285E+03  0.22151739278E+03  0.00000000000E+00 0.  1.
<mgrwt>
<rscale>  0 0.23561630E+04</rscale>
<asrwt>0</asrwt>
<pdfrwt beam="1">  1        2 0.16538696E+00 0.23561630E+04</pdfrwt>
<pdfrwt beam="2">  1       -1 0.19861987E+00 0.23561630E+04</pdfrwt>
<totfact> 0.35739818E+00</totfact>
</mgrwt>
</event>
<event>
12    7  0.1675873E-007  0.1204566E+04  0.7818608E-02  0.9108869E-01
         -1   -1    0    0    0  501 -0.00000000000E+00  0.00000000000E+00  0.24796487953E+03  0.24796487953E+03  0.00000000000E+00 0.  1.
          2   -1    0    0  501    0  0.00000000000E+00 -0.00000000000E+00 -0.14628877971E+04  0.14628877971E+04  0.00000000000E+00 0. -1.
         24    2    1    2    0    0 -0.15333453957E+03 -0.82144441719E+02  0.64242815662E+01  0.18895837125E+03  0.73517374414E+02 0.  0.
        254    2    1    2    0    0  0.15333453957E+03  0.82144441719E+02 -0.12213471991E+04  0.15218943053E+04  0.89118690833E+03 0.  0.
         23    2    4    4    0    0 -0.18220212542E+02  0.43517512926E+02 -0.13049996810E+04  0.13089882536E+04  0.90555675903E+02 0.  0.
         23    2    4    4    0    0  0.17155475211E+03  0.38626928793E+02  0.83652481949E+02  0.21290605176E+03  0.86070764724E+02 0.  0.
          4    1    3    3  502    0 -0.23029731337E+02  0.74777554971E+01 -0.16293300185E+02  0.29184875940E+02  0.00000000000E+00 0. -1.
         -3    1    3    3    0  502 -0.13030480823E+03 -0.89622197216E+02  0.22717581751E+02  0.15977349531E+03  0.00000000000E+00 0.  1.
         13    1    5    5    0    0 -0.13678508350E+02 -0.65342037344E+01 -0.36891715135E+02  0.39884784752E+02  0.00000000000E+00 0.  1.
        -13    1    5    5    0    0 -0.45417041921E+01  0.50051716660E+02 -0.12681079659E+04  0.12691034688E+04  0.00000000000E+00 0. -1.
          4    1    6    6  503    0  0.13130525438E+03  0.99332321322E+01  0.94774002725E+02  0.16224010146E+03  0.00000000000E+00 0. -1.
         -4    1    6    6    0  503  0.40249497727E+02  0.28693696661E+02 -0.11121520777E+02  0.50665950299E+02  0.00000000000E+00 0.  1.
<mgrwt>
<rscale>  0 0.12045660E+04</rscale>
<asrwt>0</asrwt>
<pdfrwt beam="1">  1        2 0.22505965E+00 0.12045660E+04</pdfrwt>
<pdfrwt beam="2">  1       -1 0.38148444E-01 0.12045660E+04</pdfrwt>
<totfact> 0.99411868E+01</totfact>
</mgrwt>
</event>
<event>
12    7  0.1675873E-007  0.4306079E+04  0.7818608E-02  0.7945495E-01
          2   -1    0    0  501    0  0.00000000000E+00  0.00000000000E+00  0.43304815250E+04  0.43304815250E+04  0.00000000000E+00 0. -1.
         -1   -1    0    0    0  501 -0.00000000000E+00 -0.00000000000E+00 -0.10704533024E+04  0.10704533024E+04  0.00000000000E+00 0.  1.
         24    2    1    2    0    0 -0.13176915931E+04 -0.86478560704E+03  0.32191504733E+04  0.35851858743E+04  0.80390937503E+02 0.  0.
        254    2    1    2    0    0  0.13176915931E+04  0.86478560704E+03  0.40877749298E+02  0.18157489532E+04  0.90061533959E+03 0.  0.
         23    2    4    4    0    0  0.62797300911E+03  0.90518817698E+03  0.13020334997E+03  0.11130258102E+04  0.90320573152E+02 0.  0.
         23    2    4    4    0    0  0.68971858397E+03 -0.40402569934E+02 -0.89325600675E+02  0.70272314296E+03  0.92177328976E+02 0.  0.
          2    1    3    3  502    0 -0.10021031946E+04 -0.68874158277E+03  0.24316597242E+04  0.27187395599E+04  0.00000000000E+00 0. -1.
         -1    1    3    3    0  502 -0.31558839846E+03 -0.17604402427E+03  0.78749074911E+03  0.86644631435E+03  0.00000000000E+00 0.  1.
         13    1    5    5    0    0  0.10897426454E+02  0.21837539146E+02  0.16597222037E+02  0.29514399852E+02  0.00000000000E+00 0.  1.
        -13    1    5    5    0    0  0.61707558265E+03  0.88335063783E+03  0.11360612794E+03  0.10835114104E+04  0.00000000000E+00 0. -1.
          2    1    6    6  503    0  0.66622684150E+03 -0.26762095010E+02 -0.72320529368E+02  0.67067478932E+03  0.00000000000E+00 0. -1.
         -2    1    6    6    0  503  0.23491742473E+02 -0.13640474924E+02 -0.17005071307E+02  0.32048353636E+02  0.00000000000E+00 0.  1.
<mgrwt>
<rscale>  0 0.43060786E+04</rscale>
<asrwt>0</asrwt>
<pdfrwt beam="1">  1        2 0.66622791E+00 0.43060786E+04</pdfrwt>
<pdfrwt beam="2">  1       -1 0.16468513E+00 0.43060786E+04</pdfrwt>
<totfact> 0.41584082E-02</totfact>
</mgrwt>
</event>
<event>
12    7  0.1675873E-007  0.1689007E+04  0.7818608E-02  0.8767659E-01
         -1   -1    0    0    0  501 -0.00000000000E+00  0.00000000000E+00  0.32711196716E+03  0.32711196716E+03  0.00000000000E+00 0.  1.
          2   -1    0    0  501    0  0.00000000000E+00 -0.00000000000E+00 -0.21802497462E+04  0.21802497462E+04  0.00000000000E+00 0. -1.
         24    2    1    2    0    0  0.26488089799E+03  0.36139718302E+03 -0.72846023103E+02  0.46099262244E+03  0.80236156747E+02 0.  0.
        254    2    1    2    0    0 -0.26488089799E+03 -0.36139718302E+03 -0.17802917559E+04  0.20463690909E+04  0.90411166676E+03 0.  0.
         23    2    4    4    0    0 -0.50825681998E+03 -0.40008641642E+03 -0.15995843890E+04  0.17277876421E+04  0.90475318403E+02 0.  0.
         23    2    4    4    0    0  0.24337592199E+03  0.38689233403E+02 -0.18070736693E+03  0.31858144873E+03  0.90057153112E+02 0.  0.
          4    1    3    3  502    0 -0.21717154956E+01  0.21857437815E+02 -0.11146144588E+02  0.24631290572E+02  0.00000000000E+00 0. -1.
         -3    1    3    3    0  502  0.26705261349E+03  0.33953974521E+03 -0.61699878515E+02  0.43636133187E+03  0.00000000000E+00 0.  1.
         13    1    5    5    0    0 -0.30723901099E+03 -0.21591133598E+03 -0.10299727017E+04  0.10962925162E+04  0.00000000000E+00 0. -1.
        -13    1    5    5    0    0 -0.20101780899E+03 -0.18417508044E+03 -0.56961168731E+03  0.63149512596E+03  0.00000000000E+00 0.  1.
          3    1    6    6  503    0  0.18033146516E+02  0.13997526365E+02 -0.54586490086E+02  0.59167643332E+02  0.00000000000E+00 0.  1.
         -3    1    6    6    0  503  0.22534277548E+03  0.24691707038E+02 -0.12612087684E+03  0.25941380540E+03  0.00000000000E+00 0. -1.
<mgrwt>
<rscale>  0 0.16890066E+04</rscale>
<asrwt>0</asrwt>
<pdfrwt beam="1">  1        2 0.33542304E+00 0.16890066E+04</pdfrwt>
<pdfrwt beam="2">  1       -1 0.50324917E-01 0.16890066E+04</pdfrwt>
<totfact> 0.22791029E+01</totfact>
</mgrwt>
</event>
<event>
12    7  0.1675873E-007  0.1535600E+04  0.7818608E-02  0.8861119E-01
         -1   -1    0    0    0  501 -0.00000000000E+00  0.00000000000E+00  0.21465261916E+03  0.21465261916E+03  0.00000000000E+00 0.  1.
          2   -1    0    0  501    0  0.00000000000E+00 -0.00000000000E+00 -0.27463757401E+04  0.27463757401E+04  0.00000000000E+00 0. -1.
         24    2    1    2    0    0  0.23625885738E+03 -0.32445052025E+03 -0.13976861767E+04  0.14563160129E+04  0.79014511915E+02 0.  0.
        254    2    1    2    0    0 -0.23625885738E+03  0.32445052025E+03 -0.11340369443E+04  0.15047123464E+04  0.90389881438E+03 0.  0.
         23    2    4    4    0    0  0.27784396932E+03 -0.34543106842E+01 -0.11552382422E+03  0.31432550578E+03  0.90805099355E+02 0.  0.
         23    2    4    4    0    0 -0.51410282671E+03  0.32790483094E+03 -0.10185131200E+04  0.11903868406E+04  0.88479150160E+02 0.  0.
          4    1    3    3  502    0  0.73821179219E+02 -0.15943956128E+03 -0.67165645340E+03  0.69425710770E+03  0.00000000000E+00 0. -1.
         -3    1    3    3    0  502  0.16243767816E+03 -0.16501095898E+03 -0.72602972333E+03  0.76205890522E+03  0.00000000000E+00 0.  1.
         13    1    5    5    0    0  0.20429821191E+02  0.14432826676E+02 -0.36898053714E+02  0.44577465693E+02  0.00000000000E+00 0. -1.
        -13    1    5    5    0    0  0.25741414813E+03 -0.17887137361E+02 -0.78625770501E+02  0.26974804008E+03  0.00000000000E+00 0.  1.
          2    1    6    6  503    0 -0.19777390219E+03  0.17553781958E+03 -0.46385836358E+03  0.53394065583E+03  0.00000000000E+00 0. -1.
         -2    1    6    6    0  503 -0.31632892452E+03  0.15236701136E+03 -0.55465475646E+03  0.65644618477E+03  0.00000000000E+00 0.  1.
<mgrwt>
<rscale>  0 0.15355999E+04</rscale>
<asrwt>0</asrwt>
<pdfrwt beam="1">  1        2 0.42251933E+00 0.15355999E+04</pdfrwt>
<pdfrwt beam="2">  1       -1 0.33023481E-01 0.15355999E+04</pdfrwt>
<totfact> 0.23638943E+01</totfact>
</mgrwt>
</event>
<event>
12    7  0.1675873E-007  0.1484141E+04  0.7818608E-02  0.8895068E-01
          2   -1    0    0  501    0  0.00000000000E+00  0.00000000000E+00  0.32356994607E+04  0.32356994607E+04  0.00000000000E+00 0. -1.
         -1   -1    0    0    0  501 -0.00000000000E+00 -0.00000000000E+00 -0.17018541518E+03  0.17018541518E+03  0.00000000000E+00 0.  1.
         24    2    1    2    0    0  0.18775475910E+03  0.22399712456E+03  0.17137822309E+04  0.17405479026E+04  0.83850490909E+02 0.  0.
        254    2    1    2    0    0 -0.18775475910E+03 -0.22399712456E+03  0.13517318146E+04  0.16653369732E+04  0.92776170139E+03 0.  0.
         23    2    4    4    0    0 -0.28445128057E+03  0.20378546902E+00  0.13721603881E+04  0.14044601525E+04  0.93656909127E+02 0.  0.
         23    2    4    4    0    0  0.96696521463E+02 -0.22420091003E+03 -0.20428573543E+02  0.26087682078E+03  0.89571891136E+02 0.  0.
          2    1    3    3  502    0  0.67637425412E+02  0.14511295124E+03  0.93914333076E+03  0.95269238774E+03  0.00000000000E+00 0. -1.
         -1    1    3    3    0  502  0.12011733369E+03  0.78884173320E+02  0.77463890016E+03  0.78785551486E+03  0.00000000000E+00 0.  1.
         13    1    5    5    0    0 -0.13612836961E+03  0.19976858384E+02  0.46096279715E+03  0.48105790529E+03  0.00000000000E+00 0.  1.
        -13    1    5    5    0    0 -0.14832291096E+03 -0.19773072915E+02  0.91119759095E+03  0.92340224717E+03  0.00000000000E+00 0. -1.
          3    1    6    6  503    0  0.71187852497E+01 -0.61749749511E+02 -0.40643470190E+02  0.74267087846E+02  0.00000000000E+00 0. -1.
         -3    1    6    6    0  503  0.89577736213E+02 -0.16245116052E+03  0.20214896646E+02  0.18660973293E+03  0.00000000000E+00 0.  1.
<mgrwt>
<rscale>  0 0.14841413E+04</rscale>
<asrwt>0</asrwt>
<pdfrwt beam="1">  1        2 0.49779987E+00 0.14841413E+04</pdfrwt>
<pdfrwt beam="2">  1       -1 0.26182374E-01 0.14841413E+04</pdfrwt>
<totfact> 0.17694919E+01</totfact>
</mgrwt>
</event>
<event>
12    7  0.1675873E-007  0.1290244E+04  0.7818608E-02  0.9037338E-01
         -1   -1    0    0    0  501 -0.00000000000E+00  0.00000000000E+00  0.27764664064E+03  0.27764664064E+03  0.00000000000E+00 0.  1.
          2   -1    0    0  501    0  0.00000000000E+00 -0.00000000000E+00 -0.14989638385E+04  0.14989638385E+04  0.00000000000E+00 0. -1.
         24    2    1    2    0    0  0.20561631445E+03 -0.11327619938E+02  0.31575205852E+02  0.22329486067E+03  0.80356813257E+02 0.  0.
        254    2    1    2    0    0 -0.20561631445E+03  0.11327619938E+02 -0.12528924037E+04  0.15533156184E+04  0.89478693080E+03 0.  0.
         23    2    4    4    0    0 -0.46932659337E+03 -0.23163459388E+03 -0.88769541874E+03  0.10341574023E+04  0.86927210584E+02 0.  0.
         23    2    4    4    0    0  0.26371027892E+03  0.24296221382E+03 -0.36519698495E+03  0.51915821615E+03  0.87078510698E+02 0.  0.
          4    1    3    3  502    0  0.20148788119E+03 -0.28404737468E+02  0.29313028982E+02  0.20558076040E+03  0.00000000000E+00 0. -1.
         -3    1    3    3    0  502  0.41284332569E+01  0.17077117530E+02  0.22621768695E+01  0.17714100273E+02  0.00000000000E+00 0.  1.
         13    1    5    5    0    0 -0.19817589637E+03 -0.11863246778E+03 -0.46773915361E+03  0.52165818707E+03  0.00000000000E+00 0. -1.
        -13    1    5    5    0    0 -0.27115069699E+03 -0.11300212610E+03 -0.41995626512E+03  0.51249921522E+03  0.00000000000E+00 0.  1.
          1    1    6    6  503    0  0.19950016666E+03  0.12877053957E+03 -0.24861322042E+03  0.34378874579E+03  0.00000000000E+00 0.  1.
         -1    1    6    6    0  503  0.64210112258E+02  0.11419167425E+03 -0.11658376452E+03  0.17536947036E+03  0.00000000000E+00 0. -1.
<mgrwt>
<rscale>  0 0.12902438E+04</rscale>
<asrwt>0</asrwt>
<pdfrwt beam="1">  1        2 0.23060983E+00 0.12902438E+04</pdfrwt>
<pdfrwt beam="2">  1       -1 0.42714867E-01 0.12902438E+04</pdfrwt>
<totfact> 0.76638526E+01</totfact>
</mgrwt>
</event>
<event>
12    7  0.1675873E-007  0.1622064E+04  0.7818608E-02  0.8807107E-01
         -1   -1    0    0    0  501 -0.00000000000E+00  0.00000000000E+00  0.13995022817E+04  0.13995022817E+04  0.00000000000E+00 0.  1.
          2   -1    0    0  501    0  0.00000000000E+00 -0.00000000000E+00 -0.47000503064E+03  0.47000503064E+03  0.00000000000E+00 0. -1.
         24    2    1    2    0    0 -0.52497464216E+03 -0.13292553183E+03  0.19465070019E+03  0.58115601765E+03  0.81153249158E+02 0.  0.
        254    2    1    2    0    0  0.52497464216E+03  0.13292553183E+03  0.73484655089E+03  0.12883512947E+04  0.90916556978E+03 0.  0.
         23    2    4    4    0    0  0.50485496576E+03 -0.27998989197E+03  0.61750136066E+03  0.85019135128E+03  0.90799379492E+02 0.  0.
         23    2    4    4    0    0  0.20119676397E+02  0.41291542380E+03  0.11734519023E+03  0.43815994342E+03  0.85500255875E+02 0.  0.
          2    1    3    3  502    0 -0.11499660607E+03 -0.52065377761E+02  0.18142072547E+02  0.12753100708E+03  0.00000000000E+00 0. -1.
         -1    1    3    3    0  502 -0.40997803608E+03 -0.80860154073E+02  0.17650862764E+03  0.45362501058E+03  0.00000000000E+00 0.  1.
         13    1    5    5    0    0  0.13664902368E+01  0.54463000582E+01  0.64292341749E+01  0.85360723970E+01  0.00000000000E+00 0.  1.
        -13    1    5    5    0    0  0.50348847552E+03 -0.28543619203E+03  0.61107212648E+03  0.84165527888E+03  0.00000000000E+00 0. -1.
          3    1    6    6  503    0  0.91871962462E+01  0.40180718976E+03  0.12485570048E+03  0.42085908362E+03  0.00000000000E+00 0. -1.
         -3    1    6    6    0  503  0.10932480150E+02  0.11108234041E+02 -0.75105102497E+01  0.17300859804E+02  0.00000000000E+00 0.  1.
<mgrwt>
<rscale>  0 0.16220643E+04</rscale>
<asrwt>0</asrwt>
<pdfrwt beam="1">  1        2 0.72308467E-01 0.16220643E+04</pdfrwt>
<pdfrwt beam="2">  1       -1 0.21530804E+00 0.16220643E+04</pdfrwt>
<totfact> 0.85679953E+00</totfact>
</mgrwt>
</event>
<event>
12    7  0.1675873E-007  0.2254720E+04  0.7818608E-02  0.8495992E-01
          2   -1    0    0  501    0  0.00000000000E+00  0.00000000000E+00  0.17262095422E+04  0.17262095422E+04  0.00000000000E+00 0. -1.
         -1   -1    0    0    0  501 -0.00000000000E+00 -0.00000000000E+00 -0.73626069474E+03  0.73626069474E+03  0.00000000000E+00 0.  1.
         24    2    1    2    0    0 -0.80916315893E+03 -0.48174428900E+03  0.62283184481E+03  0.11315780156E+04  0.75675099279E+02 0.  0.
        254    2    1    2    0    0  0.80916315893E+03  0.48174428900E+03  0.36711700262E+03  0.13308922213E+04  0.86583868790E+03 0.  0.
         23    2    4    4    0    0  0.76301737534E+03  0.43920615712E+03  0.60201965869E+03  0.10706596853E+04  0.93738619077E+02 0.  0.
         23    2    4    4    0    0  0.46145783598E+02  0.42538131889E+02 -0.23490265606E+03  0.26023253608E+03  0.92751221010E+02 0.  0.
          2    1    3    3  502    0 -0.16014391326E+03 -0.13131492987E+03  0.13093429196E+03  0.24501729035E+03  0.00000000000E+00 0. -1.
         -1    1    3    3    0  502 -0.64901924568E+03 -0.35042935913E+03  0.49189755285E+03  0.88656072522E+03  0.00000000000E+00 0.  1.
         13    1    5    5    0    0  0.38148456690E+03  0.21362724172E+03  0.35531113336E+03  0.56339424446E+03  0.00000000000E+00 0.  1.
        -13    1    5    5    0    0  0.38153280843E+03  0.22557891539E+03  0.24670852532E+03  0.50726544082E+03  0.00000000000E+00 0. -1.
          1    1    6    6  503    0  0.49542557200E+02  0.60291712871E+02 -0.11501086703E+03  0.13898580917E+03  0.00000000000E+00 0. -1.
         -1    1    6    6    0  503 -0.33967736026E+01 -0.17753580982E+02 -0.11989178904E+03  0.12124672691E+03  0.00000000000E+00 0.  1.
<mgrwt>
<rscale>  0 0.22547197E+04</rscale>
<asrwt>0</asrwt>
<pdfrwt beam="1">  1        2 0.26557070E+00 0.22547197E+04</pdfrwt>
<pdfrwt beam="2">  1       -1 0.11327088E+00 0.22547197E+04</pdfrwt>
<totfact> 0.69936848E+00</totfact>
</mgrwt>
</event>
<event>
12    7  0.1675873E-007  0.3066562E+04  0.7818608E-02  0.8224975E-01
          2   -1    0    0  501    0  0.00000000000E+00  0.00000000000E+00  0.18896888620E+04  0.18896888620E+04  0.00000000000E+00 0. -1.
         -1   -1    0    0    0  501 -0.00000000000E+00 -0.00000000000E+00 -0.12440940973E+04  0.12440940973E+04  0.00000000000E+00 0.  1.
         24    2    1    2    0    0  0.81124879903E+03 -0.42746131735E+03 -0.78867019453E+03  0.12120391865E+04  0.78679871372E+02 0.  0.
        254    2    1    2    0    0 -0.81124879903E+03  0.42746131735E+03  0.14342649592E+04  0.19217437728E+04  0.89170362981E+03 0.  0.
         23    2    4    4    0    0 -0.47289623515E+03  0.63658919822E+03  0.12298715198E+04  0.14660912730E+04  0.89235694714E+02 0.  0.
         23    2    4    4    0    0 -0.33835256387E+03 -0.20912788087E+03  0.20439343945E+03  0.45565249980E+03  0.87324649701E+02 0.  0.
          2    1    3    3  502    0  0.13089213325E+02  0.13963895741E+01 -0.50182554458E+01  0.14087593728E+02  0.00000000000E+00 0. -1.
         -1    1    3    3    0  502  0.79815958570E+03 -0.42885770693E+03 -0.78365193909E+03  0.11979515928E+04  0.00000000000E+00 0.  1.
         13    1    5    5    0    0 -0.22465830063E+03  0.25193999012E+03  0.46337508164E+03  0.57329013331E+03  0.00000000000E+00 0. -1.
        -13    1    5    5    0    0 -0.24823793452E+03  0.38464920810E+03  0.76649643813E+03  0.89280113972E+03  0.00000000000E+00 0.  1.
          1    1    6    6  503    0 -0.21178357270E+03 -0.86288475705E+02  0.91949367049E+02  0.24648056477E+03  0.00000000000E+00 0. -1.
         -1    1    6    6    0  503 -0.12656899117E+03 -0.12283940516E+03  0.11244407240E+03  0.20917193503E+03  0.00000000000E+00 0.  1.
<mgrwt>
<rscale>  0 0.30665621E+04</rscale>
<asrwt>0</asrwt>
<pdfrwt beam="1">  1        2 0.29072136E+00 0.30665621E+04</pdfrwt>
<pdfrwt beam="2">  1       -1 0.19139909E+00 0.30665621E+04</pdfrwt>
<totfact> 0.12875120E+00</totfact>
</mgrwt>
</event>
<event>
12    7  0.1675873E-007  0.1382384E+04  0.7818608E-02  0.8966669E-01
          2   -1    0    0  501    0  0.00000000000E+00  0.00000000000E+00  0.14720158109E+04  0.14720158109E+04  0.00000000000E+00 0. -1.
         -1   -1    0    0    0  501 -0.00000000000E+00 -0.00000000000E+00 -0.32455255009E+03  0.32455255009E+03  0.00000000000E+00 0.  1.
         24    2    1    2    0    0  0.21081640316E+03 -0.19645263393E+03  0.69745333389E+03  0.75886228115E+03  0.79960087366E+02 0.  0.
        254    2    1    2    0    0 -0.21081640316E+03  0.19645263393E+03  0.45000992687E+03  0.10377060798E+04  0.88954357990E+03 0.  0.
         23    2    4    4    0    0 -0.39843168080E+03  0.45040755574E+03  0.31292429859E+03  0.68375103882E+03  0.89325785247E+02 0.  0.
         23    2    4    4    0    0  0.18761527764E+03 -0.25395492181E+03  0.13708562828E+03  0.35395504097E+03  0.82456696723E+02 0.  0.
          2    1    3    3  502    0  0.17538990587E+03 -0.17694346665E+03  0.65222433914E+03  0.69818851182E+03  0.00000000000E+00 0. -1.
         -1    1    3    3    0  502  0.35426497290E+02 -0.19509167279E+02  0.45228994757E+02  0.60673769332E+02  0.00000000000E+00 0.  1.
         13    1    5    5    0    0 -0.93059043116E+02  0.16477906946E+03  0.83928513959E+02  0.20701720386E+03  0.00000000000E+00 0. -1.
        -13    1    5    5    0    0 -0.30537263768E+03  0.28562848628E+03  0.22899578464E+03  0.47673383496E+03  0.00000000000E+00 0.  1.
          4    1    6    6  503    0  0.55362522695E+02 -0.41208499766E+02  0.13231840705E+01  0.69028256448E+02  0.00000000000E+00 0. -1.
         -4    1    6    6    0  503  0.13225275495E+03 -0.21274642204E+03  0.13576244421E+03  0.28492678452E+03  0.00000000000E+00 0.  1.
<mgrwt>
<rscale>  0 0.13823842E+04</rscale>
<asrwt>0</asrwt>
<pdfrwt beam="1">  1        2 0.22646397E+00 0.13823842E+04</pdfrwt>
<pdfrwt beam="2">  1       -1 0.49931162E-01 0.13823842E+04</pdfrwt>
<totfact> 0.58830351E+01</totfact>
</mgrwt>
</event>
<event>
12    7  0.1675873E-007  0.1691428E+04  0.7818608E-02  0.8766268E-01
         -1   -1    0    0    0  501 -0.00000000000E+00  0.00000000000E+00  0.93973385063E+03  0.93973385063E+03  0.00000000000E+00 0.  1.
          2   -1    0    0  501    0  0.00000000000E+00 -0.00000000000E+00 -0.76110093205E+03  0.76110093205E+03  0.00000000000E+00 0. -1.
         24    2    1    2    0    0 -0.28077951896E+03 -0.98907824522E+02 -0.45298142139E+03  0.54786695511E+03  0.79662640893E+02 0.  0.
        254    2    1    2    0    0  0.28077951896E+03  0.98907824522E+02  0.63161433997E+03  0.11529678276E+04  0.91748473609E+03 0.  0.
         23    2    4    4    0    0 -0.21102541397E+03 -0.17742776705E+03 -0.14120412754E+02  0.29078193841E+03  0.91336804124E+02 0.  0.
         23    2    4    4    0    0  0.49180493293E+03  0.27633559157E+03  0.64573475272E+03  0.86218588917E+03  0.90319905840E+02 0.  0.
          4    1    3    3  502    0 -0.17591528403E+03 -0.51245355649E+02 -0.34159056958E+03  0.38762919247E+03  0.00000000000E+00 0. -1.
         -3    1    3    3    0  502 -0.10486423493E+03 -0.47662468873E+02 -0.11139085181E+03  0.16023776263E+03  0.00000000000E+00 0.  1.
         13    1    5    5    0    0 -0.20685361413E+03 -0.16520036696E+03  0.83556418854E+01  0.26485731191E+03  0.00000000000E+00 0. -1.
        -13    1    5    5    0    0 -0.41717998396E+01 -0.12227400089E+02 -0.22476054639E+02  0.25924626496E+02  0.00000000000E+00 0.  1.
          1    1    6    6  503    0  0.36092653552E+03  0.18682294067E+03  0.40371103421E+03  0.57284672850E+03  0.00000000000E+00 0. -1.
         -1    1    6    6    0  503  0.13087839741E+03  0.89512650900E+02  0.24202371851E+03  0.28933916067E+03  0.00000000000E+00 0.  1.
<mgrwt>
<rscale>  0 0.16914282E+04</rscale>
<asrwt>0</asrwt>
<pdfrwt beam="1">  1        2 0.11709245E+00 0.16914282E+04</pdfrwt>
<pdfrwt beam="2">  1       -1 0.14457444E+00 0.16914282E+04</pdfrwt>
<totfact> 0.15402771E+01</totfact>
</mgrwt>
</event>
<event>
12    7  0.1675873E-007  0.1647330E+04  0.7818608E-02  0.8791988E-01
          2   -1    0    0  501    0  0.00000000000E+00  0.00000000000E+00  0.20045639837E+04  0.20045639837E+04  0.00000000000E+00 0. -1.
         -1   -1    0    0    0  501 -0.00000000000E+00 -0.00000000000E+00 -0.33843952304E+03  0.33843952304E+03  0.00000000000E+00 0.  1.
         24    2    1    2    0    0 -0.19142049203E+03  0.52623238017E+03  0.50874114524E+03  0.76092053375E+03  0.81364507686E+02 0.  0.
        254    2    1    2    0    0  0.19142049203E+03 -0.52623238017E+03  0.11573833154E+04  0.15820829730E+04  0.92189374220E+03 0.  0.
         23    2    4    4    0    0  0.70006838355E+02  0.25216883057E+03  0.38907397569E+03  0.47790275039E+03  0.92316866012E+02 0.  0.
         23    2    4    4    0    0  0.12141365367E+03 -0.77840121074E+03  0.76830933969E+03  0.11041802226E+04  0.90912057950E+02 0.  0.
          4    1    3    3  502    0 -0.88639585251E+02  0.22866091014E+03  0.27726204599E+03  0.37015811493E+03  0.00000000000E+00 0. -1.
         -3    1    3    3    0  502 -0.10278090678E+03  0.29757147003E+03  0.23147909926E+03  0.39076241882E+03  0.00000000000E+00 0.  1.
         13    1    5    5    0    0 -0.12677117713E+02  0.95546139591E+02  0.17753835156E+03  0.20201396085E+03  0.00000000000E+00 0. -1.
        -13    1    5    5    0    0  0.82683956069E+02  0.15662269097E+03  0.21153562412E+03  0.27588878954E+03  0.00000000000E+00 0.  1.
          4    1    6    6  503    0  0.12248241877E+03 -0.51241607711E+03  0.49869172481E+03  0.72544166918E+03  0.00000000000E+00 0. -1.
         -4    1    6    6    0  503 -0.10687650951E+01 -0.26598513362E+03  0.26961761488E+03  0.37873855339E+03  0.00000000000E+00 0.  1.
<mgrwt>
<rscale>  0 0.16473296E+04</rscale>
<asrwt>0</asrwt>
<pdfrwt beam="1">  1        2 0.30839445E+00 0.16473296E+04</pdfrwt>
<pdfrwt beam="2">  1       -1 0.52067620E-01 0.16473296E+04</pdfrwt>
<totfact> 0.26853373E+01</totfact>
</mgrwt>
</event>
<event>
12    7  0.1675873E-007  0.1927401E+04  0.7818608E-02  0.8641336E-01
          2   -1    0    0  501    0  0.00000000000E+00  0.00000000000E+00  0.26803192381E+04  0.26803192381E+04  0.00000000000E+00 0. -1.
         -1   -1    0    0    0  501 -0.00000000000E+00 -0.00000000000E+00 -0.34649550188E+03  0.34649550188E+03  0.00000000000E+00 0.  1.
         24    2    1    2    0    0  0.43222136207E+03 -0.60916528399E+03  0.77208568022E+03  0.10771787882E+04  0.79373768664E+02 0.  0.
        254    2    1    2    0    0 -0.43222136207E+03  0.60916528399E+03  0.15617380560E+04  0.19496359518E+04  0.89674798007E+03 0.  0.
         23    2    4    4    0    0 -0.51081745395E+03  0.78170740458E+03  0.11284520909E+04  0.14674668877E+04  0.89744122270E+02 0.  0.
         23    2    4    4    0    0  0.78596091877E+02 -0.17254212059E+03  0.43328596515E+03  0.48216906406E+03  0.93819772489E+02 0.  0.
          4    1    3    3  502    0  0.27896511656E+03 -0.44294901589E+03  0.57052321156E+03  0.77428812587E+03  0.00000000000E+00 0. -1.
         -3    1    3    3    0  502  0.15325624551E+03 -0.16621626810E+03  0.20156246866E+03  0.30289066235E+03  0.00000000000E+00 0.  1.
         13    1    5    5    0    0 -0.71441331171E+02  0.16662966550E+03  0.19327041853E+03  0.26499578092E+03  0.00000000000E+00 0.  1.
        -13    1    5    5    0    0 -0.43937612278E+03  0.61507773908E+03  0.93518167232E+03  0.12024711068E+04  0.00000000000E+00 0. -1.
          2    1    6    6  503    0  0.58203740598E+02 -0.66802335481E+02  0.10898683969E+03  0.14045767573E+03  0.00000000000E+00 0.  1.
         -2    1    6    6    0  503  0.20392351279E+02 -0.10573978511E+03  0.32429912546E+03  0.34171138834E+03  0.00000000000E+00 0. -1.
<mgrwt>
<rscale>  0 0.19274009E+04</rscale>
<asrwt>0</asrwt>
<pdfrwt beam="1">  1        2 0.41235679E+00 0.19274009E+04</pdfrwt>
<pdfrwt beam="2">  1       -1 0.53307002E-01 0.19274009E+04</pdfrwt>
<totfact> 0.10316187E+01</totfact>
</mgrwt>
</event>
<event>
12    7  0.1675873E-007  0.2206855E+04  0.7818608E-02  0.8515580E-01
          2   -1    0    0  501    0  0.00000000000E+00  0.00000000000E+00  0.11867535635E+04  0.11867535635E+04  0.00000000000E+00 0. -1.
         -1   -1    0    0    0  501 -0.00000000000E+00 -0.00000000000E+00 -0.10259523956E+04  0.10259523956E+04  0.00000000000E+00 0.  1.
         24    2    1    2    0    0  0.34046233961E+03  0.54039648819E+03 -0.59223725075E+03  0.87464092057E+03  0.79428015362E+02 0.  0.
        254    2    1    2    0    0 -0.34046233961E+03 -0.54039648819E+03  0.75303841862E+03  0.13380650385E+04  0.90299956718E+03 0.  0.
         23    2    4    4    0    0  0.29721596753E+03 -0.16386235903E+03  0.18605517131E+03  0.40056770590E+03  0.10319765585E+03 0.  0.
         23    2    4    4    0    0 -0.63767830714E+03 -0.37653412916E+03  0.56698324731E+03  0.93749733265E+03  0.94971954696E+02 0.  0.
          2    1    3    3  502    0  0.97602574816E+02  0.22489686877E+03 -0.21249648079E+03  0.32443738770E+03  0.00000000000E+00 0. -1.
         -1    1    3    3    0  502  0.24285976480E+03  0.31549961942E+03 -0.37974076996E+03  0.55020353287E+03  0.00000000000E+00 0.  1.
         13    1    5    5    0    0  0.20649655594E+03 -0.76704855818E+02  0.74827018293E+02  0.23264467582E+03  0.00000000000E+00 0.  1.
        -13    1    5    5    0    0  0.90719411587E+02 -0.87157503213E+02  0.11122815302E+03  0.16792303007E+03  0.00000000000E+00 0. -1.
          3    1    6    6  503    0 -0.74112801558E+02 -0.13139924169E+02  0.44789419723E+02  0.87586854500E+02  0.00000000000E+00 0. -1.
         -3    1    6    6    0  503 -0.56356550559E+03 -0.36339420499E+03  0.52219382758E+03  0.84991047815E+03  0.00000000000E+00 0.  1.
<mgrwt>
<rscale>  0 0.22068554E+04</rscale>
<asrwt>0</asrwt>
<pdfrwt beam="1">  1        2 0.18257747E+00 0.22068554E+04</pdfrwt>
<pdfrwt beam="2">  1       -1 0.15783883E+00 0.22068554E+04</pdfrwt>
<totfact> 0.60979431E+00</totfact>
</mgrwt>
</event>
<event>
12    7  0.1675873E-007  0.1830641E+04  0.7818608E-02  0.8690173E-01
          2   -1    0    0  501    0  0.00000000000E+00  0.00000000000E+00  0.11791288996E+04  0.11791288996E+04  0.00000000000E+00 0. -1.
         -1   -1    0    0    0  501 -0.00000000000E+00 -0.00000000000E+00 -0.71053440475E+03  0.71053440475E+03  0.00000000000E+00 0.  1.
         24    2    1    2    0    0  0.67818610960E+02  0.44015015086E+03  0.72782303544E+03  0.85715283727E+03  0.81566514085E+02 0.  0.
        254    2    1    2    0    0 -0.67818610960E+02 -0.44015015086E+03 -0.25922854061E+03  0.10325104671E+04  0.89473287021E+03 0.  0.
         23    2    4    4    0    0 -0.33855610880E+03  0.11942611851E+03 -0.10511241430E+03  0.38536956482E+03  0.92618816965E+02 0.  0.
         23    2    4    4    0    0  0.27073749784E+03 -0.55957626937E+03 -0.15411612631E+03  0.64714090225E+03  0.92817956202E+02 0.  0.
          2    1    3    3  502    0  0.37422890134E+02  0.39726769209E+03  0.62190937871E+03  0.73891363989E+03  0.00000000000E+00 0. -1.
         -1    1    3    3    0  502  0.30395720826E+02  0.42882458774E+02  0.10591365673E+03  0.11823919738E+03  0.00000000000E+00 0.  1.
         13    1    5    5    0    0 -0.11221387056E+03  0.77909042475E+02 -0.12025020459E+02  0.13713632911E+03  0.00000000000E+00 0.  1.
        -13    1    5    5    0    0 -0.22634223825E+03  0.41517076036E+02 -0.93087393842E+02  0.24823323571E+03  0.00000000000E+00 0. -1.
          3    1    6    6  503    0  0.72835050176E+02 -0.78182626592E+02 -0.11496917445E+02  0.10746928280E+03  0.00000000000E+00 0. -1.
         -3    1    6    6    0  503  0.19790244767E+03 -0.48139364278E+03 -0.14261920886E+03  0.53967161945E+03  0.00000000000E+00 0.  1.
<mgrwt>
<rscale>  0 0.18306410E+04</rscale>
<asrwt>0</asrwt>
<pdfrwt beam="1">  1        2 0.18140445E+00 0.18306410E+04</pdfrwt>
<pdfrwt beam="2">  1       -1 0.10931299E+00 0.18306410E+04</pdfrwt>
<totfact> 0.16218190E+01</totfact>
</mgrwt>
</event>
<event>
12    7  0.1675873E-007  0.1803476E+04  0.7818608E-02  0.8704453E-01
          2   -1    0    0  501    0  0.00000000000E+00  0.00000000000E+00  0.11106927113E+04  0.11106927113E+04  0.00000000000E+00 0. -1.
         -1   -1    0    0    0  501 -0.00000000000E+00 -0.00000000000E+00 -0.73209410070E+03  0.73209410070E+03  0.00000000000E+00 0.  1.
         24    2    1    2    0    0 -0.66007747217E+03 -0.32464368989E+01  0.14200506101E+01  0.66526255781E+03  0.82821770462E+02 0.  0.
        254    2    1    2    0    0  0.66007747217E+03  0.32464368989E+01  0.37717855998E+03  0.11775242542E+04  0.89921459865E+03 0.  0.
         23    2    4    4    0    0  0.78295590750E+03  0.24265747559E+03  0.34024485612E+03  0.89218270069E+03  0.91218450700E+02 0.  0.
         23    2    4    4    0    0 -0.12287843533E+03 -0.23941103869E+03  0.36933703858E+02  0.28534155347E+03  0.87401077469E+02 0.  0.
          4    1    3    3  502    0 -0.47664510328E+03 -0.25546508503E+02 -0.28011615822E+02  0.47815042528E+03  0.00000000000E+00 0. -1.
         -3    1    3    3    0  502 -0.18343236889E+03  0.22300071604E+02  0.29431666432E+02  0.18711213253E+03  0.00000000000E+00 0.  1.
         13    1    5    5    0    0  0.70207201796E+03  0.23433315733E+03  0.28149962658E+03  0.79187068817E+03  0.00000000000E+00 0.  1.
        -13    1    5    5    0    0  0.80883889547E+02  0.83243182600E+01  0.58745229536E+02  0.10031201252E+03  0.00000000000E+00 0. -1.
          2    1    6    6  503    0  0.11790180139E+02 -0.75893263830E+01 -0.28463459431E+01  0.14307617128E+02  0.00000000000E+00 0. -1.
         -2    1    6    6    0  503 -0.13466861547E+03 -0.23182171231E+03  0.39780049801E+02  0.27103393635E+03  0.00000000000E+00 0.  1.
<mgrwt>
<rscale>  0 0.18034762E+04</rscale>
<asrwt>0</asrwt>
<pdfrwt beam="1">  1        2 0.17087580E+00 0.18034762E+04</pdfrwt>
<pdfrwt beam="2">  1       -1 0.11262986E+00 0.18034762E+04</pdfrwt>
<totfact> 0.16667223E+01</totfact>
</mgrwt>
</event>
<event>
12    7  0.1675873E-007  0.2501207E+04  0.7818608E-02  0.8402556E-01
         -1   -1    0    0    0  501 -0.00000000000E+00  0.00000000000E+00  0.84507668438E+03  0.84507668438E+03  0.00000000000E+00 0.  1.
          2   -1    0    0  501    0  0.00000000000E+00 -0.00000000000E+00 -0.18507305669E+04  0.18507305669E+04  0.00000000000E+00 0. -1.
         24    2    1    2    0    0  0.10108432537E+04  0.39404395351E+03 -0.50223052089E+03  0.11982526629E+04  0.80617785489E+02 0.  0.
        254    2    1    2    0    0 -0.10108432537E+04 -0.39404395351E+03 -0.50342336159E+03  0.14975545883E+04  0.90119916951E+03 0.  0.
         23    2    4    4    0    0  0.34157598356E+02  0.18513556910E+03 -0.66847791480E+02  0.22222708929E+03  0.97336177857E+02 0.  0.
         23    2    4    4    0    0 -0.10450008520E+04 -0.57917952261E+03 -0.43657557011E+03  0.12753274990E+04  0.91576749952E+02 0.  0.
          4    1    3    3  502    0  0.53753264527E+03  0.24062400982E+03 -0.30283188914E+03  0.66222987845E+03  0.00000000000E+00 0. -1.
         -3    1    3    3    0  502  0.47331060841E+03  0.15341994369E+03 -0.19939863175E+03  0.53602278450E+03  0.00000000000E+00 0.  1.
         13    1    5    5    0    0  0.43128713488E+02  0.19304672702E+03 -0.70052840737E+02  0.20984404980E+03  0.00000000000E+00 0. -1.
        -13    1    5    5    0    0 -0.89711151313E+01 -0.79111579236E+01  0.32050492575E+01  0.12383039495E+02  0.00000000000E+00 0.  1.
          1    1    6    6  503    0 -0.97510355162E+03 -0.54264015552E+03 -0.43098421017E+03  0.11962577750E+04  0.00000000000E+00 0. -1.
         -1    1    6    6    0  503 -0.69897300413E+02 -0.36539367091E+02 -0.55913599452E+01  0.79069724032E+02  0.00000000000E+00 0.  1.
<mgrwt>
<rscale>  0 0.25012071E+04</rscale>
<asrwt>0</asrwt>
<pdfrwt beam="1">  1        2 0.28472778E+00 0.25012071E+04</pdfrwt>
<pdfrwt beam="2">  1       -1 0.13001180E+00 0.25012071E+04</pdfrwt>
<totfact> 0.41618540E+00</totfact>
</mgrwt>
</event>
<event>
12    7  0.1675873E-007  0.2260012E+04  0.7818608E-02  0.8493857E-01
         -1   -1    0    0    0  501 -0.00000000000E+00  0.00000000000E+00  0.51121770512E+03  0.51121770512E+03  0.00000000000E+00 0.  1.
          2   -1    0    0  501    0  0.00000000000E+00 -0.00000000000E+00 -0.24977873286E+04  0.24977873286E+04  0.00000000000E+00 0. -1.
         24    2    1    2    0    0  0.27318690330E+03 -0.25453837894E+03 -0.19850880281E+04  0.20214798164E+04  0.79908060384E+02 0.  0.
        254    2    1    2    0    0 -0.27318690330E+03  0.25453837894E+03 -0.14815953196E+01  0.98752521732E+03  0.91421167638E+03 0.  0.
         23    2    4    4    0    0 -0.24382745989E+03 -0.88989151169E+02 -0.37963410760E+03  0.46775031330E+03  0.85424824927E+02 0.  0.
         23    2    4    4    0    0 -0.29359443404E+02  0.34352753010E+03  0.37815251228E+03  0.51977490402E+03  0.91068586518E+02 0.  0.
          4    1    3    3  502    0  0.25975948826E+03 -0.20936933572E+03 -0.17856198604E+04  0.18165210696E+04  0.00000000000E+00 0. -1.
         -3    1    3    3    0  502  0.13427415038E+02 -0.45169043212E+02 -0.19946816776E+03  0.20495874680E+03  0.00000000000E+00 0.  1.
         13    1    5    5    0    0  0.47029677770E+01  0.54100140100E+01 -0.13378354540E+02  0.15177830138E+02  0.00000000000E+00 0. -1.
        -13    1    5    5    0    0 -0.24853042767E+03 -0.94399165179E+02 -0.36625575306E+03  0.45257248316E+03  0.00000000000E+00 0.  1.
          2    1    6    6  503    0 -0.22580030260E+02  0.20827237488E+03  0.16251247480E+03  0.26513684084E+03  0.00000000000E+00 0. -1.
         -2    1    6    6    0  503 -0.67794131436E+01  0.13525515522E+03  0.21564003747E+03  0.25463806318E+03  0.00000000000E+00 0.  1.
<mgrwt>
<rscale>  0 0.22600116E+04</rscale>
<asrwt>0</asrwt>
<pdfrwt beam="1">  1        2 0.38427497E+00 0.22600116E+04</pdfrwt>
<pdfrwt beam="2">  1       -1 0.78648878E-01 0.22600116E+04</pdfrwt>
<totfact> 0.58447925E+00</totfact>
</mgrwt>
</event>
<event>
12    7  0.1675873E-007  0.2971843E+04  0.7818608E-02  0.8251817E-01
          2   -1    0    0  501    0  0.00000000000E+00  0.00000000000E+00  0.22594735766E+04  0.22594735766E+04  0.00000000000E+00 0. -1.
         -1   -1    0    0    0  501 -0.00000000000E+00 -0.00000000000E+00 -0.97720221884E+03  0.97720221884E+03  0.00000000000E+00 0.  1.
         24    2    1    2    0    0  0.45489985060E+02 -0.58542165728E+03 -0.74166151983E+03  0.94930046096E+03  0.79509116731E+02 0.  0.
        254    2    1    2    0    0 -0.45489985060E+02  0.58542165728E+03  0.20239328775E+04  0.22873753344E+04  0.88937830659E+03 0.  0.
         23    2    4    4    0    0  0.12534935352E+03  0.63118391988E+03  0.19787669414E+04  0.20827408183E+04  0.90471578744E+02 0.  0.
         23    2    4    4    0    0 -0.17083933858E+03 -0.45762262607E+02  0.45165936102E+02  0.20463451613E+03  0.92493562594E+02 0.  0.
          2    1    3    3  502    0 -0.21874123061E+02 -0.15763973092E+03 -0.18522782965E+03  0.24420915401E+03  0.00000000000E+00 0. -1.
         -3    1    3    3    0  502  0.67364108121E+02 -0.42778192636E+03 -0.55643369018E+03  0.70509130695E+03  0.00000000000E+00 0.  1.
         13    1    5    5    0    0 -0.62584094057E+01  0.17298025503E+03  0.53353916436E+03  0.56091476734E+03  0.00000000000E+00 0. -1.
        -13    1    5    5    0    0  0.13160776292E+03  0.45820366486E+03  0.14452277771E+04  0.15218260510E+04  0.00000000000E+00 0.  1.
          4    1    6    6  503    0 -0.59947209840E+02 -0.55171390919E+02 -0.69079564135E+01  0.81763501670E+02  0.00000000000E+00 0. -1.
         -4    1    6    6    0  503 -0.11089212874E+03  0.94091283114E+01  0.52073892516E+02  0.12287101446E+03  0.00000000000E+00 0.  1.
<mgrwt>
<rscale>  0 0.29718429E+04</rscale>
<asrwt>0</asrwt>
<pdfrwt beam="1">  1        2 0.34761132E+00 0.29718429E+04</pdfrwt>
<pdfrwt beam="2">  1       -1 0.15033880E+00 0.29718429E+04</pdfrwt>
<totfact> 0.16168702E+00</totfact>
</mgrwt>
</event>
<event>
12    7  0.1675873E-007  0.2176799E+04  0.7818608E-02  0.8528147E-01
          2   -1    0    0  501    0  0.00000000000E+00  0.00000000000E+00  0.18716877986E+04  0.18716877986E+04  0.00000000000E+00 0. -1.
         -1   -1    0    0    0  501 -0.00000000000E+00 -0.00000000000E+00 -0.63291212801E+03  0.63291212801E+03  0.00000000000E+00 0.  1.
         24    2    1    2    0    0 -0.85626552120E+03  0.29384190534E+02  0.21073868238E+03  0.88596645078E+03  0.80446791152E+02 0.  0.
        254    2    1    2    0    0  0.85626552120E+03 -0.29384190534E+02  0.10280369882E+04  0.16186334759E+04  0.91052743316E+03 0.  0.
         23    2    4    4    0    0  0.10408171348E+04 -0.19836207407E+02  0.84541717325E+03  0.13442214194E+04  0.92234724175E+02 0.  0.
         23    2    4    4    0    0 -0.18455161364E+03 -0.95479831273E+01  0.18261981498E+03  0.27441205642E+03  0.88326201128E+02 0.  0.
          4    1    3    3  502    0 -0.45707544004E+03 -0.35981657913E+00  0.15017631785E+03  0.48111434586E+03  0.00000000000E+00 0. -1.
         -3    1    3    3    0  502 -0.39919008117E+03  0.29744007113E+02  0.60562364538E+02  0.40485210492E+03  0.00000000000E+00 0.  1.
         13    1    5    5    0    0  0.35237622266E+01 -0.35013766645E+01  0.13661280557E+02  0.14536406889E+02  0.00000000000E+00 0. -1.
        -13    1    5    5    0    0  0.10372933726E+04 -0.16334830742E+02  0.83175589269E+03  0.13296850125E+04  0.00000000000E+00 0.  1.
          2    1    6    6  503    0 -0.52068848471E+02 -0.26422398807E+02  0.10445422165E+03  0.11966617133E+03  0.00000000000E+00 0. -1.
         -2    1    6    6    0  503 -0.13248276517E+03  0.16874415680E+02  0.78165593323E+02  0.15474588508E+03  0.00000000000E+00 0.  1.
<mgrwt>
<rscale>  0 0.21767994E+04</rscale>
<asrwt>0</asrwt>
<pdfrwt beam="1">  1        2 0.28795197E+00 0.21767994E+04</pdfrwt>
<pdfrwt beam="2">  1       -1 0.97371098E-01 0.21767994E+04</pdfrwt>
<totfact> 0.83129675E+00</totfact>
</mgrwt>
</event>
<event>
12    7  0.1675873E-007  0.1435899E+04  0.7818608E-02  0.8928235E-01
          2   -1    0    0  501    0  0.00000000000E+00  0.00000000000E+00  0.35046420508E+03  0.35046420508E+03  0.00000000000E+00 0. -1.
         -1   -1    0    0    0  501 -0.00000000000E+00 -0.00000000000E+00 -0.14707685365E+04  0.14707685365E+04  0.00000000000E+00 0.  1.
         24    2    1    2    0    0  0.16953807532E+03  0.50518886661E+00  0.16123621851E+03  0.24732718517E+03  0.80188553833E+02 0.  0.
        254    2    1    2    0    0 -0.16953807532E+03 -0.50518886661E+00 -0.12815405499E+04  0.15739055564E+04  0.89782465171E+03 0.  0.
         23    2    4    4    0    0 -0.27034839707E+02 -0.34664650058E+03 -0.10807626552E+04  0.11391011074E+04  0.92783279418E+02 0.  0.
         23    2    4    4    0    0 -0.14250323561E+03  0.34614131171E+03 -0.20077789469E+03  0.43480444904E+03  0.92855619509E+02 0.  0.
          4    1    3    3  502    0  0.11276471157E+03  0.22096561074E+02  0.60930529918E+02  0.13006409060E+03  0.00000000000E+00 0. -1.
         -3    1    3    3    0  502  0.56773363752E+02 -0.21591372207E+02  0.10030568859E+03  0.11726309457E+03  0.00000000000E+00 0.  1.
         13    1    5    5    0    0 -0.66152100099E+01 -0.25530168819E+01 -0.32572777462E+01  0.78031248222E+01  0.00000000000E+00 0. -1.
        -13    1    5    5    0    0 -0.20419629697E+02 -0.34409348370E+03 -0.10775053775E+04  0.11312979826E+04  0.00000000000E+00 0.  1.
          1    1    6    6  503    0 -0.20334301539E+02  0.91259788751E+02 -0.94220109399E+02  0.13273756769E+03  0.00000000000E+00 0. -1.
         -1    1    6    6    0  503 -0.12216893408E+03  0.25488152296E+03 -0.10655778529E+03  0.30206688135E+03  0.00000000000E+00 0.  1.
<mgrwt>
<rscale>  0 0.14358993E+04</rscale>
<asrwt>0</asrwt>
<pdfrwt beam="1">  1        2 0.53917570E-01 0.14358993E+04</pdfrwt>
<pdfrwt beam="2">  1       -1 0.22627208E+00 0.14358993E+04</pdfrwt>
<totfact> 0.10248862E+01</totfact>
</mgrwt>
</event>
<event>
12    7  0.1675873E-007  0.1117254E+04  0.7818608E-02  0.9188536E-01
          4   -1    0    0  501    0  0.00000000000E+00  0.00000000000E+00  0.34673350879E+03  0.34673350879E+03  0.00000000000E+00 0. -1.
         -3   -1    0    0    0  501 -0.00000000000E+00 -0.00000000000E+00 -0.90001196133E+03  0.90001196133E+03  0.00000000000E+00 0.  1.
         24    2    1    2    0    0  0.12699488624E+03  0.47719925720E+02 -0.24576777274E+03  0.28547681612E+03  0.51868313860E+02 0.  0.
        254    2    1    2    0    0 -0.12699488624E+03 -0.47719925720E+02 -0.30751067980E+03  0.96126865400E+03  0.90059408977E+03 0.  0.
         23    2    4    4    0    0 -0.44098577652E+03 -0.10965157502E+02  0.75240390695E+02  0.45626186252E+03  0.89022924177E+02 0.  0.
         23    2    4    4    0    0  0.31399089027E+03 -0.36754768218E+02 -0.38275107049E+03  0.50500679148E+03  0.92694580859E+02 0.  0.
          4    1    3    3  502    0  0.35586413818E+02 -0.97143983619E+01 -0.72140319534E+02  0.81024614077E+02  0.00000000000E+00 0. -1.
         -3    1    3    3    0  502  0.91408472423E+02  0.57434324082E+02 -0.17362745321E+03  0.20445220205E+03  0.00000000000E+00 0.  1.
         13    1    5    5    0    0 -0.44793876695E+02 -0.21339865283E+02  0.28414561015E+02  0.57177517586E+02  0.00000000000E+00 0. -1.
        -13    1    5    5    0    0 -0.39619189982E+03  0.10374707781E+02  0.46825829680E+02  0.39908434493E+03  0.00000000000E+00 0.  1.
          3    1    6    6  503    0  0.25714783615E+03 -0.50844473021E+02 -0.35194826973E+03  0.43883682006E+03  0.00000000000E+00 0. -1.
         -3    1    6    6    0  503  0.56843054121E+02  0.14089704803E+02 -0.30802800758E+02  0.66169971420E+02  0.00000000000E+00 0.  1.
<mgrwt>
<rscale>  0 0.11172543E+04</rscale>
<asrwt>0</asrwt>
<pdfrwt beam="1">  1        4 0.53343617E-01 0.11172543E+04</pdfrwt>
<pdfrwt beam="2">  1       -3 0.13846338E+00 0.11172543E+04</pdfrwt>
<totfact> 0.30249370E+00</totfact>
</mgrwt>
</event>
<event>
12    7  0.1675873E-007  0.1409306E+04  0.7818608E-02  0.8947110E-01
         -1   -1    0    0    0  501 -0.00000000000E+00  0.00000000000E+00  0.31253574422E+03  0.31253574422E+03  0.00000000000E+00 0.  1.
          2   -1    0    0  501    0  0.00000000000E+00 -0.00000000000E+00 -0.15887320028E+04  0.15887320028E+04  0.00000000000E+00 0. -1.
         24    2    1    2    0    0 -0.22190066264E+03  0.25662004814E+03 -0.69687890275E+03  0.78174571614E+03  0.10194315286E+03 0.  0.
        254    2    1    2    0    0  0.22190066264E+03 -0.25662004814E+03 -0.57931735579E+03  0.11195220308E+04  0.89589465097E+03 0.  0.
         23    2    4    4    0    0  0.93697796809E+02 -0.79993602696E+02 -0.78980693590E+03  0.80516655284E+03  0.96539775308E+02 0.  0.
         23    2    4    4    0    0  0.12820286583E+03 -0.17662644545E+03  0.21048958011E+03  0.31435547800E+03  0.82949545961E+02 0.  0.
          2    1    3    3  502    0 -0.11047795865E+03  0.19315966840E+03 -0.38751129445E+03  0.44685684528E+03  0.00000000000E+00 0. -1.
         -1    1    3    3    0  502 -0.11142270399E+03  0.63460379738E+02 -0.30936760831E+03  0.33488887087E+03  0.00000000000E+00 0.  1.
         13    1    5    5    0    0  0.27215670124E+02 -0.14614794041E+02 -0.45221964347E+02  0.54765965385E+02  0.00000000000E+00 0.  1.
        -13    1    5    5    0    0  0.66482126685E+02 -0.65378808655E+02 -0.74458497155E+03  0.75040058745E+03  0.00000000000E+00 0. -1.
          4    1    6    6  503    0  0.13283161811E+03 -0.17155082044E+03  0.17653071290E+03  0.27970880458E+03  0.00000000000E+00 0. -1.
         -4    1    6    6    0  503 -0.46287522745E+01 -0.50756250070E+01  0.33958867213E+02  0.34646673422E+02  0.00000000000E+00 0.  1.
<mgrwt>
<rscale>  0 0.14093056E+04</rscale>
<asrwt>0</asrwt>
<pdfrwt beam="1">  1        2 0.24442031E+00 0.14093056E+04</pdfrwt>
<pdfrwt beam="2">  1       -1 0.48082422E-01 0.14093056E+04</pdfrwt>
<totfact> 0.54208428E+01</totfact>
</mgrwt>
</event>
<event>
12    7  0.1675873E-007  0.3078059E+04  0.7818608E-02  0.8221785E-01
         -1   -1    0    0    0  501 -0.00000000000E+00  0.00000000000E+00  0.11775783547E+04  0.11775783547E+04  0.00000000000E+00 0.  1.
          2   -1    0    0  501    0  0.00000000000E+00 -0.00000000000E+00 -0.20114254476E+04  0.20114254476E+04  0.00000000000E+00 0. -1.
         24    2    1    2    0    0  0.10355764533E+04 -0.58785746049E+03 -0.11427019781E+04  0.16523194273E+04  0.79979339126E+02 0.  0.
        254    2    1    2    0    0 -0.10355764533E+04  0.58785746049E+03  0.30885488512E+03  0.15366843749E+04  0.92087596533E+03 0.  0.
         23    2    4    4    0    0 -0.22411499648E+03 -0.10185618213E+03  0.38391581476E+03  0.46520910190E+03  0.91792930952E+02 0.  0.
         23    2    4    4    0    0 -0.81146145686E+03  0.68971364262E+03 -0.75060929645E+02  0.10714752730E+04  0.90832333334E+02 0.  0.
          4    1    3    3  502    0  0.83294937609E+03 -0.43556243531E+03 -0.89424294567E+03  0.12973780267E+04  0.00000000000E+00 0. -1.
         -3    1    3    3    0  502  0.20262707725E+03 -0.15229502518E+03 -0.24845903239E+03  0.35494140066E+03  0.00000000000E+00 0.  1.
         13    1    5    5    0    0 -0.12990276578E+02  0.15745898449E+02  0.39523725396E+02  0.44483766395E+02  0.00000000000E+00 0. -1.
        -13    1    5    5    0    0 -0.21112471991E+03 -0.11760208058E+03  0.34439208937E+03  0.42072533550E+03  0.00000000000E+00 0.  1.
          2    1    6    6  503    0 -0.28559269401E+03  0.19466615425E+03 -0.45894548095E+02  0.34866087826E+03  0.00000000000E+00 0. -1.
         -2    1    6    6    0  503 -0.52586876285E+03  0.49504748837E+03 -0.29166381550E+02  0.72281439478E+03  0.00000000000E+00 0.  1.
<mgrwt>
<rscale>  0 0.30780585E+04</rscale>
<asrwt>0</asrwt>
<pdfrwt beam="1">  1        2 0.30945006E+00 0.30780585E+04</pdfrwt>
<pdfrwt beam="2">  1       -1 0.18116590E+00 0.30780585E+04</pdfrwt>
<totfact> 0.13003504E+00</totfact>
</mgrwt>
</event>
<event>
12    7  0.1675873E-007  0.1171028E+04  0.7818608E-02  0.9138601E-01
         -1   -1    0    0    0  501 -0.00000000000E+00  0.00000000000E+00  0.13678819052E+03  0.13678819052E+03  0.00000000000E+00 0.  1.
          2   -1    0    0  501    0  0.00000000000E+00 -0.00000000000E+00 -0.25062574072E+04  0.25062574072E+04  0.00000000000E+00 0. -1.
         24    2    1    2    0    0 -0.23250228907E+03 -0.14665887648E+02 -0.55240899981E+03  0.60499642538E+03  0.81194636296E+02 0.  0.
        254    2    1    2    0    0  0.23250228907E+03  0.14665887648E+02 -0.18170602169E+04  0.20380491724E+04  0.89312048153E+03 0.  0.
         23    2    4    4    0    0 -0.33260692324E+03  0.39107875990E+02 -0.60054424023E+03  0.69335892078E+03  0.89086571398E+02 0.  0.
         23    2    4    4    0    0  0.56510921230E+03 -0.24441988342E+02 -0.12165159767E+04  0.13446902516E+04  0.91295775590E+02 0.  0.
          2    1    3    3  502    0 -0.20371127746E+03 -0.40878261380E+02 -0.46514638353E+03  0.50944133610E+03  0.00000000000E+00 0. -1.
         -1    1    3    3    0  502 -0.28791011607E+02  0.26212373732E+02 -0.87262616285E+02  0.95555089278E+02  0.00000000000E+00 0.  1.
         13    1    5    5    0    0 -0.12797273075E+03  0.52196428642E+02 -0.19618105107E+03  0.23997602334E+03  0.00000000000E+00 0.  1.
        -13    1    5    5    0    0 -0.20463419248E+03 -0.13088552652E+02 -0.40436318916E+03  0.45338289744E+03  0.00000000000E+00 0. -1.
          2    1    6    6  503    0  0.38779075488E+02  0.16961672392E+02 -0.60676310234E+02  0.73980603199E+02  0.00000000000E+00 0. -1.
         -2    1    6    6    0  503  0.52633013681E+03 -0.41403660734E+02 -0.11558396664E+04  0.12707096484E+04  0.00000000000E+00 0.  1.
<mgrwt>
<rscale>  0 0.11710276E+04</rscale>
<asrwt>0</asrwt>
<pdfrwt beam="1">  1        2 0.38557805E+00 0.11710276E+04</pdfrwt>
<pdfrwt beam="2">  1       -1 0.21044338E-01 0.11710276E+04</pdfrwt>
<totfact> 0.73510548E+01</totfact>
</mgrwt>
</event>
<event>
12    7  0.1675873E-007  0.1333287E+04  0.7818608E-02  0.9003577E-01
         -1   -1    0    0    0  501 -0.00000000000E+00  0.00000000000E+00  0.82645998664E+03  0.82645998664E+03  0.00000000000E+00 0.  1.
          2   -1    0    0  501    0  0.00000000000E+00 -0.00000000000E+00 -0.53773139533E+03  0.53773139533E+03  0.00000000000E+00 0. -1.
         24    2    1    2    0    0 -0.15283294654E+03  0.17999828316E+03 -0.20186568100E+03  0.32046880036E+03  0.78696933560E+02 0.  0.
        254    2    1    2    0    0  0.15283294654E+03 -0.17999828316E+03  0.49059427231E+03  0.10437225816E+04  0.89045875584E+03 0.  0.
         23    2    4    4    0    0  0.66216569723E+02  0.25793369896E+03 -0.99524737241E+02  0.29832466001E+03  0.90432307731E+02 0.  0.
         23    2    4    4    0    0  0.86616376819E+02 -0.43793198212E+03  0.59011900955E+03  0.74539792160E+03  0.89948865472E+02 0.  0.
          2    1    3    3  502    0 -0.57959870594E+02  0.11985823735E+03 -0.13568420064E+03  0.19009351899E+03  0.00000000000E+00 0. -1.
         -1    1    3    3    0  502 -0.94873075947E+02  0.60140045810E+02 -0.66181480359E+02  0.13037528137E+03  0.00000000000E+00 0.  1.
         13    1    5    5    0    0  0.87219946175E+02  0.23175927596E+03 -0.85882221366E+02  0.26209814373E+03  0.00000000000E+00 0.  1.
        -13    1    5    5    0    0 -0.21003376452E+02  0.26174423005E+02 -0.13642515875E+02  0.36226516275E+02  0.00000000000E+00 0. -1.
          1    1    6    6  503    0  0.34099349129E+02 -0.20951229182E+03  0.20842991434E+03  0.29749150446E+03  0.00000000000E+00 0. -1.
         -1    1    6    6    0  503  0.52517027690E+02 -0.22841969030E+03  0.38168909521E+03  0.44790641714E+03  0.00000000000E+00 0.  1.
<mgrwt>
<rscale>  0 0.13332869E+04</rscale>
<asrwt>0</asrwt>
<pdfrwt beam="1">  1        2 0.82727907E-01 0.13332869E+04</pdfrwt>
<pdfrwt beam="2">  1       -1 0.12714769E+00 0.13332869E+04</pdfrwt>
<totfact> 0.33911532E+01</totfact>
</mgrwt>
</event>
<event>
12    7  0.1675873E-007  0.1984623E+04  0.7818608E-02  0.8613844E-01
          2   -1    0    0  501    0  0.00000000000E+00  0.00000000000E+00  0.21162916865E+04  0.21162916865E+04  0.00000000000E+00 0. -1.
         -1   -1    0    0    0  501 -0.00000000000E+00 -0.00000000000E+00 -0.46528659571E+03  0.46528659571E+03  0.00000000000E+00 0.  1.
         24    2    1    2    0    0 -0.11724342833E+03 -0.68845843452E+03  0.11243151722E+04  0.13260670668E+04  0.81536629021E+02 0.  0.
        254    2    1    2    0    0  0.11724342833E+03  0.68845843452E+03  0.52668991863E+03  0.12555112154E+04  0.90065815044E+03 0.  0.
         23    2    4    4    0    0 -0.34568190530E+02  0.13147956214E+03  0.63963722138E+03  0.66022057954E+03  0.90959351455E+02 0.  0.
         23    2    4    4    0    0  0.15181161886E+03  0.55697887238E+03 -0.11294730275E+03  0.59529063582E+03  0.91332447635E+02 0.  0.
          2    1    3    3  502    0 -0.61008986326E+02 -0.53008385517E+03  0.89038263422E+03  0.10380232296E+04  0.00000000000E+00 0. -1.
         -1    1    3    3    0  502 -0.56234442006E+02 -0.15837457934E+03  0.23393253793E+03  0.28804383720E+03  0.00000000000E+00 0.  1.
         13    1    5    5    0    0 -0.41759659132E+01  0.82579963491E+02  0.52974796793E+03  0.53616210103E+03  0.00000000000E+00 0.  1.
        -13    1    5    5    0    0 -0.30392224616E+02  0.48899598647E+02  0.10988925345E+03  0.12405847851E+03  0.00000000000E+00 0. -1.
          2    1    6    6  503    0  0.10076059936E+03  0.20728867138E+03 -0.31429370064E+02  0.23261362163E+03  0.00000000000E+00 0. -1.
         -2    1    6    6    0  503  0.51051019504E+02  0.34969020101E+03 -0.81517932689E+02  0.36267701419E+03  0.00000000000E+00 0.  1.
<mgrwt>
<rscale>  0 0.19846230E+04</rscale>
<asrwt>0</asrwt>
<pdfrwt beam="1">  1        2 0.32558333E+00 0.19846230E+04</pdfrwt>
<pdfrwt beam="2">  1       -1 0.71582554E-01 0.19846230E+04</pdfrwt>
<totfact> 0.12005752E+01</totfact>
</mgrwt>
</event>
<event>
12    7  0.1675873E-007  0.1301318E+04  0.7818608E-02  0.9028521E-01
         -1   -1    0    0    0  501 -0.00000000000E+00  0.00000000000E+00  0.49111644344E+03  0.49111644344E+03  0.00000000000E+00 0.  1.
          2   -1    0    0  501    0  0.00000000000E+00 -0.00000000000E+00 -0.86202950316E+03  0.86202950316E+03  0.00000000000E+00 0. -1.
         24    2    1    2    0    0  0.31587615437E+03 -0.11488384765E+03 -0.98587743391E+02  0.35900001464E+03  0.78647466711E+02 0.  0.
        254    2    1    2    0    0 -0.31587615437E+03  0.11488384765E+03 -0.27232531632E+03  0.99414593195E+03  0.89509162255E+03 0.  0.
         23    2    4    4    0    0  0.82361311681E+02 -0.32633294876E+03 -0.45621737105E+02  0.35171115245E+03  0.91338999059E+02 0.  0.
         23    2    4    4    0    0 -0.39823746605E+03  0.44121679641E+03 -0.22670357922E+03  0.64243477951E+03  0.89791938896E+02 0.  0.
          4    1    3    3  502    0  0.19448959989E+03 -0.43740330335E+02 -0.87989959016E+02  0.21790285416E+03  0.00000000000E+00 0. -1.
         -3    1    3    3    0  502  0.12138655448E+03 -0.71143517313E+02 -0.10597784375E+02  0.14109716048E+03  0.00000000000E+00 0.  1.
         13    1    5    5    0    0 -0.27080414045E+01  0.26707441990E+01  0.68743860792E+01  0.78564334650E+01  0.00000000000E+00 0.  1.
        -13    1    5    5    0    0  0.85069353085E+02 -0.32900369296E+03 -0.52496123184E+02  0.34385471898E+03  0.00000000000E+00 0. -1.
          2    1    6    6  503    0 -0.33662627489E+03  0.35178021342E+03 -0.21803714714E+03  0.53348548718E+03  0.00000000000E+00 0. -1.
         -2    1    6    6    0  503 -0.61611191156E+02  0.89436582992E+02 -0.86664320739E+01  0.10894929232E+03  0.00000000000E+00 0.  1.
<mgrwt>
<rscale>  0 0.13013176E+04</rscale>
<asrwt>0</asrwt>
<pdfrwt beam="1">  1        2 0.13261992E+00 0.13013176E+04</pdfrwt>
<pdfrwt beam="2">  1       -1 0.75556377E-01 0.13013176E+04</pdfrwt>
<totfact> 0.61330026E+01</totfact>
</mgrwt>
</event>
<event>
12    7  0.1675873E-007  0.1787622E+04  0.7818608E-02  0.8712910E-01
         -1   -1    0    0    0  501 -0.00000000000E+00  0.00000000000E+00  0.23953149643E+03  0.23953149643E+03  0.00000000000E+00 0.  1.
          2   -1    0    0  501    0  0.00000000000E+00 -0.00000000000E+00 -0.33352528096E+04  0.33352528096E+04  0.00000000000E+00 0. -1.
         24    2    1    2    0    0  0.24062125610E+03 -0.17044755668E+03 -0.23528586538E+04  0.23726022682E+04  0.79666302663E+02 0.  0.
        254    2    1    2    0    0 -0.24062125610E+03  0.17044755668E+03 -0.74286265940E+03  0.12021820379E+04  0.89802325304E+03 0.  0.
         23    2    4    4    0    0 -0.33531943547E+03  0.77111723392E+02 -0.90609563082E+03  0.97361496784E+03  0.92365966290E+02 0.  0.
         23    2    4    4    0    0  0.94698179369E+02  0.93335833293E+02  0.16323297142E+03  0.22856707003E+03  0.88986401158E+02 0.  0.
          4    1    3    3  502    0  0.19678048386E+03 -0.15935143797E+03 -0.21442024374E+04  0.21591015567E+04  0.00000000000E+00 0. -1.
         -3    1    3    3    0  502  0.43840772246E+02 -0.11096118716E+02 -0.20865621639E+03  0.21350071148E+03  0.00000000000E+00 0.  1.
         13    1    5    5    0    0 -0.28658537535E+03  0.67192887842E+02 -0.66182702965E+03  0.72433492165E+03  0.00000000000E+00 0. -1.
        -13    1    5    5    0    0 -0.48734060120E+02  0.99188355499E+01 -0.24426860116E+03  0.24928004619E+03  0.00000000000E+00 0.  1.
          2    1    6    6  503    0  0.83406926841E+02  0.70028558632E+02  0.64674995107E+02  0.12666321274E+03  0.00000000000E+00 0. -1.
         -2    1    6    6    0  503  0.11291252527E+02  0.23307274661E+02  0.98557976316E+02  0.10190385729E+03  0.00000000000E+00 0.  1.
<mgrwt>
<rscale>  0 0.17876220E+04</rscale>
<asrwt>0</asrwt>
<pdfrwt beam="1">  1        2 0.51311574E+00 0.17876220E+04</pdfrwt>
<pdfrwt beam="2">  1       -1 0.36851005E-01 0.17876220E+04</pdfrwt>
<totfact> 0.80798328E+00</totfact>
</mgrwt>
</event>
<event>
12    7  0.1675873E-007  0.3175917E+04  0.7818608E-02  0.8195206E-01
         -1   -1    0    0    0  501 -0.00000000000E+00  0.00000000000E+00  0.10484318244E+04  0.10484318244E+04  0.00000000000E+00 0.  1.
          2   -1    0    0  501    0  0.00000000000E+00 -0.00000000000E+00 -0.24051282129E+04  0.24051282129E+04  0.00000000000E+00 0. -1.
         24    2    1    2    0    0 -0.14372801093E+04  0.90047163156E+02 -0.33792559191E+03  0.14812856387E+04  0.78299639393E+02 0.  0.
        254    2    1    2    0    0  0.14372801093E+04 -0.90047163156E+02 -0.10187707966E+04  0.19722743986E+04  0.88209396501E+03 0.  0.
         23    2    4    4    0    0  0.89461476985E+03  0.44858467693E+02 -0.11786234029E+03  0.90799427898E+03  0.90632283654E+02 0.  0.
         23    2    4    4    0    0  0.54266533943E+03 -0.13490563085E+03 -0.90090845630E+03  0.10642801196E+04  0.91492767168E+02 0.  0.
          2    1    3    3  502    0 -0.12402851512E+04  0.85469942351E+02 -0.31786629433E+03  0.12832191350E+04  0.00000000000E+00 0. -1.
         -1    1    3    3    0  502 -0.19699495810E+03  0.45772208057E+01 -0.20059297578E+02  0.19806650369E+03  0.00000000000E+00 0.  1.
         13    1    5    5    0    0  0.84016523841E+03  0.55708882048E+02 -0.12760937671E+03  0.85162507031E+03  0.00000000000E+00 0.  1.
        -13    1    5    5    0    0  0.54449531449E+02 -0.10850414355E+02  0.97470364244E+01  0.56369208667E+02  0.00000000000E+00 0. -1.
          4    1    6    6  503    0  0.16919294477E+03 -0.15582699240E+02 -0.33779214373E+03  0.37811718480E+03  0.00000000000E+00 0. -1.
         -4    1    6    6    0  503  0.37347239466E+03 -0.11932293161E+03 -0.56311631257E+03  0.68616293478E+03  0.00000000000E+00 0.  1.
<mgrwt>
<rscale>  0 0.31759175E+04</rscale>
<asrwt>0</asrwt>
<pdfrwt beam="1">  1        2 0.37001972E+00 0.31759175E+04</pdfrwt>
<pdfrwt beam="2">  1       -1 0.16129721E+00 0.31759175E+04</pdfrwt>
<totfact> 0.10817704E+00</totfact>
</mgrwt>
</event>
<event>
12    7  0.1675873E-007  0.2132910E+04  0.7818608E-02  0.8546883E-01
          2   -1    0    0  501    0  0.00000000000E+00  0.00000000000E+00  0.14660696830E+04  0.14660696830E+04  0.00000000000E+00 0. -1.
         -1   -1    0    0    0  501 -0.00000000000E+00 -0.00000000000E+00 -0.77576541668E+03  0.77576541668E+03  0.00000000000E+00 0.  1.
         24    2    1    2    0    0 -0.55133759199E+03  0.29964868723E+03  0.88091975862E+03  0.10844989457E+04  0.79723685304E+02 0.  0.
        254    2    1    2    0    0  0.55133759199E+03 -0.29964868723E+03 -0.19061549235E+03  0.11573361539E+04  0.95358808254E+03 0.  0.
         23    2    4    4    0    0  0.71113244055E+02 -0.78057034471E+02 -0.51290786982E+03  0.53159400131E+03  0.91475161606E+02 0.  0.
         23    2    4    4    0    0  0.48022434794E+03 -0.22159165276E+03  0.32229237747E+03  0.62574215262E+03  0.89233290111E+02 0.  0.
          4    1    3    3  502    0 -0.49224304863E+03  0.26423063628E+03  0.73587029906E+03  0.92391890614E+03  0.00000000000E+00 0. -1.
         -1    1    3    3    0  502 -0.59094543357E+02  0.35418050944E+02  0.14504945957E+03  0.16058003957E+03  0.00000000000E+00 0.  1.
         13    1    5    5    0    0  0.52873820861E+01  0.40234798702E+01 -0.22441894295E+03  0.22451727495E+03  0.00000000000E+00 0.  1.
        -13    1    5    5    0    0  0.65825861968E+02 -0.82080514342E+02 -0.28848892687E+03  0.30707672635E+03  0.00000000000E+00 0. -1.
          4    1    6    6  503    0  0.24904984226E+03 -0.84615996186E+02  0.20042620025E+03  0.33069072029E+03  0.00000000000E+00 0. -1.
         -4    1    6    6    0  503  0.23117450568E+03 -0.13697565657E+03  0.12186617723E+03  0.29505143233E+03  0.00000000000E+00 0.  1.
<mgrwt>
<rscale>  0 0.21329099E+04</rscale>
<asrwt>0</asrwt>
<pdfrwt beam="1">  1        2 0.22554918E+00 0.21329099E+04</pdfrwt>
<pdfrwt beam="2">  1       -1 0.11934853E+00 0.21329099E+04</pdfrwt>
<totfact> 0.87173962E+00</totfact>
</mgrwt>
</event>
<event>
12    7  0.1675873E-007  0.1635316E+04  0.7818608E-02  0.8799141E-01
          2   -1    0    0  501    0  0.00000000000E+00  0.00000000000E+00  0.38644926458E+03  0.38644926458E+03  0.00000000000E+00 0. -1.
         -1   -1    0    0    0  501 -0.00000000000E+00 -0.00000000000E+00 -0.17300199885E+04  0.17300199885E+04  0.00000000000E+00 0.  1.
         24    2    1    2    0    0  0.30293797480E+03  0.93237021732E+02 -0.10774724483E+04  0.11264762431E+04  0.86817571426E+02 0.  0.
        254    2    1    2    0    0 -0.30293797480E+03 -0.93237021732E+02 -0.26609827561E+03  0.98999300994E+03  0.89934048538E+03 0.  0.
         23    2    4    4    0    0 -0.39020696613E+03 -0.42827356042E+03 -0.97086584083E+02  0.59427055445E+03  0.89732759355E+02 0.  0.
         23    2    4    4    0    0  0.87268991328E+02  0.33503653869E+03 -0.16901169153E+03  0.39572245549E+03  0.90365650560E+02 0.  0.
          2    1    3    3  502    0  0.12876856498E+03  0.21718798026E+01 -0.35076420206E+03  0.37365971931E+03  0.00000000000E+00 0. -1.
         -1    1    3    3    0  502  0.17416940982E+03  0.91065141929E+02 -0.72670824622E+03  0.75281652380E+03  0.00000000000E+00 0.  1.
         13    1    5    5    0    0 -0.17651303170E+02 -0.12723320153E+01  0.51705929691E+01  0.18436983593E+02  0.00000000000E+00 0. -1.
        -13    1    5    5    0    0 -0.37255566296E+03 -0.42700122841E+03 -0.10225717705E+03  0.57583357085E+03  0.00000000000E+00 0.  1.
          3    1    6    6  503    0  0.69323483377E+02  0.10719689544E+03 -0.42798802852E+02  0.13464270224E+03  0.00000000000E+00 0. -1.
         -3    1    6    6    0  503  0.17945507950E+02  0.22783964324E+03 -0.12621288868E+03  0.26107975325E+03  0.00000000000E+00 0.  1.
<mgrwt>
<rscale>  0 0.16353164E+04</rscale>
<asrwt>0</asrwt>
<pdfrwt beam="1">  1        2 0.59453732E-01 0.16353164E+04</pdfrwt>
<pdfrwt beam="2">  1       -1 0.26615693E+00 0.16353164E+04</pdfrwt>
<totfact> 0.49526633E+00</totfact>
</mgrwt>
</event>
<event>
12    7  0.1675873E-007  0.3842007E+04  0.7818608E-02  0.8037200E-01
         -1   -1    0    0    0  501 -0.00000000000E+00  0.00000000000E+00  0.15942605423E+04  0.15942605423E+04  0.00000000000E+00 0.  1.
          2   -1    0    0  501    0  0.00000000000E+00 -0.00000000000E+00 -0.23147121040E+04  0.23147121040E+04  0.00000000000E+00 0. -1.
         24    2    1    2    0    0  0.85618761008E+03 -0.11803338335E+04  0.73611911793E+03  0.16356067635E+04  0.84219635341E+02 0.  0.
        254    2    1    2    0    0 -0.85618761008E+03  0.11803338335E+04 -0.14565706796E+04  0.22733658828E+04  0.95934827371E+03 0.  0.
         23    2    4    4    0    0 -0.23483977166E+02 -0.12528334052E+03 -0.18024524059E+02  0.15784055309E+03  0.91330959357E+02 0.  0.
         23    2    4    4    0    0 -0.83270363291E+03  0.13056171740E+04 -0.14385461555E+04  0.21155253297E+04  0.89447379292E+02 0.  0.
          4    1    3    3  502    0  0.29094166276E+03 -0.35685260471E+03  0.19972886155E+03  0.50187892042E+03  0.00000000000E+00 0. -1.
         -3    1    3    3    0  502  0.56524594732E+03 -0.82348122874E+03  0.53639025638E+03  0.11337278431E+04  0.00000000000E+00 0.  1.
         13    1    5    5    0    0 -0.52619206179E+02 -0.60021140297E+02  0.11245403701E+02  0.80608791368E+02  0.00000000000E+00 0.  1.
        -13    1    5    5    0    0  0.29135229013E+02 -0.65262200228E+02 -0.29269927760E+02  0.77231761726E+02  0.00000000000E+00 0. -1.
          2    1    6    6  503    0 -0.73739314412E+03  0.11382593948E+04 -0.12199380916E+04  0.18241798283E+04  0.00000000000E+00 0. -1.
         -2    1    6    6    0  503 -0.95310488792E+02  0.16735777920E+03 -0.21860806393E+03  0.29134550133E+03  0.00000000000E+00 0.  1.
<mgrwt>
<rscale>  0 0.38420069E+04</rscale>
<asrwt>0</asrwt>
<pdfrwt beam="1">  1        2 0.35610955E+00 0.38420069E+04</pdfrwt>
<pdfrwt beam="2">  1       -1 0.24527085E+00 0.38420069E+04</pdfrwt>
<totfact> 0.30248503E-01</totfact>
</mgrwt>
</event>
<event>
12    7  0.1675873E-007  0.1468892E+04  0.7818608E-02  0.8905407E-01
          2   -1    0    0  501    0  0.00000000000E+00  0.00000000000E+00  0.15575484897E+04  0.15575484897E+04  0.00000000000E+00 0. -1.
         -1   -1    0    0    0  501 -0.00000000000E+00 -0.00000000000E+00 -0.34632051229E+03  0.34632051229E+03  0.00000000000E+00 0.  1.
         24    2    1    2    0    0  0.13205297548E+03 -0.55823778831E+02  0.96108952907E+03  0.97511711662E+03  0.81277460695E+02 0.  0.
        254    2    1    2    0    0 -0.13205297548E+03  0.55823778831E+02  0.25013844833E+03  0.92875188537E+03  0.88286835860E+03 0.  0.
         23    2    4    4    0    0 -0.39960925316E+03  0.12116859240E+03 -0.13322974655E+03  0.44775732891E+03  0.91471729152E+02 0.  0.
         23    2    4    4    0    0  0.26755627768E+03 -0.65344813571E+02  0.38336819487E+03  0.48099455646E+03  0.92348709345E+02 0.  0.
          4    1    3    3  502    0  0.11547092604E+03 -0.40677582087E+02  0.92153478438E+03  0.92963141043E+03  0.00000000000E+00 0. -1.
         -3    1    3    3    0  502  0.16582049441E+02 -0.15146196744E+02  0.39554744691E+02  0.45485706184E+02  0.00000000000E+00 0.  1.
         13    1    5    5    0    0 -0.55810832286E+01  0.11370636793E+02 -0.19408889350E+02  0.23176385760E+02  0.00000000000E+00 0.  1.
        -13    1    5    5    0    0 -0.39402816993E+03  0.10979795561E+03 -0.11382085720E+03  0.42458094315E+03  0.00000000000E+00 0. -1.
          2    1    6    6  503    0  0.14649233205E+03  0.41169361803E+01  0.23773654245E+03  0.27927695238E+03  0.00000000000E+00 0.  1.
         -2    1    6    6    0  503  0.12106394562E+03 -0.69461749751E+02  0.14563165243E+03  0.20171760408E+03  0.00000000000E+00 0. -1.
<mgrwt>
<rscale>  0 0.14688921E+04</rscale>
<asrwt>0</asrwt>
<pdfrwt beam="1">  1        2 0.23962284E+00 0.14688921E+04</pdfrwt>
<pdfrwt beam="2">  1       -1 0.53280080E-01 0.14688921E+04</pdfrwt>
<totfact> 0.46183895E+01</totfact>
</mgrwt>
</event>
<event>
12    7  0.1675873E-007  0.1576391E+04  0.7818608E-02  0.8835185E-01
          2   -1    0    0  501    0  0.00000000000E+00  0.00000000000E+00  0.17870280737E+04  0.17870280737E+04  0.00000000000E+00 0. -1.
         -1   -1    0    0    0  501 -0.00000000000E+00 -0.00000000000E+00 -0.34764524748E+03  0.34764524748E+03  0.00000000000E+00 0.  1.
         24    2    1    2    0    0 -0.11722862304E+03  0.49307694497E+03  0.67184299058E+03  0.84517850332E+03  0.78014580504E+02 0.  0.
        254    2    1    2    0    0  0.11722862304E+03 -0.49307694497E+03  0.76753983564E+03  0.12894948178E+04  0.90377655548E+03 0.  0.
         23    2    4    4    0    0 -0.16562171912E+03 -0.38842686600E+03 -0.28341848553E+02  0.43335187532E+03  0.93191219527E+02 0.  0.
         23    2    4    4    0    0  0.28285034216E+03 -0.10465007897E+03  0.79588168419E+03  0.85614294252E+03  0.92720697319E+02 0.  0.
          4    1    3    3  502    0 -0.93028937274E+01  0.46703765197E+01  0.28005883969E+02  0.29877847737E+02  0.00000000000E+00 0. -1.
         -3    1    3    3    0  502 -0.10792572932E+03  0.48840656845E+03  0.64383710661E+03  0.81530065559E+03  0.00000000000E+00 0.  1.
         13    1    5    5    0    0 -0.68861812708E+02 -0.24795847511E+03  0.13599179125E+02  0.25770194470E+03  0.00000000000E+00 0. -1.
        -13    1    5    5    0    0 -0.96759906407E+02 -0.14046839089E+03 -0.41941027678E+02  0.17564993063E+03  0.00000000000E+00 0.  1.
          3    1    6    6  503    0  0.18729545284E+03 -0.40250866484E+02  0.39459850685E+03  0.43864302174E+03  0.00000000000E+00 0. -1.
         -3    1    6    6    0  503  0.95554889320E+02 -0.64399212491E+02  0.40128317734E+03  0.41749992079E+03  0.00000000000E+00 0.  1.
<mgrwt>
<rscale>  0 0.15763906E+04</rscale>
<asrwt>0</asrwt>
<pdfrwt beam="1">  1        2 0.27492739E+00 0.15763906E+04</pdfrwt>
<pdfrwt beam="2">  1       -1 0.53483885E-01 0.15763906E+04</pdfrwt>
<totfact> 0.33862193E+01</totfact>
</mgrwt>
</event>
<event>
12    7  0.1675873E-007  0.2978896E+04  0.7818608E-02  0.8249783E-01
         -1   -1    0    0    0  501 -0.00000000000E+00  0.00000000000E+00  0.93695213679E+03  0.93695213679E+03  0.00000000000E+00 0.  1.
          2   -1    0    0  501    0  0.00000000000E+00 -0.00000000000E+00 -0.23677362333E+04  0.23677362333E+04  0.00000000000E+00 0. -1.
         24    2    1    2    0    0 -0.66035402186E+03  0.11579620155E+04 -0.95267746935E+03  0.16404377808E+04  0.80611961201E+02 0.  0.
        254    2    1    2    0    0  0.66035402186E+03 -0.11579620155E+04 -0.47810662720E+03  0.16642505894E+04  0.87418568601E+03 0.  0.
         23    2    4    4    0    0  0.18426437349E+03 -0.10646188146E+03 -0.44995302927E+03  0.50603991339E+03  0.91275264198E+02 0.  0.
         23    2    4    4    0    0  0.47608964837E+03 -0.10515001341E+04 -0.28153597931E+02  0.11582106760E+04  0.91353487201E+02 0.  0.
          4    1    3    3  502    0 -0.31957152538E+03  0.59111831131E+03 -0.52594618255E+03  0.85332655223E+03  0.00000000000E+00 0. -1.
         -3    1    3    3    0  502 -0.34078249648E+03  0.56684370424E+03 -0.42673128680E+03  0.78711122853E+03  0.00000000000E+00 0.  1.
         13    1    5    5    0    0  0.93428363510E+02 -0.52665184600E+02 -0.12677346693E+03  0.16605418602E+03  0.00000000000E+00 0.  1.
        -13    1    5    5    0    0  0.90836009980E+02 -0.53796696864E+02 -0.32317956234E+03  0.33998572738E+03  0.00000000000E+00 0. -1.
          1    1    6    6  503    0  0.82440911452E+02 -0.24403895206E+03  0.21861027241E+02  0.25851386522E+03  0.00000000000E+00 0.  1.
         -1    1    6    6    0  503  0.39364873692E+03 -0.80746118203E+03 -0.50014625172E+02  0.89969681076E+03  0.00000000000E+00 0. -1.
<mgrwt>
<rscale>  0 0.29788961E+04</rscale>
<asrwt>0</asrwt>
<pdfrwt beam="1">  1        2 0.36426711E+00 0.29788961E+04</pdfrwt>
<pdfrwt beam="2">  1       -1 0.14414648E+00 0.29788961E+04</pdfrwt>
<totfact> 0.15692470E+00</totfact>
</mgrwt>
</event>
<event>
12    7  0.1675873E-007  0.2489867E+04  0.7818608E-02  0.8406604E-01
          2   -1    0    0  501    0  0.00000000000E+00  0.00000000000E+00  0.26818125657E+04  0.26818125657E+04  0.00000000000E+00 0. -1.
         -1   -1    0    0    0  501 -0.00000000000E+00 -0.00000000000E+00 -0.57791505372E+03  0.57791505372E+03  0.00000000000E+00 0.  1.
         24    2    1    2    0    0 -0.92333673014E+03  0.38953244984E+03  0.38986714614E+03  0.10782403666E+04  0.79496224905E+02 0.  0.
        254    2    1    2    0    0  0.92333673014E+03 -0.38953244984E+03  0.17140303658E+04  0.21814872529E+04  0.90371471859E+03 0.  0.
         23    2    4    4    0    0  0.84729692797E+02  0.63214719710E+02 -0.71039885564E+02  0.15595705184E+03  0.90003972402E+02 0.  0.
         23    2    4    4    0    0  0.83860703735E+03 -0.45274716955E+03  0.17850702514E+04  0.20255302010E+04  0.89749819614E+02 0.  0.
          2    1    3    3  502    0 -0.50645540029E+03  0.18978234113E+03  0.24548716490E+03  0.59395147750E+03  0.00000000000E+00 0. -1.
         -1    1    3    3    0  502 -0.41688132985E+03  0.19975010870E+03  0.14437998125E+03  0.48428888908E+03  0.00000000000E+00 0.  1.
         13    1    5    5    0    0  0.27199780775E+02  0.39117116626E+02 -0.79831066259E+02  0.92967607409E+02  0.00000000000E+00 0. -1.
        -13    1    5    5    0    0  0.57529912022E+02  0.24097603085E+02  0.87911806952E+01  0.62989444431E+02  0.00000000000E+00 0.  1.
          1    1    6    6  503    0  0.69711355213E+03 -0.35838656790E+03  0.13981598597E+04  0.16028908977E+04  0.00000000000E+00 0. -1.
         -1    1    6    6    0  503  0.14149348521E+03 -0.94360601648E+02  0.38691039167E+03  0.42263930329E+03  0.00000000000E+00 0.  1.
<mgrwt>
<rscale>  0 0.24898673E+04</rscale>
<asrwt>0</asrwt>
<pdfrwt beam="1">  1        2 0.41258654E+00 0.24898673E+04</pdfrwt>
<pdfrwt beam="2">  1       -1 0.88910010E-01 0.24898673E+04</pdfrwt>
<totfact> 0.34292410E+00</totfact>
</mgrwt>
</event>
<event>
12    7  0.1675873E-007  0.1889882E+04  0.7818608E-02  0.8659909E-01
          2   -1    0    0  501    0  0.00000000000E+00  0.00000000000E+00  0.11988607332E+04  0.11988607332E+04  0.00000000000E+00 0. -1.
         -1   -1    0    0    0  501 -0.00000000000E+00 -0.00000000000E+00 -0.74480180334E+03  0.74480180334E+03  0.00000000000E+00 0.  1.
         24    2    1    2    0    0 -0.34161635755E+03  0.15887506955E+03 -0.46310802383E+03  0.60235237333E+03  0.80101912901E+02 0.  0.
        254    2    1    2    0    0  0.34161635755E+03 -0.15887506955E+03  0.91716695365E+03  0.13413101632E+04  0.90331318460E+03 0.  0.
         23    2    4    4    0    0 -0.19695130556E+03 -0.33167294888E+03  0.45570639034E+03  0.60560619337E+03  0.10145829426E+03 0.  0.
         23    2    4    4    0    0  0.53856766311E+03  0.17279787934E+03  0.46146056332E+03  0.73570396980E+03  0.91652849552E+02 0.  0.
          2    1    3    3  502    0 -0.37241675835E+02  0.37551712851E+02 -0.35746634504E+02  0.63834907655E+02  0.00000000000E+00 0. -1.
         -3    1    3    3    0  502 -0.30437468172E+03  0.12132335669E+03 -0.42736138933E+03  0.53851746567E+03  0.00000000000E+00 0.  1.
         13    1    5    5    0    0 -0.15534577930E+03 -0.20499653910E+03  0.35562276663E+03  0.43888887470E+03  0.00000000000E+00 0. -1.
        -13    1    5    5    0    0 -0.41605526253E+02 -0.12667640978E+03  0.10008362371E+03  0.16671731867E+03  0.00000000000E+00 0.  1.
          2    1    6    6  503    0  0.44671438121E+03  0.12694086952E+03  0.33397591700E+03  0.57202066035E+03  0.00000000000E+00 0. -1.
         -2    1    6    6    0  503  0.91853281899E+02  0.45857009821E+02  0.12748464631E+03  0.16368330944E+03  0.00000000000E+00 0.  1.
<mgrwt>
<rscale>  0 0.18898822E+04</rscale>
<asrwt>0</asrwt>
<pdfrwt beam="1">  1        2 0.18444011E+00 0.18898822E+04</pdfrwt>
<pdfrwt beam="2">  1       -1 0.11458489E+00 0.18898822E+04</pdfrwt>
<totfact> 0.14039566E+01</totfact>
</mgrwt>
</event>
<event>
12    7  0.1675873E-007  0.1485417E+04  0.7818608E-02  0.8894208E-01
         -1   -1    0    0    0  501 -0.00000000000E+00  0.00000000000E+00  0.57587397701E+03  0.57587397701E+03  0.00000000000E+00 0.  1.
          2   -1    0    0  501    0  0.00000000000E+00 -0.00000000000E+00 -0.95787662798E+03  0.95787662798E+03  0.00000000000E+00 0. -1.
         24    2    1    2    0    0  0.34802881982E+03  0.17556678311E+03 -0.32728652324E+03  0.51691907348E+03  0.90228074747E+02 0.  0.
        254    2    1    2    0    0 -0.34802881982E+03 -0.17556678311E+03 -0.54716127737E+02  0.10168315315E+04  0.93755253404E+03 0.  0.
         23    2    4    4    0    0 -0.61360885320E+03  0.13382566389E+02 -0.19475390833E+03  0.65032874974E+03  0.91123433434E+02 0.  0.
         23    2    4    4    0    0  0.26558003338E+03 -0.18894934950E+03  0.14003778059E+03  0.36650278177E+03  0.92082019126E+02 0.  0.
          2    1    3    3  502    0  0.60943271953E+02  0.13639214712E+02 -0.94995658376E+02  0.11368502841E+03  0.00000000000E+00 0. -1.
         -1    1    3    3    0  502  0.28708554787E+03  0.16192756840E+03 -0.23229086486E+03  0.40323404507E+03  0.00000000000E+00 0.  1.
         13    1    5    5    0    0 -0.49055459863E+03  0.39110802144E+02 -0.17888690676E+03  0.52361626644E+03  0.00000000000E+00 0. -1.
        -13    1    5    5    0    0 -0.12305425457E+03 -0.25728235755E+02 -0.15867001572E+02  0.12671248329E+03  0.00000000000E+00 0.  1.
          1    1    6    6  503    0  0.15623643139E+03 -0.15864935375E+03  0.11373346326E+03  0.25002947947E+03  0.00000000000E+00 0. -1.
         -1    1    6    6    0  503  0.10934360199E+03 -0.30299995750E+02  0.26304317331E+02  0.11647330230E+03  0.00000000000E+00 0.  1.
<mgrwt>
<rscale>  0 0.14854174E+04</rscale>
<asrwt>0</asrwt>
<pdfrwt beam="1">  1        2 0.14736563E+00 0.14854174E+04</pdfrwt>
<pdfrwt beam="2">  1       -1 0.88595997E-01 0.14854174E+04</pdfrwt>
<totfact> 0.37038934E+01</totfact>
</mgrwt>
</event>
<event>
12    7  0.1675873E-007  0.2383819E+04  0.7818608E-02  0.8445586E-01
         -1   -1    0    0    0  501 -0.00000000000E+00  0.00000000000E+00  0.53542425894E+03  0.53542425894E+03  0.00000000000E+00 0.  1.
          2   -1    0    0  501    0  0.00000000000E+00 -0.00000000000E+00 -0.26533140797E+04  0.26533140797E+04  0.00000000000E+00 0. -1.
         24    2    1    2    0    0  0.14901154284E+03 -0.86359633191E+03 -0.15900465065E+04  0.18172095599E+04  0.77457261840E+02 0.  0.
        254    2    1    2    0    0 -0.14901154284E+03  0.86359633191E+03 -0.52784331430E+03  0.13715287788E+04  0.91349305535E+03 0.  0.
         23    2    4    4    0    0 -0.14923882211E+03  0.66872671195E+03 -0.77846996583E+03  0.10409028415E+04  0.89418099344E+02 0.  0.
         23    2    4    4    0    0  0.22727927159E+00  0.19486961995E+03  0.25062665153E+03  0.33062593725E+03  0.92334021301E+02 0.  0.
          2    1    3    3  502    0  0.68517917322E+02 -0.21437297456E+03 -0.43480996516E+03  0.48960206598E+03  0.00000000000E+00 0. -1.
         -3    1    3    3    0  502  0.80493625517E+02 -0.64922335735E+03 -0.11552365413E+04  0.13276074939E+04  0.00000000000E+00 0.  1.
         13    1    5    5    0    0 -0.10168726284E+03  0.34052396405E+03 -0.34682764454E+03  0.49657455083E+03  0.00000000000E+00 0. -1.
        -13    1    5    5    0    0 -0.47551559272E+02  0.32820274790E+03 -0.43164232129E+03  0.54432829069E+03  0.00000000000E+00 0.  1.
          4    1    6    6  503    0  0.30940751103E+01  0.20659806779E+02  0.94156618639E+02  0.96446201327E+02  0.00000000000E+00 0. -1.
         -4    1    6    6    0  503 -0.28667958387E+01  0.17420981317E+03  0.15647003289E+03  0.23417973592E+03  0.00000000000E+00 0.  1.
<mgrwt>
<rscale>  0 0.23838194E+04</rscale>
<asrwt>0</asrwt>
<pdfrwt beam="1">  1        2 0.40820217E+00 0.23838194E+04</pdfrwt>
<pdfrwt beam="2">  1       -1 0.82372962E-01 0.23838194E+04</pdfrwt>
<totfact> 0.42482488E+00</totfact>
</mgrwt>
</event>
<event>
12    7  0.1675873E-007  0.1218587E+04  0.7818608E-02  0.9096741E-01
          2   -1    0    0  501    0  0.00000000000E+00  0.00000000000E+00  0.25020138199E+04  0.25020138199E+04  0.00000000000E+00 0. -1.
         -1   -1    0    0    0  501 -0.00000000000E+00 -0.00000000000E+00 -0.14837601674E+03  0.14837601674E+03  0.00000000000E+00 0.  1.
         24    2    1    2    0    0  0.10567048336E+02  0.18533755079E+03  0.96662449792E+03  0.98757082858E+03  0.80445952180E+02 0.  0.
        254    2    1    2    0    0 -0.10567048336E+02 -0.18533755079E+03  0.13870133053E+04  0.16628190081E+04  0.89816450301E+03 0.  0.
         23    2    4    4    0    0  0.14110392266E+03  0.29711643275E+02  0.13719618211E+04  0.13823903975E+04  0.89055454572E+02 0.  0.
         23    2    4    4    0    0 -0.15167097100E+03 -0.21504919407E+03  0.15051484186E+02  0.28042861055E+03  0.95725749545E+02 0.  0.
          4    1    3    3  502    0  0.45206238018E+02  0.96126648100E+02  0.47765299015E+03  0.48932230220E+03  0.00000000000E+00 0. -1.
         -3    1    3    3    0  502 -0.34639189681E+02  0.89210902694E+02  0.48897150777E+03  0.49824852638E+03  0.00000000000E+00 0.  1.
         13    1    5    5    0    0  0.12051418664E+03  0.11123782094E+02  0.74094728384E+03  0.75076646512E+03  0.00000000000E+00 0.  1.
        -13    1    5    5    0    0  0.20589736023E+02  0.18587861181E+02  0.63101453723E+03  0.63162393242E+03  0.00000000000E+00 0. -1.
          1    1    6    6  503    0 -0.19833579724E+02 -0.63021646317E+02  0.40656708980E+02  0.77576199793E+02  0.00000000000E+00 0. -1.
         -1    1    6    6    0  503 -0.13183739128E+03 -0.15202754775E+03 -0.25605224794E+02  0.20285241076E+03  0.00000000000E+00 0.  1.
<mgrwt>
<rscale>  0 0.12185875E+04</rscale>
<asrwt>0</asrwt>
<pdfrwt beam="1">  1        2 0.38492517E+00 0.12185875E+04</pdfrwt>
<pdfrwt beam="2">  1       -1 0.22827081E-01 0.12185875E+04</pdfrwt>
<totfact> 0.64156684E+01</totfact>
</mgrwt>
</event>
<event>
12    7  0.1675873E-007  0.1329035E+04  0.7818608E-02  0.9006852E-01
          2   -1    0    0  501    0  0.00000000000E+00  0.00000000000E+00  0.15226158377E+04  0.15226158377E+04  0.00000000000E+00 0. -1.
         -1   -1    0    0    0  501 -0.00000000000E+00 -0.00000000000E+00 -0.29001625345E+03  0.29001625345E+03  0.00000000000E+00 0.  1.
         24    2    1    2    0    0  0.21702268540E+03 -0.25769367612E+03  0.24800058027E+03  0.42850848495E+03  0.92792010277E+02 0.  0.
        254    2    1    2    0    0 -0.21702268540E+03  0.25769367612E+03  0.98459900393E+03  0.13841236061E+04  0.91261058610E+03 0.  0.
         23    2    4    4    0    0  0.20008808977E+02  0.42167732634E+03  0.91803514104E+02  0.44157879782E+03  0.91388344419E+02 0.  0.
         23    2    4    4    0    0 -0.23703149437E+03 -0.16398365022E+03  0.89279548983E+03  0.94254480832E+03  0.90732365643E+02 0.  0.
          2    1    3    3  502    0  0.42976588217E+02 -0.11943802207E+03  0.97815077021E+02  0.16025048375E+03  0.00000000000E+00 0. -1.
         -1    1    3    3    0  502  0.17404609718E+03 -0.13825565405E+03  0.15018550325E+03  0.26825800120E+03  0.00000000000E+00 0.  1.
         13    1    5    5    0    0  0.21577752873E+02  0.18970445632E+03  0.86324533798E+02  0.20953592843E+03  0.00000000000E+00 0. -1.
        -13    1    5    5    0    0 -0.15689438958E+01  0.23197287002E+03  0.54789803065E+01  0.23204286939E+03  0.00000000000E+00 0.  1.
          3    1    6    6  503    0 -0.22128422461E+03 -0.13078415719E+03  0.68736797370E+03  0.73385689007E+03  0.00000000000E+00 0. -1.
         -3    1    6    6    0  503 -0.15747269760E+02 -0.33199493039E+02  0.20542751613E+03  0.20868791825E+03  0.00000000000E+00 0.  1.
<mgrwt>
<rscale>  0 0.13290347E+04</rscale>
<asrwt>0</asrwt>
<pdfrwt beam="1">  1        2 0.23424859E+00 0.13290347E+04</pdfrwt>
<pdfrwt beam="2">  1       -1 0.44617886E-01 0.13290347E+04</pdfrwt>
<totfact> 0.68350197E+01</totfact>
</mgrwt>
</event>
<event>
12    7  0.1675873E-007  0.1334395E+04  0.7818608E-02  0.9002726E-01
          2   -1    0    0  501    0  0.00000000000E+00  0.00000000000E+00  0.36281194762E+03  0.36281194762E+03  0.00000000000E+00 0. -1.
         -1   -1    0    0    0  501 -0.00000000000E+00 -0.00000000000E+00 -0.12269507885E+04  0.12269507885E+04  0.00000000000E+00 0.  1.
         24    2    1    2    0    0 -0.85009182465E+02 -0.10033565764E+03 -0.63416662960E+03  0.65263677337E+03  0.80458924640E+02 0.  0.
        254    2    1    2    0    0  0.85009182465E+02  0.10033565764E+03 -0.22997221128E+03  0.93712596276E+03  0.89890157794E+03 0.  0.
         23    2    4    4    0    0 -0.25631840808E+03  0.34118138871E+03 -0.25976631646E+03  0.50800511085E+03  0.92123760012E+02 0.  0.
         23    2    4    4    0    0  0.34132759054E+03 -0.24084573107E+03  0.29794105176E+02  0.42912085192E+03  0.93519124278E+02 0.  0.
          2    1    3    3  502    0 -0.94402763733E+01 -0.66601018362E+02 -0.36084542953E+03  0.36706162763E+03  0.00000000000E+00 0. -1.
         -1    1    3    3    0  502 -0.75568906092E+02 -0.33734639276E+02 -0.27332120007E+03  0.28557514574E+03  0.00000000000E+00 0.  1.
         13    1    5    5    0    0 -0.25112703328E+03  0.31963890622E+03 -0.26499391071E+03  0.48523766334E+03  0.00000000000E+00 0.  1.
        -13    1    5    5    0    0 -0.51913747951E+01  0.21542482490E+02  0.52275942521E+01  0.22767447502E+02  0.00000000000E+00 0. -1.
          1    1    6    6  503    0  0.16450245778E+03 -0.66403442276E+02  0.34328742503E+02  0.18069017219E+03  0.00000000000E+00 0.  1.
         -1    1    6    6    0  503  0.17682513276E+03 -0.17444228880E+03 -0.45346373273E+01  0.24843067973E+03  0.00000000000E+00 0. -1.
<mgrwt>
<rscale>  0 0.13343949E+04</rscale>
<asrwt>0</asrwt>
<pdfrwt beam="1">  1        2 0.55817223E-01 0.13343949E+04</pdfrwt>
<pdfrwt beam="2">  1       -1 0.18876166E+00 0.13343949E+04</pdfrwt>
<totfact> 0.17909652E+01</totfact>
</mgrwt>
</event>
<event>
12    7  0.1675873E-007  0.1471102E+04  0.7818608E-02  0.8903900E-01
         -1   -1    0    0    0  501 -0.00000000000E+00  0.00000000000E+00  0.22299058113E+03  0.22299058113E+03  0.00000000000E+00 0.  1.
          2   -1    0    0  501    0  0.00000000000E+00 -0.00000000000E+00 -0.24262699568E+04  0.24262699568E+04  0.00000000000E+00 0. -1.
         24    2    1    2    0    0 -0.13133562361E+03 -0.24148141474E+03 -0.44077820191E+02  0.29023875664E+03  0.82057065076E+02 0.  0.
        254    2    1    2    0    0  0.13133562361E+03  0.24148141474E+03 -0.21592015555E+04  0.23590217813E+04  0.90954388996E+03 0.  0.
         23    2    4    4    0    0 -0.14108194234E+03 -0.22458744276E+03 -0.26498889695E+03  0.38708960662E+03  0.96309989873E+02 0.  0.
         23    2    4    4    0    0  0.27241756595E+03  0.46606885749E+03 -0.18942126585E+04  0.19719321747E+04  0.95096769823E+02 0.  0.
          4    1    3    3  502    0 -0.79482761671E+01 -0.58838115981E+01 -0.21091636928E+02  0.23294881010E+02  0.00000000000E+00 0. -1.
         -3    1    3    3    0  502 -0.12338734745E+03 -0.23559760314E+03 -0.22986183263E+02  0.26694387563E+03  0.00000000000E+00 0.  1.
         13    1    5    5    0    0 -0.49558551893E+02 -0.16308786809E+03 -0.14145948593E+03  0.22150505399E+03  0.00000000000E+00 0. -1.
        -13    1    5    5    0    0 -0.91523390443E+02 -0.61499574663E+02 -0.12352941101E+03  0.16558455262E+03  0.00000000000E+00 0.  1.
          2    1    6    6  503    0  0.19013046896E+03  0.26711831768E+03 -0.10100106071E+04  0.10618960483E+04  0.00000000000E+00 0. -1.
         -2    1    6    6    0  503  0.82287096989E+02  0.19895053982E+03 -0.88420205142E+03  0.91003612640E+03  0.00000000000E+00 0.  1.
<mgrwt>
<rscale>  0 0.14711021E+04</rscale>
<asrwt>0</asrwt>
<pdfrwt beam="1">  1        2 0.37327232E+00 0.14711021E+04</pdfrwt>
<pdfrwt beam="2">  1       -1 0.34306241E-01 0.14711021E+04</pdfrwt>
<totfact> 0.34143990E+01</totfact>
</mgrwt>
</event>
<event>
12    7  0.1675873E-007  0.1134176E+04  0.7818608E-02  0.9172508E-01
          2   -1    0    0  501    0  0.00000000000E+00  0.00000000000E+00  0.92258034951E+03  0.92258034951E+03  0.00000000000E+00 0. -1.
         -1   -1    0    0    0  501 -0.00000000000E+00 -0.00000000000E+00 -0.34857521243E+03  0.34857521243E+03  0.00000000000E+00 0.  1.
         24    2    1    2    0    0  0.17480935900E+03 -0.45247315095E+02  0.23511090041E+02  0.20017215900E+03  0.83129359238E+02 0.  0.
        254    2    1    2    0    0 -0.17480935900E+03  0.45247315095E+02  0.55049404703E+03  0.10709834029E+04  0.90075308605E+03 0.  0.
         23    2    4    4    0    0 -0.35160387963E+03 -0.32699189506E+03  0.22831836106E+03  0.53988429271E+03  0.93791193189E+02 0.  0.
         23    2    4    4    0    0  0.17679452063E+03  0.37223921015E+03  0.32217568597E+03  0.53109911023E+03  0.91928016127E+02 0.  0.
          2    1    3    3  502    0  0.18055912303E+01 -0.23627070680E+02  0.85131070166E+01  0.25178793054E+02  0.00000000000E+00 0. -1.
         -1    1    3    3    0  502  0.17300376777E+03 -0.21620244415E+02  0.14997983025E+02  0.17499336594E+03  0.00000000000E+00 0.  1.
         13    1    5    5    0    0 -0.26560199361E+02 -0.47668481163E+02  0.55340881628E+02  0.77719633722E+02  0.00000000000E+00 0.  1.
        -13    1    5    5    0    0 -0.32504368026E+03 -0.27932341390E+03  0.17297747943E+03  0.46216465899E+03  0.00000000000E+00 0. -1.
          4    1    6    6  503    0  0.13951782390E+03  0.18782442198E+03  0.17276653029E+03  0.29084619761E+03  0.00000000000E+00 0. -1.
         -4    1    6    6    0  503  0.37276696731E+02  0.18441478818E+03  0.14940915568E+03  0.24025291261E+03  0.00000000000E+00 0.  1.
<mgrwt>
<rscale>  0 0.11341757E+04</rscale>
<asrwt>0</asrwt>
<pdfrwt beam="1">  1        2 0.14193544E+00 0.11341757E+04</pdfrwt>
<pdfrwt beam="2">  1       -1 0.53626956E-01 0.11341757E+04</pdfrwt>
<totfact> 0.11228706E+02</totfact>
</mgrwt>
</event>
<event>
12    7  0.1675873E-007  0.1852588E+04  0.7818608E-02  0.8678823E-01
         -1   -1    0    0    0  501 -0.00000000000E+00  0.00000000000E+00  0.69783479428E+03  0.69783479428E+03  0.00000000000E+00 0.  1.
          2   -1    0    0  501    0  0.00000000000E+00 -0.00000000000E+00 -0.12295466964E+04  0.12295466964E+04  0.00000000000E+00 0. -1.
         24    2    1    2    0    0 -0.32577473002E+03 -0.46607056751E+02 -0.84767020733E+03  0.91289162216E+03  0.80777106652E+02 0.  0.
        254    2    1    2    0    0  0.32577473002E+03  0.46607056751E+02  0.31595830522E+03  0.10144898685E+04  0.90612286708E+03 0.  0.
         23    2    4    4    0    0  0.36739938889E+03  0.26698967096E+03  0.52064173589E+03  0.69693541197E+03  0.91571589225E+02 0.  0.
         23    2    4    4    0    0 -0.41624658874E+02 -0.22038261420E+03 -0.20468343067E+03  0.31755445655E+03  0.92975358115E+02 0.  0.
          4    1    3    3  502    0 -0.30044296967E+03 -0.25490383499E+02 -0.79990707447E+03  0.85484914778E+03  0.00000000000E+00 0. -1.
         -3    1    3    3    0  502 -0.25331760350E+02 -0.21116673251E+02 -0.47763132865E+02  0.58042474384E+02  0.00000000000E+00 0.  1.
         13    1    5    5    0    0  0.27851610649E+02  0.55257760027E+02  0.53149772653E+02  0.81572241553E+02  0.00000000000E+00 0. -1.
        -13    1    5    5    0    0  0.33954777824E+03  0.21173191093E+03  0.46749196323E+03  0.61536317041E+03  0.00000000000E+00 0.  1.
          4    1    6    6  503    0 -0.55082007976E+02 -0.84659405045E+02 -0.54819837284E+02  0.11491935009E+03  0.00000000000E+00 0. -1.
         -4    1    6    6    0  503  0.13457349102E+02 -0.13572320916E+03 -0.14986359338E+03  0.20263510646E+03  0.00000000000E+00 0.  1.
<mgrwt>
<rscale>  0 0.18525879E+04</rscale>
<asrwt>0</asrwt>
<pdfrwt beam="1">  1        2 0.18916103E+00 0.18525879E+04</pdfrwt>
<pdfrwt beam="2">  1       -1 0.10735920E+00 0.18525879E+04</pdfrwt>
<totfact> 0.15757543E+01</totfact>
</mgrwt>
</event>
<event>
12    7  0.1675873E-007  0.1386232E+04  0.7818608E-02  0.8963845E-01
         -1   -1    0    0    0  501 -0.00000000000E+00  0.00000000000E+00  0.13884914216E+03  0.13884914216E+03  0.00000000000E+00 0.  1.
          2   -1    0    0  501    0  0.00000000000E+00 -0.00000000000E+00 -0.34599414541E+04  0.34599414541E+04  0.00000000000E+00 0. -1.
         24    2    1    2    0    0  0.20072025734E+03 -0.48365351619E+02 -0.18254801687E+04  0.18388740741E+04  0.80325494541E+02 0.  0.
        254    2    1    2    0    0 -0.20072025734E+03  0.48365351619E+02 -0.14956121432E+04  0.17599165222E+04  0.90433547595E+03 0.  0.
         23    2    4    4    0    0  0.16528011781E+02  0.27273061429E+03 -0.68423675627E+02  0.29613542317E+03  0.91428804668E+02 0.  0.
         23    2    4    4    0    0 -0.21724826912E+03 -0.22436526267E+03 -0.14271884676E+04  0.14637810990E+04  0.90838329916E+02 0.  0.
          2    1    3    3  502    0  0.18376278523E+03 -0.61916213553E+02 -0.17360931661E+04  0.17468891952E+04  0.00000000000E+00 0. -1.
         -1    1    3    3    0  502  0.16957472106E+02  0.13550861934E+02 -0.89387002625E+02  0.91984878962E+02  0.00000000000E+00 0.  1.
         13    1    5    5    0    0 -0.16406860416E+02  0.23965030470E+03 -0.67222771756E+02  0.24944008229E+03  0.00000000000E+00 0. -1.
        -13    1    5    5    0    0  0.32934872198E+02  0.33080309593E+02 -0.12009038717E+01  0.46695340876E+02  0.00000000000E+00 0.  1.
          3    1    6    6  503    0 -0.19454723179E+03 -0.22851725994E+03 -0.12744845299E+04  0.13093431866E+04  0.00000000000E+00 0. -1.
         -3    1    6    6    0  503 -0.22701037331E+02  0.41519972675E+01 -0.15270393771E+03  0.15443791235E+03  0.00000000000E+00 0.  1.
<mgrwt>
<rscale>  0 0.13862322E+04</rscale>
<asrwt>0</asrwt>
<pdfrwt beam="1">  1        2 0.53229866E+00 0.13862322E+04</pdfrwt>
<pdfrwt beam="2">  1       -1 0.21361408E-01 0.13862322E+04</pdfrwt>
<totfact> 0.17912970E+01</totfact>
</mgrwt>
</event>
<event>
12    7  0.1675873E-007  0.1690155E+04  0.7818608E-02  0.8766999E-01
         -1   -1    0    0    0  501 -0.00000000000E+00  0.00000000000E+00  0.22502574656E+03  0.22502574656E+03  0.00000000000E+00 0.  1.
          2   -1    0    0  501    0  0.00000000000E+00 -0.00000000000E+00 -0.31736643980E+04  0.31736643980E+04  0.00000000000E+00 0. -1.
         24    2    1    2    0    0 -0.15713539570E+03  0.17194686907E+03 -0.23608824142E+04  0.23736987989E+04  0.80143348117E+02 0.  0.
        254    2    1    2    0    0  0.15713539570E+03 -0.17194686907E+03 -0.58775623729E+03  0.10249913456E+04  0.80677915550E+03 0.  0.
         23    2    4    4    0    0 -0.32061111138E+03 -0.50329663322E+02 -0.24856800370E+03  0.41959082752E+03  0.94582505409E+02 0.  0.
         23    2    4    4    0    0  0.47774650708E+03 -0.12161720575E+03 -0.33918823359E+03  0.60540051809E+03  0.91807732502E+02 0.  0.
          4    1    3    3  502    0  0.13476275118E+01  0.17598987105E+02 -0.39764897032E+03  0.39804050553E+03  0.00000000000E+00 0. -1.
         -3    1    3    3    0  502 -0.15848302321E+03  0.15434788197E+03 -0.19632334438E+04  0.19756582934E+04  0.00000000000E+00 0.  1.
         13    1    5    5    0    0 -0.17115508635E+02 -0.49104434673E+01 -0.52475080529E+02  0.55413781385E+02  0.00000000000E+00 0. -1.
        -13    1    5    5    0    0 -0.30349560274E+03 -0.45419219855E+02 -0.19609292317E+03  0.36417704614E+03  0.00000000000E+00 0.  1.
          1    1    6    6  503    0  0.19688452969E+01 -0.56879989817E+01 -0.19941772976E+02  0.20830362302E+02  0.00000000000E+00 0. -1.
         -1    1    6    6    0  503  0.47577766178E+03 -0.11592920677E+03 -0.31924646061E+03  0.58457015579E+03  0.00000000000E+00 0.  1.
<mgrwt>
<rscale>  0 0.16901553E+04</rscale>
<asrwt>0</asrwt>
<pdfrwt beam="1">  1        2 0.48825605E+00 0.16901553E+04</pdfrwt>
<pdfrwt beam="2">  1       -1 0.34619346E-01 0.16901553E+04</pdfrwt>
<totfact> 0.11650487E+01</totfact>
</mgrwt>
</event>
<event>
12    7  0.2767730E-007  0.2389277E+04  0.7818608E-02  0.8443529E-01
         -1   -1    0    0    0  501 -0.00000000000E+00  0.00000000000E+00  0.81956034160E+03  0.81956034160E+03  0.00000000000E+00 0.  1.
          2   -1    0    0  501    0  0.00000000000E+00 -0.00000000000E+00 -0.17413739073E+04  0.17413739073E+04  0.00000000000E+00 0. -1.
         24    2    1    2    0    0 -0.81895204281E+03  0.34855422068E+03  0.11995941129E+03  0.90168740837E+03  0.80482475613E+02 0.  0.
        254    2    1    2    0    0  0.81895204281E+03 -0.34855422068E+03 -0.10417729770E+04  0.16592468405E+04  0.93575458806E+03 0.  0.
         23    2    4    4    0    0  0.30879517929E+03 -0.95343089675E+02  0.12416038719E+03  0.35846592493E+03  0.92936806963E+02 0.  0.
         23    2    4    4    0    0  0.51015686351E+03 -0.25321113100E+03 -0.11659333642E+04  0.13007809156E+04  0.90854160320E+02 0.  0.
          4    1    3    3  502    0 -0.10565232168E+02  0.22392375440E+01  0.11173409379E+02  0.15539735927E+02  0.00000000000E+00 0. -1.
         -3    1    3    3    0  502 -0.80838681064E+03  0.34631498313E+03  0.10878600191E+03  0.88614767244E+03  0.00000000000E+00 0.  1.
         13    1    5    5    0    0  0.29904882733E+02 -0.56451325035E+01  0.46178380812E+02  0.55304723005E+02  0.00000000000E+00 0. -1.
        -13    1    5    5    0    0  0.27889029656E+03 -0.89697957172E+02  0.77982006375E+02  0.30316120193E+03  0.00000000000E+00 0.  1.
          3    1    6    6  503    0  0.14495265979E+02 -0.15801586806E+02 -0.17721827609E+02  0.27818448109E+02  0.00000000000E+00 0. -1.
         -3    1    6    6    0  503  0.49566159753E+03 -0.23740954420E+03 -0.11482115366E+04  0.12729624675E+04  0.00000000000E+00 0.  1.
<mgrwt>
<rscale>  0 0.23892769E+04</rscale>
<asrwt>0</asrwt>
<pdfrwt beam="1">  1        2 0.26790367E+00 0.23892769E+04</pdfrwt>
<pdfrwt beam="2">  1       -1 0.12608621E+00 0.23892769E+04</pdfrwt>
<totfact> 0.52194474E+00</totfact>
</mgrwt>
</event>
<event>
12    7  0.1675873E-007  0.1683259E+04  0.7818608E-02  0.8770971E-01
         -1   -1    0    0    0  501 -0.00000000000E+00  0.00000000000E+00  0.44285053237E+03  0.44285053237E+03  0.00000000000E+00 0.  1.
          2   -1    0    0  501    0  0.00000000000E+00 -0.00000000000E+00 -0.15995011504E+04  0.15995011504E+04  0.00000000000E+00 0. -1.
         24    2    1    2    0    0 -0.18187901559E+03 -0.15068365279E+03 -0.10968377032E+04  0.11248659459E+04  0.80528936157E+02 0.  0.
        254    2    1    2    0    0  0.18187901559E+03  0.15068365279E+03 -0.59812914835E+02  0.91748573687E+03  0.88454335849E+03 0.  0.
         23    2    4    4    0    0  0.18883113510E+03 -0.22770983719E+03 -0.32322625174E+03  0.44751332455E+03  0.91016472698E+02 0.  0.
         23    2    4    4    0    0 -0.69521195140E+01  0.37839348998E+03  0.26341333690E+03  0.46997241232E+03  0.90870881228E+02 0.  0.
          4    1    3    3  502    0 -0.55034232784E+02 -0.95479894173E+02 -0.43689586870E+03  0.45058093286E+03  0.00000000000E+00 0. -1.
         -3    1    3    3    0  502 -0.12684478280E+03 -0.55203758620E+02 -0.65994183453E+03  0.67428501307E+03  0.00000000000E+00 0.  1.
         13    1    5    5    0    0  0.18712410424E+03 -0.23544869167E+03 -0.30881231915E+03  0.43106445603E+03  0.00000000000E+00 0.  1.
        -13    1    5    5    0    0  0.17070308644E+01  0.77388544771E+01 -0.14413932588E+02  0.16448868522E+02  0.00000000000E+00 0. -1.
          4    1    6    6  503    0 -0.29028782762E+02  0.39570644407E+02  0.24913099851E+02  0.55037883968E+02  0.00000000000E+00 0. -1.
         -4    1    6    6    0  503  0.22076663248E+02  0.33882284557E+03  0.23850023705E+03  0.41493452835E+03  0.00000000000E+00 0.  1.
<mgrwt>
<rscale>  0 0.16832587E+04</rscale>
<asrwt>0</asrwt>
<pdfrwt beam="1">  1        2 0.24607710E+00 0.16832587E+04</pdfrwt>
<pdfrwt beam="2">  1       -1 0.68130850E-01 0.16832587E+04</pdfrwt>
<totfact> 0.26418411E+01</totfact>
</mgrwt>
</event>
<event>
12    7  0.1675873E-007  0.1141280E+04  0.7818608E-02  0.9165866E-01
         -1   -1    0    0    0  501 -0.00000000000E+00  0.00000000000E+00  0.27269846062E+03  0.27269846062E+03  0.00000000000E+00 0.  1.
          2   -1    0    0  501    0  0.00000000000E+00 -0.00000000000E+00 -0.11941037363E+04  0.11941037363E+04  0.00000000000E+00 0. -1.
         24    2    1    2    0    0  0.18961081443E+02  0.20410417744E+03 -0.21776854826E+03  0.30957948937E+03  0.79989260325E+02 0.  0.
        254    2    1    2    0    0 -0.18961081443E+02 -0.20410417744E+03 -0.70363672738E+03  0.11572227075E+04  0.89556781585E+03 0.  0.
         23    2    4    4    0    0  0.34723445423E+03 -0.28170498767E+03 -0.60929123234E+03  0.76130135757E+03  0.91730501758E+02 0.  0.
         23    2    4    4    0    0 -0.36619553568E+03  0.77600810226E+02 -0.94345495041E+02  0.39592134993E+03  0.87929442168E+02 0.  0.
          4    1    3    3  502    0  0.85100692159E+01  0.19003945008E+03 -0.22117490436E+03  0.29172890186E+03  0.00000000000E+00 0. -1.
         -3    1    3    3    0  502  0.10451012227E+02  0.14064727365E+02  0.34063560986E+01  0.17850587506E+02  0.00000000000E+00 0.  1.
         13    1    5    5    0    0  0.29005341015E+03 -0.27251510986E+03 -0.51896995218E+03  0.65400709255E+03  0.00000000000E+00 0.  1.
        -13    1    5    5    0    0  0.57181044086E+02 -0.91898778038E+01 -0.90321280158E+02  0.10729426502E+03  0.00000000000E+00 0. -1.
          4    1    6    6  503    0 -0.36739852047E+03  0.75142863182E+02 -0.82774170497E+02  0.38403083994E+03  0.00000000000E+00 0.  1.
         -4    1    6    6    0  503  0.12029847873E+01  0.24579470437E+01 -0.11571324544E+02  0.11890509988E+02  0.00000000000E+00 0. -1.
<mgrwt>
<rscale>  0 0.11412804E+04</rscale>
<asrwt>0</asrwt>
<pdfrwt beam="1">  1        2 0.18370827E+00 0.11412804E+04</pdfrwt>
<pdfrwt beam="2">  1       -1 0.41953609E-01 0.11412804E+04</pdfrwt>
<totfact> 0.12019985E+02</totfact>
</mgrwt>
</event>
<event>
12    7  0.1675873E-007  0.1335114E+04  0.7818608E-02  0.9002174E-01
         -1   -1    0    0    0  501 -0.00000000000E+00  0.00000000000E+00  0.31242813515E+03  0.31242813515E+03  0.00000000000E+00 0.  1.
          2   -1    0    0  501    0  0.00000000000E+00 -0.00000000000E+00 -0.14263509299E+04  0.14263509299E+04  0.00000000000E+00 0. -1.
         24    2    1    2    0    0  0.24343220452E+03 -0.18665926588E+03 -0.46939388396E+02  0.32009837453E+03  0.78477662173E+02 0.  0.
        254    2    1    2    0    0 -0.24343220452E+03  0.18665926588E+03 -0.10669834064E+04  0.14186806905E+04  0.88323292085E+03 0.  0.
         23    2    4    4    0    0  0.12361511679E+02  0.41382915304E+03 -0.95866698211E+03  0.10483335477E+04  0.92484970470E+02 0.  0.
         23    2    4    4    0    0 -0.25579371620E+03 -0.22716988716E+03 -0.10831642426E+03  0.37034714283E+03  0.91585891728E+02 0.  0.
          4    1    3    3  502    0  0.11359300376E+02  0.72734634834E+01 -0.64917899554E+01  0.14969312372E+02  0.00000000000E+00 0. -1.
         -3    1    3    3    0  502  0.23207290414E+03 -0.19393272936E+03 -0.40447598441E+02  0.30512906216E+03  0.00000000000E+00 0.  1.
         13    1    5    5    0    0  0.39438789377E+02  0.17478257965E+03 -0.33563078914E+03  0.38046339492E+03  0.00000000000E+00 0. -1.
        -13    1    5    5    0    0 -0.27077277698E+02  0.23904657338E+03 -0.62303619297E+03  0.66787015278E+03  0.00000000000E+00 0.  1.
          4    1    6    6  503    0  0.23205929566E+01 -0.17678078896E+02  0.59972234709E+01  0.18811334734E+02  0.00000000000E+00 0.  1.
         -4    1    6    6    0  503 -0.25811430915E+03 -0.20949180826E+03 -0.11431364773E+03  0.35153580810E+03  0.00000000000E+00 0. -1.
<mgrwt>
<rscale>  0 0.13351137E+04</rscale>
<asrwt>0</asrwt>
<pdfrwt beam="1">  1        2 0.21943860E+00 0.13351137E+04</pdfrwt>
<pdfrwt beam="2">  1       -1 0.48065868E-01 0.13351137E+04</pdfrwt>
<totfact> 0.67365167E+01</totfact>
</mgrwt>
</event>
<event>
12    7  0.1675873E-007  0.1577957E+04  0.7818608E-02  0.8834205E-01
          2   -1    0    0  501    0  0.00000000000E+00  0.00000000000E+00  0.16465702471E+04  0.16465702471E+04  0.00000000000E+00 0. -1.
         -1   -1    0    0    0  501 -0.00000000000E+00 -0.00000000000E+00 -0.37805075036E+03  0.37805075036E+03  0.00000000000E+00 0.  1.
         24    2    1    2    0    0  0.16762858851E+03  0.37360151761E+03  0.83474036016E+03  0.93324791479E+03  0.80515612935E+02 0.  0.
        254    2    1    2    0    0 -0.16762858851E+03 -0.37360151761E+03  0.43377913653E+03  0.10913730826E+04  0.91392200354E+03 0.  0.
         23    2    4    4    0    0  0.14703265678E+03 -0.55027949122E+03  0.42913648675E+03  0.71903709997E+03  0.91815610026E+02 0.  0.
         23    2    4    4    0    0 -0.31466124529E+03  0.17667797361E+03  0.46426497765E+01  0.37233598267E+03  0.91573599592E+02 0.  0.
          2    1    3    3  502    0  0.51394870501E+02  0.13829232642E+03  0.38822450426E+03  0.41531249195E+03  0.00000000000E+00 0. -1.
         -1    1    3    3    0  502  0.11623371801E+03  0.23530919119E+03  0.44651585591E+03  0.51793542284E+03  0.00000000000E+00 0.  1.
         13    1    5    5    0    0  0.61641136065E+02 -0.21444805076E+03  0.22490529303E+03  0.31681222666E+03  0.00000000000E+00 0.  1.
        -13    1    5    5    0    0  0.85391520714E+02 -0.33583144047E+03  0.20423119372E+03  0.40222487330E+03  0.00000000000E+00 0. -1.
          1    1    6    6  503    0 -0.45706116950E+02  0.48226057513E+02  0.30602428151E+02  0.73152651071E+02  0.00000000000E+00 0. -1.
         -1    1    6    6    0  503 -0.26895512834E+03  0.12845191610E+03 -0.25959778375E+02  0.29918333160E+03  0.00000000000E+00 0.  1.
<mgrwt>
<rscale>  0 0.15779571E+04</rscale>
<asrwt>0</asrwt>
<pdfrwt beam="1">  1        2 0.25331850E+00 0.15779571E+04</pdfrwt>
<pdfrwt beam="2">  1       -1 0.58161655E-01 0.15779571E+04</pdfrwt>
<totfact> 0.34423600E+01</totfact>
</mgrwt>
</event>
<event>
12    7  0.1675873E-007  0.2685409E+04  0.7818608E-02  0.8339755E-01
          2   -1    0    0  501    0  0.00000000000E+00  0.00000000000E+00  0.17152073084E+04  0.17152073084E+04  0.00000000000E+00 0. -1.
         -1   -1    0    0    0  501 -0.00000000000E+00 -0.00000000000E+00 -0.10511005076E+04  0.10511005076E+04  0.00000000000E+00 0.  1.
         24    2    1    2    0    0 -0.33498181807E+03  0.10278661663E+04  0.81099206378E+03  0.13534288672E+04  0.73074598255E+02 0.  0.
        254    2    1    2    0    0  0.33498181807E+03 -0.10278661663E+04 -0.14688526301E+03  0.14128789488E+04  0.89773602417E+03 0.  0.
         23    2    4    4    0    0  0.40309691237E+03 -0.26572679508E+03 -0.36187090352E+03  0.61184758335E+03  0.10153356119E+03 0.  0.
         23    2    4    4    0    0 -0.68115094301E+02 -0.76213937121E+03  0.21498564051E+03  0.80103136540E+03  0.99681169274E+02 0.  0.
          4    1    3    3  502    0 -0.15558478586E+03  0.49741032686E+03  0.43595613631E+03  0.67947142078E+03  0.00000000000E+00 0. -1.
         -1    1    3    3    0  502 -0.17939703221E+03  0.53045583942E+03  0.37503592746E+03  0.67395744646E+03  0.00000000000E+00 0.  1.
         13    1    5    5    0    0  0.30861440176E+03 -0.23909255700E+03 -0.32137475358E+03  0.50565782108E+03  0.00000000000E+00 0.  1.
        -13    1    5    5    0    0  0.94482510619E+02 -0.26634238081E+02 -0.40496149946E+02  0.10618976227E+03  0.00000000000E+00 0. -1.
          3    1    6    6  503    0 -0.16791162174E+02 -0.37474572118E+03  0.15408862270E+03  0.40553619113E+03  0.00000000000E+00 0. -1.
         -3    1    6    6    0  503 -0.51323932127E+02 -0.38739365003E+03  0.60897017810E+02  0.39549517427E+03  0.00000000000E+00 0.  1.
<mgrwt>
<rscale>  0 0.26854089E+04</rscale>
<asrwt>0</asrwt>
<pdfrwt beam="1">  1        2 0.26387805E+00 0.26854089E+04</pdfrwt>
<pdfrwt beam="2">  1       -1 0.16170777E+00 0.26854089E+04</pdfrwt>
<totfact> 0.27279925E+00</totfact>
</mgrwt>
</event>
<event>
12    7  0.1675873E-007  0.2563339E+04  0.7818608E-02  0.8380762E-01
         -1   -1    0    0    0  501 -0.00000000000E+00  0.00000000000E+00  0.12794974329E+04  0.12794974329E+04  0.00000000000E+00 0.  1.
          2   -1    0    0  501    0  0.00000000000E+00 -0.00000000000E+00 -0.12838455561E+04  0.12838455561E+04  0.00000000000E+00 0. -1.
         24    2    1    2    0    0  0.75546177413E+02 -0.11240994364E+04 -0.27062817324E+02  0.11298405815E+04  0.80626146433E+02 0.  0.
        254    2    1    2    0    0 -0.75546177413E+02  0.11240994364E+04  0.22714694151E+02  0.14335024075E+04  0.88606231557E+03 0.  0.
         23    2    4    4    0    0  0.31984251658E+03  0.12713241932E+03  0.27839244977E+02  0.35709638621E+03  0.90999549587E+02 0.  0.
         23    2    4    4    0    0 -0.39538869399E+03  0.99696701713E+03 -0.51245508260E+01  0.10764060213E+04  0.91368534561E+02 0.  0.
          2    1    3    3  502    0  0.55550218979E+02 -0.92764797421E+03  0.76774422017E+01  0.92934145179E+03  0.00000000000E+00 0. -1.
         -1    1    3    3    0  502  0.19995958434E+02 -0.19645146223E+03 -0.34740259526E+02  0.20049912967E+03  0.00000000000E+00 0.  1.
         13    1    5    5    0    0  0.32509719776E+03  0.12085882643E+03  0.31228512963E+02  0.34823880304E+03  0.00000000000E+00 0.  1.
        -13    1    5    5    0    0 -0.52546811832E+01  0.62735928876E+01 -0.33892679857E+01  0.88575831656E+01  0.00000000000E+00 0. -1.
          3    1    6    6  503    0 -0.11879195754E+03  0.37131861400E+03  0.33213200525E+02  0.39126993108E+03  0.00000000000E+00 0. -1.
         -3    1    6    6    0  503 -0.27659673645E+03  0.62564840313E+03 -0.38337751351E+02  0.68513609023E+03  0.00000000000E+00 0.  1.
<mgrwt>
<rscale>  0 0.25633393E+04</rscale>
<asrwt>0</asrwt>
<pdfrwt beam="1">  1        2 0.19751470E+00 0.25633393E+04</pdfrwt>
<pdfrwt beam="2">  1       -1 0.19684576E+00 0.25633393E+04</pdfrwt>
<totfact> 0.27032996E+00</totfact>
</mgrwt>
</event>
<event>
12    7  0.1675873E-007  0.3845879E+04  0.7818608E-02  0.8036381E-01
         -1   -1    0    0    0  501 -0.00000000000E+00  0.00000000000E+00  0.15551869584E+04  0.15551869584E+04  0.00000000000E+00 0.  1.
          2   -1    0    0  501    0  0.00000000000E+00 -0.00000000000E+00 -0.23776533145E+04  0.23776533145E+04  0.00000000000E+00 0. -1.
         24    2    1    2    0    0 -0.75759295903E+03  0.16332460125E+04 -0.61889449920E+03  0.19054166706E+04  0.78375115517E+02 0.  0.
        254    2    1    2    0    0  0.75759295903E+03 -0.16332460125E+04 -0.20357185688E+03  0.20274236022E+04  0.90970617952E+03 0.  0.
         23    2    4    4    0    0  0.87549885372E+03 -0.16456974828E+04 -0.15919725382E+03  0.18732143691E+04  0.93647527519E+02 0.  0.
         23    2    4    4    0    0 -0.11790589469E+03  0.12451470331E+02 -0.44374603059E+02  0.15420923306E+03  0.88059883303E+02 0.  0.
          4    1    3    3  502    0 -0.65789464119E+03  0.13554096787E+04 -0.50492992258E+03  0.15889981066E+04  0.00000000000E+00 0. -1.
         -3    1    3    3    0  502 -0.99698317842E+02  0.27783633381E+03 -0.11396457662E+03  0.31641856407E+03  0.00000000000E+00 0.  1.
         13    1    5    5    0    0  0.49782702466E+03 -0.91630123195E+03 -0.13478036182E+03  0.10514777411E+04  0.00000000000E+00 0.  1.
        -13    1    5    5    0    0  0.37767182906E+03 -0.72939625085E+03 -0.24416891999E+02  0.82173662802E+03  0.00000000000E+00 0. -1.
          4    1    6    6  503    0 -0.13203527177E+02  0.56493578398E+01 -0.47110110453E+02  0.49250491173E+02  0.00000000000E+00 0. -1.
         -4    1    6    6    0  503 -0.10470236751E+03  0.68021124911E+01  0.27355073933E+01  0.10495874189E+03  0.00000000000E+00 0.  1.
<mgrwt>
<rscale>  0 0.38458785E+04</rscale>
<asrwt>0</asrwt>
<pdfrwt beam="1">  1        2 0.36579282E+00 0.38458785E+04</pdfrwt>
<pdfrwt beam="2">  1       -1 0.23925953E+00 0.38458785E+04</pdfrwt>
<totfact> 0.30483775E-01</totfact>
</mgrwt>
</event>
<event>
12    7  0.1675873E-007  0.1497896E+04  0.7818608E-02  0.8885853E-01
         -1   -1    0    0    0  501 -0.00000000000E+00  0.00000000000E+00  0.42101016463E+03  0.42101016463E+03  0.00000000000E+00 0.  1.
          2   -1    0    0  501    0  0.00000000000E+00 -0.00000000000E+00 -0.13323271818E+04  0.13323271818E+04  0.00000000000E+00 0. -1.
         24    2    1    2    0    0  0.34151497526E+03  0.36543987488E+03 -0.24033519103E+03  0.56057939258E+03  0.79432177718E+02 0.  0.
        254    2    1    2    0    0 -0.34151497526E+03 -0.36543987488E+03 -0.67098182611E+03  0.11927579538E+04  0.84986831036E+03 0.  0.
         23    2    4    4    0    0 -0.43818787550E+02 -0.32257898280E+03 -0.78897055337E+03  0.85854405415E+03  0.92984259699E+02 0.  0.
         23    2    4    4    0    0 -0.29769618771E+03 -0.42860892079E+02  0.11798872726E+03  0.33421389966E+03  0.85542473216E+02 0.  0.
          2    1    3    3  502    0  0.63594052146E+01  0.24191357513E+02 -0.27137445145E+02  0.36906703212E+02  0.00000000000E+00 0. -1.
         -1    1    3    3    0  502  0.33515557004E+03  0.34124851737E+03 -0.21319774589E+03  0.52367268937E+03  0.00000000000E+00 0.  1.
         13    1    5    5    0    0 -0.11428267883E+02 -0.20098762304E+03 -0.58722345207E+03  0.62077211002E+03  0.00000000000E+00 0. -1.
        -13    1    5    5    0    0 -0.32390519667E+02 -0.12159135976E+03 -0.20174710130E+03  0.23777194413E+03  0.00000000000E+00 0.  1.
          1    1    6    6  503    0 -0.28111500490E+03 -0.16712945966E+02  0.10348996452E+03  0.30002523444E+03  0.00000000000E+00 0. -1.
         -1    1    6    6    0  503 -0.16581182810E+02 -0.26147946112E+02  0.14498762738E+02  0.34188665230E+02  0.00000000000E+00 0.  1.
<mgrwt>
<rscale>  0 0.14978962E+04</rscale>
<asrwt>0</asrwt>
<pdfrwt beam="1">  1        2 0.20497341E+00 0.14978962E+04</pdfrwt>
<pdfrwt beam="2">  1       -1 0.64770796E-01 0.14978962E+04</pdfrwt>
<totfact> 0.42144105E+01</totfact>
</mgrwt>
</event>
<event>
12    7  0.1675873E-007  0.2454548E+04  0.7818608E-02  0.8419359E-01
         -1   -1    0    0    0  501 -0.00000000000E+00  0.00000000000E+00  0.11884441388E+04  0.11884441388E+04  0.00000000000E+00 0.  1.
          2   -1    0    0  501    0  0.00000000000E+00 -0.00000000000E+00 -0.12673728346E+04  0.12673728346E+04  0.00000000000E+00 0. -1.
         24    2    1    2    0    0 -0.29590612196E+02 -0.10526609828E+04  0.95235191403E+02  0.10604122959E+04  0.80210638823E+02 0.  0.
        254    2    1    2    0    0  0.29590612196E+02  0.10526609828E+04 -0.17416388721E+03  0.13954046774E+04  0.89880498718E+03 0.  0.
         23    2    4    4    0    0 -0.12607742569E+03 -0.11958295770E+03  0.22651654932E+01  0.19641200264E+03  0.91525639925E+02 0.  0.
         23    2    4    4    0    0  0.15566803788E+03  0.11722439405E+04 -0.17642905270E+03  0.11989926748E+04  0.89821096383E+02 0.  0.
          4    1    3    3  502    0  0.11534329935E+02 -0.45753245451E+02  0.14839717177E+02  0.49463293888E+02  0.00000000000E+00 0. -1.
         -3    1    3    3    0  502 -0.41124942130E+02 -0.10069077374E+04  0.80395474226E+02  0.10109490020E+04  0.00000000000E+00 0.  1.
         13    1    5    5    0    0 -0.13412143984E+03 -0.83194510496E+02  0.10739704684E+02  0.15819364228E+03  0.00000000000E+00 0. -1.
        -13    1    5    5    0    0  0.80440141514E+01 -0.36388447206E+02 -0.84745391910E+01  0.38218360355E+02  0.00000000000E+00 0.  1.
          4    1    6    6  503    0  0.30202712776E+02  0.78594495610E+02 -0.49341604999E+00  0.84199418398E+02  0.00000000000E+00 0. -1.
         -4    1    6    6    0  503  0.12546532511E+03  0.10936494449E+04 -0.17593563665E+03  0.11147932564E+04  0.00000000000E+00 0.  1.
<mgrwt>
<rscale>  0 0.24545483E+04</rscale>
<asrwt>0</asrwt>
<pdfrwt beam="1">  1        2 0.19498044E+00 0.24545483E+04</pdfrwt>
<pdfrwt beam="2">  1       -1 0.18283756E+00 0.24545483E+04</pdfrwt>
<totfact> 0.35000953E+00</totfact>
</mgrwt>
</event>
<event>
12    7  0.1675873E-007  0.1876035E+04  0.7818608E-02  0.8666878E-01
         -1   -1    0    0    0  501 -0.00000000000E+00  0.00000000000E+00  0.26297757949E+03  0.26297757949E+03  0.00000000000E+00 0.  1.
          2   -1    0    0  501    0  0.00000000000E+00 -0.00000000000E+00 -0.33458236652E+04  0.33458236652E+04  0.00000000000E+00 0. -1.
         24    2    1    2    0    0  0.27628560745E+03  0.59440673259E+03 -0.63236550860E+03  0.91447678171E+03  0.82027722089E+02 0.  0.
        254    2    1    2    0    0 -0.27628560745E+03 -0.59440673259E+03 -0.24504805771E+04  0.26943244630E+04  0.90822692782E+03 0.  0.
         23    2    4    4    0    0  0.24109628341E+03  0.72522933288E+02 -0.54977597532E+03  0.61265221458E+03  0.98499336390E+02 0.  0.
         23    2    4    4    0    0 -0.51738189086E+03 -0.66692966588E+03 -0.19007046018E+04  0.20816722484E+04  0.90565811829E+02 0.  0.
          2    1    3    3  502    0  0.29309723466E+02  0.20408777118E+02 -0.34089879838E+02  0.49373049131E+02  0.00000000000E+00 0. -1.
         -1    1    3    3    0  502  0.24697588399E+03  0.57399795547E+03 -0.59827562876E+03  0.86510373258E+03  0.00000000000E+00 0.  1.
         13    1    5    5    0    0  0.24068604937E+03  0.56786175564E+02 -0.54048620936E+03  0.59437344035E+03  0.00000000000E+00 0.  1.
        -13    1    5    5    0    0  0.41023404413E+00  0.15736757724E+02 -0.92897659603E+01  0.18278774227E+02  0.00000000000E+00 0. -1.
          2    1    6    6  503    0 -0.58149346089E+02 -0.12807453087E+03 -0.29570841939E+03  0.32745671654E+03  0.00000000000E+00 0. -1.
         -2    1    6    6    0  503 -0.45923254477E+03 -0.53885513500E+03 -0.16049961824E+04  0.17542155319E+04  0.00000000000E+00 0.  1.
<mgrwt>
<rscale>  0 0.18760348E+04</rscale>
<asrwt>0</asrwt>
<pdfrwt beam="1">  1        2 0.51474210E+00 0.18760348E+04</pdfrwt>
<pdfrwt beam="2">  1       -1 0.40458089E-01 0.18760348E+04</pdfrwt>
<totfact> 0.66500533E+00</totfact>
</mgrwt>
</event>
<event>
12    7  0.1675873E-007  0.1896548E+04  0.7818608E-02  0.8656577E-01
          2   -1    0    0  501    0  0.00000000000E+00  0.00000000000E+00  0.66827610006E+03  0.66827610006E+03  0.00000000000E+00 0. -1.
         -1   -1    0    0    0  501 -0.00000000000E+00 -0.00000000000E+00 -0.13455863665E+04  0.13455863665E+04  0.00000000000E+00 0.  1.
         24    2    1    2    0    0  0.30081038746E+03 -0.46082454846E+03  0.25821817744E+03  0.61314162299E+03  0.80124085139E+02 0.  0.
        254    2    1    2    0    0 -0.30081038746E+03  0.46082454846E+03 -0.93552844392E+03  0.14007208436E+04  0.88541473821E+03 0.  0.
         23    2    4    4    0    0 -0.23019398699E+03  0.47778352119E+03 -0.88405084450E+02  0.54541113997E+03  0.91605064699E+02 0.  0.
         23    2    4    4    0    0 -0.70616400475E+02 -0.16958972733E+02 -0.84712335947E+03  0.85530970363E+03  0.93072123578E+02 0.  0.
          4    1    3    3  502    0  0.22657960191E+03 -0.38004645502E+03  0.23503200337E+03  0.50101264114E+03  0.00000000000E+00 0. -1.
         -3    1    3    3    0  502  0.74230785550E+02 -0.80778093444E+02  0.23186174067E+02  0.11212898185E+03  0.00000000000E+00 0.  1.
         13    1    5    5    0    0 -0.19928511729E+03  0.37485447073E+03 -0.10327737699E+03  0.43691721046E+03  0.00000000000E+00 0. -1.
        -13    1    5    5    0    0 -0.30908869700E+02  0.10292905047E+03  0.14872292536E+02  0.10849392952E+03  0.00000000000E+00 0.  1.
          1    1    6    6  503    0 -0.11769483616E+01 -0.41106710698E+02 -0.21253900066E+03  0.21648088524E+03  0.00000000000E+00 0. -1.
         -1    1    6    6    0  503 -0.69439452114E+02  0.24147737965E+02 -0.63458435881E+03  0.63882881839E+03  0.00000000000E+00 0.  1.
<mgrwt>
<rscale>  0 0.18965476E+04</rscale>
<asrwt>0</asrwt>
<pdfrwt beam="1">  1        2 0.10281171E+00 0.18965476E+04</pdfrwt>
<pdfrwt beam="2">  1       -1 0.20701329E+00 0.18965476E+04</pdfrwt>
<totfact> 0.62586538E+00</totfact>
</mgrwt>
</event>
<event>
12    7  0.1675873E-007  0.1358899E+04  0.7818608E-02  0.8984119E-01
         -1   -1    0    0    0  501 -0.00000000000E+00  0.00000000000E+00  0.54959084623E+03  0.54959084623E+03  0.00000000000E+00 0.  1.
          2   -1    0    0  501    0  0.00000000000E+00 -0.00000000000E+00 -0.83999150702E+03  0.83999150702E+03  0.00000000000E+00 0. -1.
         24    2    1    2    0    0  0.18299917915E+03 -0.32299657268E+03 -0.12796139006E+03  0.40055744691E+03  0.79099085933E+02 0.  0.
        254    2    1    2    0    0 -0.18299917915E+03  0.32299657268E+03 -0.16243927073E+03  0.98902490633E+03  0.90220189710E+03 0.  0.
         23    2    4    4    0    0 -0.16056732961E+03  0.90094007037E+02 -0.51643213753E+03  0.55596472134E+03  0.92172779363E+02 0.  0.
         23    2    4    4    0    0 -0.22431849548E+02  0.23290256565E+03  0.35399286679E+03  0.43306018500E+03  0.86506538083E+02 0.  0.
          4    1    3    3  502    0  0.18499525309E+03 -0.27463304029E+03 -0.11343360522E+03  0.35001961842E+03  0.00000000000E+00 0. -1.
         -3    1    3    3    0  502 -0.19960739350E+01 -0.48363532389E+02 -0.14527784835E+02  0.50537828490E+02  0.00000000000E+00 0.  1.
         13    1    5    5    0    0 -0.12290354969E+03  0.86651919129E+02 -0.48165794076E+03  0.50458716741E+03  0.00000000000E+00 0.  1.
        -13    1    5    5    0    0 -0.37663779912E+02  0.34420879075E+01 -0.34774196765E+02  0.51377553923E+02  0.00000000000E+00 0. -1.
          1    1    6    6  503    0  0.11473019314E+02  0.79342391511E+02  0.18812513503E+03  0.20449428279E+03  0.00000000000E+00 0. -1.
         -1    1    6    6    0  503 -0.33904868861E+02  0.15356017413E+03  0.16586773177E+03  0.22856590221E+03  0.00000000000E+00 0.  1.
<mgrwt>
<rscale>  0 0.13588990E+04</rscale>
<asrwt>0</asrwt>
<pdfrwt beam="1">  1        2 0.12922946E+00 0.13588990E+04</pdfrwt>
<pdfrwt beam="2">  1       -1 0.84552438E-01 0.13588990E+04</pdfrwt>
<totfact> 0.49796058E+01</totfact>
</mgrwt>
</event>
<event>
12    7  0.1675873E-007  0.1273524E+04  0.7818608E-02  0.9050828E-01
          2   -1    0    0  501    0  0.00000000000E+00  0.00000000000E+00  0.87965046265E+03  0.87965046265E+03  0.00000000000E+00 0. -1.
         -1   -1    0    0    0  501 -0.00000000000E+00 -0.00000000000E+00 -0.46093985432E+03  0.46093985432E+03  0.00000000000E+00 0.  1.
         24    2    1    2    0    0 -0.13563077275E+03 -0.10617912636E+03  0.34914758238E+03  0.39753248432E+03  0.80363725762E+02 0.  0.
        254    2    1    2    0    0  0.13563077275E+03  0.10617912636E+03  0.69563025950E+02  0.94305783265E+03  0.92458063345E+03 0.  0.
         23    2    4    4    0    0  0.16250025291E+03 -0.13313100073E+03 -0.36983958498E+03  0.43325470238E+03  0.82450730519E+02 0.  0.
         23    2    4    4    0    0 -0.26869480161E+02  0.23931012709E+03  0.43940261093E+03  0.50980313027E+03  0.93985484239E+02 0.  0.
          4    1    3    3  502    0 -0.14659659432E+03 -0.99267388317E+02  0.32789483460E+03  0.37263869688E+03  0.00000000000E+00 0. -1.
         -3    1    3    3    0  502  0.10965821568E+02 -0.69117380414E+01  0.21252747777E+02  0.24893787448E+02  0.00000000000E+00 0.  1.
         13    1    5    5    0    0  0.14281610160E+03 -0.14040399766E+03 -0.35485174220E+03  0.40746715251E+03  0.00000000000E+00 0.  1.
        -13    1    5    5    0    0  0.19684151304E+02  0.72729969258E+01 -0.14987842786E+02  0.25787549868E+02  0.00000000000E+00 0. -1.
          4    1    6    6  503    0 -0.51440241398E+02  0.14738205074E+03  0.32829523299E+03  0.36351798762E+03  0.00000000000E+00 0.  1.
         -4    1    6    6    0  503  0.24570761237E+02  0.91928076343E+02  0.11110737795E+03  0.14628514266E+03  0.00000000000E+00 0. -1.
<mgrwt>
<rscale>  0 0.12735242E+04</rscale>
<asrwt>0</asrwt>
<pdfrwt beam="1">  1        2 0.13533084E+00 0.12735242E+04</pdfrwt>
<pdfrwt beam="2">  1       -1 0.70913824E-01 0.12735242E+04</pdfrwt>
<totfact> 0.68171641E+01</totfact>
</mgrwt>
</event>
<event>
12    7  0.1675873E-007  0.1636623E+04  0.7818608E-02  0.8798360E-01
         -1   -1    0    0    0  501 -0.00000000000E+00  0.00000000000E+00  0.93306346401E+03  0.93306346401E+03  0.00000000000E+00 0.  1.
          2   -1    0    0  501    0  0.00000000000E+00 -0.00000000000E+00 -0.71767233042E+03  0.71767233042E+03  0.00000000000E+00 0. -1.
         24    2    1    2    0    0  0.39961947851E+03  0.12900141818E+03  0.47069593949E+03  0.63582025697E+03  0.79847593758E+02 0.  0.
        254    2    1    2    0    0 -0.39961947851E+03 -0.12900141818E+03 -0.25530480590E+03  0.10149155375E+04  0.88799544524E+03 0.  0.
         23    2    4    4    0    0  0.22401791521E+03  0.14712021467E+03 -0.61866466660E+01  0.28304715878E+03  0.90824201591E+02 0.  0.
         23    2    4    4    0    0 -0.62363739372E+03 -0.27612163286E+03 -0.24911815923E+03  0.73186837868E+03  0.91677213504E+02 0.  0.
          2    1    3    3  502    0  0.54438215253E+01 -0.22486191388E+01  0.28396192734E+02  0.29000607625E+02  0.00000000000E+00 0. -1.
         -1    1    3    3    0  502  0.39417565699E+03  0.13125003732E+03  0.44229974675E+03  0.60681964935E+03  0.00000000000E+00 0.  1.
         13    1    5    5    0    0  0.14965193470E+03  0.63028099398E+02  0.29938907668E+02  0.16511989906E+03  0.00000000000E+00 0.  1.
        -13    1    5    5    0    0  0.74365980512E+02  0.84092115277E+02 -0.36125554334E+02  0.11792725972E+03  0.00000000000E+00 0. -1.
          1    1    6    6  503    0 -0.15084841142E+03 -0.11053184592E+03 -0.75745849100E+02  0.20176710794E+03  0.00000000000E+00 0. -1.
         -1    1    6    6    0  503 -0.47278898230E+03 -0.16558978694E+03 -0.17337231013E+03  0.53010127074E+03  0.00000000000E+00 0.  1.
<mgrwt>
<rscale>  0 0.16366231E+04</rscale>
<asrwt>0</asrwt>
<pdfrwt beam="1">  1        2 0.11041113E+00 0.16366231E+04</pdfrwt>
<pdfrwt beam="2">  1       -1 0.14354822E+00 0.16366231E+04</pdfrwt>
<totfact> 0.17010963E+01</totfact>
</mgrwt>
</event>
<event>
12    7  0.1675873E-007  0.2596734E+04  0.7818608E-02  0.8369311E-01
          2   -1    0    0  501    0  0.00000000000E+00  0.00000000000E+00  0.16442214635E+04  0.16442214635E+04  0.00000000000E+00 0. -1.
         -1   -1    0    0    0  501 -0.00000000000E+00 -0.00000000000E+00 -0.10252618039E+04  0.10252618039E+04  0.00000000000E+00 0.  1.
         24    2    1    2    0    0  0.26388640361E+03  0.51750255029E+03 -0.73827746705E+03  0.94531325384E+03  0.10544480063E+03 0.  0.
        254    2    1    2    0    0 -0.26388640361E+03 -0.51750255029E+03  0.13572371267E+04  0.17241700135E+04  0.89063162642E+03 0.  0.
         23    2    4    4    0    0 -0.61963663618E+02 -0.70686738348E+03  0.11894752122E+04  0.13879520706E+04  0.89770131295E+02 0.  0.
         23    2    4    4    0    0 -0.20192273999E+03  0.18936483319E+03  0.16776191444E+03  0.33621794288E+03  0.90920911817E+02 0.  0.
          4    1    3    3  502    0  0.64413858889E+02  0.86014690352E+02 -0.83057091133E+02  0.13581661371E+03  0.00000000000E+00 0. -1.
         -3    1    3    3    0  502  0.19947254472E+03  0.43148785994E+03 -0.65522037591E+03  0.80949664013E+03  0.00000000000E+00 0.  1.
         13    1    5    5    0    0 -0.50630879337E+02 -0.16093300079E+03  0.25974970688E+03  0.30973024862E+03  0.00000000000E+00 0.  1.
        -13    1    5    5    0    0 -0.11332784281E+02 -0.54593438269E+03  0.92972550534E+03  0.10782218220E+04  0.00000000000E+00 0. -1.
          3    1    6    6  503    0 -0.19776341331E+03  0.19877582013E+03  0.16578535115E+03  0.32574065907E+03  0.00000000000E+00 0. -1.
         -3    1    6    6    0  503 -0.41593266802E+01 -0.94109869441E+01  0.19765632889E+01  0.10477283815E+02  0.00000000000E+00 0.  1.
<mgrwt>
<rscale>  0 0.25967345E+04</rscale>
<asrwt>0</asrwt>
<pdfrwt beam="1">  1        2 0.25295715E+00 0.25967345E+04</pdfrwt>
<pdfrwt beam="2">  1       -1 0.15773259E+00 0.25967345E+04</pdfrwt>
<totfact> 0.32273573E+00</totfact>
</mgrwt>
</event>
<event>
12    7  0.2003719E-007  0.2662256E+04  0.7818608E-02  0.8347356E-01
          2   -1    0    0  501    0  0.00000000000E+00  0.00000000000E+00  0.18692775408E+04  0.18692775408E+04  0.00000000000E+00 0. -1.
         -1   -1    0    0    0  501 -0.00000000000E+00 -0.00000000000E+00 -0.94790727430E+03  0.94790727430E+03  0.00000000000E+00 0.  1.
         24    2    1    2    0    0 -0.82894277298E+03 -0.26434254057E+03  0.12922145908E+04  0.15598115315E+04  0.78551674118E+02 0.  0.
        254    2    1    2    0    0  0.82894277298E+03  0.26434254057E+03 -0.37084432433E+03  0.12573732836E+04  0.82851612036E+03 0.  0.
         23    2    4    4    0    0  0.72293680666E+03 -0.40510360100E+02 -0.51314909026E+03  0.89222354849E+03  0.91989977418E+02 0.  0.
         23    2    4    4    0    0  0.10600596632E+03  0.30485290067E+03  0.14230476593E+03  0.36514973507E+03  0.94398764183E+02 0.  0.
          4    1    3    3  502    0 -0.68654052650E+03 -0.24445018161E+03  0.11067826821E+04  0.13251647789E+04  0.00000000000E+00 0. -1.
         -3    1    3    3    0  502 -0.14240224649E+03 -0.19892358953E+02  0.18543190871E+03  0.23464675262E+03  0.00000000000E+00 0.  1.
         13    1    5    5    0    0  0.69518137273E+03 -0.20738557486E+02 -0.48336544774E+03  0.84696480731E+03  0.00000000000E+00 0.  1.
        -13    1    5    5    0    0  0.27755433933E+02 -0.19771802613E+02 -0.29783642518E+02  0.45258741178E+02  0.00000000000E+00 0. -1.
          1    1    6    6  503    0  0.36183354858E+02  0.56977334396E+02 -0.63639596217E+01  0.67794924483E+02  0.00000000000E+00 0. -1.
         -1    1    6    6    0  503  0.69822611462E+02  0.24787556627E+03  0.14866872555E+03  0.29735481059E+03  0.00000000000E+00 0.  1.
<mgrwt>
<rscale>  0 0.26622560E+04</rscale>
<asrwt>0</asrwt>
<pdfrwt beam="1">  1        2 0.28758116E+00 0.26622560E+04</pdfrwt>
<pdfrwt beam="2">  1       -1 0.14583189E+00 0.26622560E+04</pdfrwt>
<totfact> 0.29762749E+00</totfact>
</mgrwt>
</event>
<event>
12    7  0.1675873E-007  0.3049702E+04  0.7818608E-02  0.8229679E-01
          2   -1    0    0  501    0  0.00000000000E+00  0.00000000000E+00  0.24651162634E+04  0.24651162634E+04  0.00000000000E+00 0. -1.
         -1   -1    0    0    0  501 -0.00000000000E+00 -0.00000000000E+00 -0.94322966131E+03  0.94322966131E+03  0.00000000000E+00 0.  1.
         24    2    1    2    0    0  0.41178141079E+02 -0.99995390826E+03 -0.37432053861E+03  0.10716411891E+04  0.81826123963E+02 0.  0.
        254    2    1    2    0    0 -0.41178141079E+02  0.99995390826E+03  0.18962071407E+04  0.23367047357E+04  0.92896934457E+03 0.  0.
         23    2    4    4    0    0 -0.19430450336E+03  0.63611304746E+03  0.38985931934E+03  0.77678317507E+03  0.94909235637E+02 0.  0.
         23    2    4    4    0    0  0.15312636228E+03  0.36384086079E+03  0.15063478214E+04  0.15599215606E+04  0.91889397598E+02 0.  0.
          4    1    3    3  502    0  0.41896032785E+02 -0.36910857043E+03 -0.17002633421E+03  0.40854053490E+03  0.00000000000E+00 0. -1.
         -3    1    3    3    0  502 -0.71789170574E+00 -0.63084533782E+03 -0.20429420440E+03  0.66310065418E+03  0.00000000000E+00 0.  1.
         13    1    5    5    0    0 -0.10073600011E+03  0.24024397339E+03  0.19696207464E+03  0.32658684498E+03  0.00000000000E+00 0.  1.
        -13    1    5    5    0    0 -0.93568503255E+02  0.39586907407E+03  0.19289724470E+03  0.45019633008E+03  0.00000000000E+00 0. -1.
          2    1    6    6  503    0  0.10436528815E+02  0.11215128444E+03  0.33754952267E+03  0.35584619147E+03  0.00000000000E+00 0. -1.
         -2    1    6    6    0  503  0.14268983347E+03  0.25168957636E+03  0.11687982987E+04  0.12040753691E+04  0.00000000000E+00 0.  1.
<mgrwt>
<rscale>  0 0.30497021E+04</rscale>
<asrwt>0</asrwt>
<pdfrwt beam="1">  1        2 0.37924865E+00 0.30497021E+04</pdfrwt>
<pdfrwt beam="2">  1       -1 0.14511226E+00 0.30497021E+04</pdfrwt>
<totfact> 0.13471463E+00</totfact>
</mgrwt>
</event>
<event>
12    7  0.1675873E-007  0.1927229E+04  0.7818608E-02  0.8641420E-01
         -1   -1    0    0    0  501 -0.00000000000E+00  0.00000000000E+00  0.40654284443E+03  0.40654284443E+03  0.00000000000E+00 0.  1.
          2   -1    0    0  501    0  0.00000000000E+00 -0.00000000000E+00 -0.22840218510E+04  0.22840218510E+04  0.00000000000E+00 0. -1.
         24    2    1    2    0    0 -0.27918982608E+03 -0.28446526612E+03 -0.16308048726E+04  0.16808384250E+04  0.82618592013E+02 0.  0.
        254    2    1    2    0    0  0.27918982608E+03  0.28446526612E+03 -0.24667413403E+03  0.10097262705E+04  0.89433302878E+03 0.  0.
         23    2    4    4    0    0 -0.22779813644E+03  0.37850736879E+03 -0.64948378175E+02  0.45565405333E+03  0.90788244278E+02 0.  0.
         23    2    4    4    0    0  0.50698796251E+03 -0.94042102668E+02 -0.18172575586E+03  0.55407221719E+03  0.89950321329E+02 0.  0.
          2    1    3    3  502    0 -0.19138392947E+03 -0.22371118850E+03 -0.10595919986E+04  0.10997316527E+04  0.00000000000E+00 0. -1.
         -1    1    3    3    0  502 -0.87805896607E+02 -0.60754077623E+02 -0.57121287396E+03  0.58110677229E+03  0.00000000000E+00 0.  1.
         13    1    5    5    0    0 -0.16788924440E+03  0.19788299946E+03 -0.53807804825E+02  0.26502784706E+03  0.00000000000E+00 0.  1.
        -13    1    5    5    0    0 -0.59908892038E+02  0.18062436934E+03 -0.11140573350E+02  0.19062620627E+03  0.00000000000E+00 0. -1.
          2    1    6    6  503    0  0.48223438722E+03 -0.76037572972E+02 -0.18743128058E+03  0.52293613536E+03  0.00000000000E+00 0. -1.
         -2    1    6    6    0  503  0.24753575290E+02 -0.18004529696E+02  0.57055247210E+01  0.31136081828E+02  0.00000000000E+00 0.  1.
<mgrwt>
<rscale>  0 0.19272288E+04</rscale>
<asrwt>0</asrwt>
<pdfrwt beam="1">  1        2 0.35138798E+00 0.19272288E+04</pdfrwt>
<pdfrwt beam="2">  1       -1 0.62545053E-01 0.19272288E+04</pdfrwt>
<totfact> 0.12773738E+01</totfact>
</mgrwt>
</event>
<event>
12    7  0.1753519E-007  0.2303731E+04  0.7818608E-02  0.8476452E-01
          2   -1    0    0  501    0  0.00000000000E+00  0.00000000000E+00  0.76033932854E+03  0.76033932854E+03  0.00000000000E+00 0. -1.
         -1   -1    0    0    0  501 -0.00000000000E+00 -0.00000000000E+00 -0.17450019266E+04  0.17450019266E+04  0.00000000000E+00 0.  1.
         24    2    1    2    0    0  0.52738328090E+03  0.28241218731E+03  0.41173389574E+03  0.73076537104E+03  0.81261664413E+02 0.  0.
        254    2    1    2    0    0 -0.52738328090E+03 -0.28241218731E+03 -0.13963964938E+04  0.17745758841E+04  0.91722768821E+03 0.  0.
         23    2    4    4    0    0  0.16978524306E+03  0.50513084688E+02 -0.26664761813E+02  0.19928992594E+03  0.87331921838E+02 0.  0.
         23    2    4    4    0    0 -0.69716852396E+03 -0.33292527200E+03 -0.13697317320E+04  0.15752859582E+04  0.92074126839E+02 0.  0.
          4    1    3    3  502    0  0.41769323858E+03  0.20060500694E+03  0.34973544127E+03  0.58053844769E+03  0.00000000000E+00 0. -1.
         -3    1    3    3    0  502  0.10969004231E+03  0.81807180372E+02  0.61998454471E+02  0.15022692335E+03  0.00000000000E+00 0.  1.
         13    1    5    5    0    0  0.80241712301E+02  0.17494826685E+02  0.31002003054E+02  0.87783401319E+02  0.00000000000E+00 0. -1.
        -13    1    5    5    0    0  0.89543530760E+02  0.33018258003E+02 -0.57666764867E+02  0.11150652462E+03  0.00000000000E+00 0.  1.
          1    1    6    6  503    0 -0.61670617050E+03 -0.29979942890E+03 -0.12669806018E+04  0.14406408448E+04  0.00000000000E+00 0. -1.
         -1    1    6    6    0  503 -0.80462353457E+02 -0.33125843101E+02 -0.10275113024E+03  0.13464511343E+03  0.00000000000E+00 0.  1.
<mgrwt>
<rscale>  0 0.23037305E+04</rscale>
<asrwt>0</asrwt>
<pdfrwt beam="1">  1        2 0.11697528E+00 0.23037305E+04</pdfrwt>
<pdfrwt beam="2">  1       -1 0.26846183E+00 0.23037305E+04</pdfrwt>
<totfact> 0.20139696E+00</totfact>
</mgrwt>
</event>
<event>
12    7  0.1675873E-007  0.2221953E+04  0.7818608E-02  0.8509346E-01
          2   -1    0    0  501    0  0.00000000000E+00  0.00000000000E+00  0.31176539189E+04  0.31176539189E+04  0.00000000000E+00 0. -1.
         -1   -1    0    0    0  501 -0.00000000000E+00 -0.00000000000E+00 -0.39589674922E+03  0.39589674922E+03  0.00000000000E+00 0.  1.
         24    2    1    2    0    0  0.71384955035E+03  0.10798295545E+03  0.20592293525E+04  0.21835978155E+04  0.80202211066E+02 0.  0.
        254    2    1    2    0    0 -0.71384955035E+03 -0.10798295545E+03  0.66252781721E+03  0.13299528526E+04  0.89921631566E+03 0.  0.
         23    2    4    4    0    0 -0.72484066777E+03 -0.16203237235E+03  0.96955824960E+02  0.75462444060E+03  0.91701314138E+02 0.  0.
         23    2    4    4    0    0  0.10991117417E+02  0.54049416903E+02  0.56557199225E+03  0.57532841200E+03  0.89938640781E+02 0.  0.
          4    1    3    3  502    0  0.59288969256E+02 -0.16249924478E+01  0.23579398232E+03  0.24313910540E+03  0.00000000000E+00 0. -1.
         -3    1    3    3    0  502  0.65456058109E+03  0.10960794790E+03  0.18234353702E+04  0.19404587101E+04  0.00000000000E+00 0.  1.
         13    1    5    5    0    0 -0.49435750210E+03 -0.66540103822E+02  0.59677204752E+02  0.50237266453E+03  0.00000000000E+00 0. -1.
        -13    1    5    5    0    0 -0.23048316567E+03 -0.95492268532E+02  0.37278620207E+02  0.25225177607E+03  0.00000000000E+00 0.  1.
          2    1    6    6  503    0  0.50594100728E+02  0.35220832427E+02  0.33367434246E+03  0.33932114122E+03  0.00000000000E+00 0. -1.
         -2    1    6    6    0  503 -0.39602983310E+02  0.18828584477E+02  0.23189764979E+03  0.23600727077E+03  0.00000000000E+00 0.  1.
<mgrwt>
<rscale>  0 0.22219532E+04</rscale>
<asrwt>0</asrwt>
<pdfrwt beam="1">  1        2 0.47963905E+00 0.22219532E+04</pdfrwt>
<pdfrwt beam="2">  1       -1 0.60907194E-01 0.22219532E+04</pdfrwt>
<totfact> 0.41674242E+00</totfact>
</mgrwt>
</event>
<event>
12    7  0.1675873E-007  0.2610964E+04  0.7818608E-02  0.8364486E-01
         -1   -1    0    0    0  501 -0.00000000000E+00  0.00000000000E+00  0.13843237139E+04  0.13843237139E+04  0.00000000000E+00 0.  1.
          2   -1    0    0  501    0  0.00000000000E+00 -0.00000000000E+00 -0.12311308376E+04  0.12311308376E+04  0.00000000000E+00 0. -1.
         24    2    1    2    0    0 -0.70751356251E+02  0.24915867046E+03 -0.10520761126E+04  0.10864378557E+04  0.79982935675E+02 0.  0.
        254    2    1    2    0    0  0.70751356251E+02 -0.24915867046E+03  0.12052689888E+04  0.15290166959E+04  0.90450700568E+03 0.  0.
         23    2    4    4    0    0  0.46535834070E+03 -0.11861635757E+03  0.46634569113E+03  0.67566525131E+03  0.91744224067E+02 0.  0.
         23    2    4    4    0    0 -0.39460698445E+03 -0.13054231289E+03  0.73892329769E+03  0.85335144455E+03  0.97185803568E+02 0.  0.
          4    1    3    3  502    0 -0.39381289783E+02  0.22055455041E+03 -0.94630369475E+03  0.97246381855E+03  0.00000000000E+00 0. -1.
         -3    1    3    3    0  502 -0.31370066467E+02  0.28604120057E+02 -0.10577241786E+03  0.11397403710E+03  0.00000000000E+00 0.  1.
         13    1    5    5    0    0  0.45787845391E+03 -0.12520111836E+03  0.43902581672E+03  0.64658461654E+03  0.00000000000E+00 0.  1.
        -13    1    5    5    0    0  0.74798867867E+01  0.65847607887E+01  0.27319874409E+02  0.29080634772E+02  0.00000000000E+00 0. -1.
          1    1    6    6  503    0 -0.16428452589E+03 -0.70351848336E+01  0.25641668351E+03  0.30461190859E+03  0.00000000000E+00 0. -1.
         -1    1    6    6    0  503 -0.23032245856E+03 -0.12350712806E+03  0.48250661417E+03  0.54873953595E+03  0.00000000000E+00 0.  1.
<mgrwt>
<rscale>  0 0.26109643E+04</rscale>
<asrwt>0</asrwt>
<pdfrwt beam="1">  1        2 0.18940474E+00 0.26109643E+04</pdfrwt>
<pdfrwt beam="2">  1       -1 0.21297288E+00 0.26109643E+04</pdfrwt>
<totfact> 0.22430253E+00</totfact>
</mgrwt>
</event>
<event>
12    7  0.1675873E-007  0.1691711E+04  0.7818608E-02  0.8766106E-01
         -1   -1    0    0    0  501 -0.00000000000E+00  0.00000000000E+00  0.34322615745E+03  0.34322615745E+03  0.00000000000E+00 0.  1.
          2   -1    0    0  501    0  0.00000000000E+00 -0.00000000000E+00 -0.20845480245E+04  0.20845480245E+04  0.00000000000E+00 0. -1.
         24    2    1    2    0    0 -0.51048316533E+03 -0.28338339293E+03 -0.60363771569E+03  0.84343013312E+03  0.78081292166E+02 0.  0.
        254    2    1    2    0    0  0.51048316533E+03  0.28338339293E+03 -0.11376841514E+04  0.15843440488E+04  0.93537245380E+03 0.  0.
         23    2    4    4    0    0 -0.55288382901E+01  0.49233367159E+03 -0.74182823827E+03  0.89499824578E+03  0.91047858960E+02 0.  0.
         23    2    4    4    0    0  0.51601200362E+03 -0.20895027866E+03 -0.39585591309E+03  0.68934580305E+03  0.92558767369E+02 0.  0.
          4    1    3    3  502    0 -0.44829697848E+03 -0.22640283377E+03 -0.54235439106E+03  0.73917299027E+03  0.00000000000E+00 0. -1.
         -3    1    3    3    0  502 -0.62186186848E+02 -0.56980559158E+02 -0.61283324628E+02  0.10425714284E+03  0.00000000000E+00 0.  1.
         13    1    5    5    0    0  0.27840194032E+02  0.42015507230E+03 -0.61679928225E+03  0.74682442097E+03  0.00000000000E+00 0. -1.
        -13    1    5    5    0    0 -0.33369032322E+02  0.72178599292E+02 -0.12502895602E+03  0.14817382480E+03  0.00000000000E+00 0.  1.
          3    1    6    6  503    0  0.38509686870E+03 -0.14715760108E+03 -0.33928715830E+03  0.53392015660E+03  0.00000000000E+00 0. -1.
         -3    1    6    6    0  503  0.13091513492E+03 -0.61792677588E+02 -0.56568754787E+02  0.15542564645E+03  0.00000000000E+00 0.  1.
<mgrwt>
<rscale>  0 0.16917109E+04</rscale>
<asrwt>0</asrwt>
<pdfrwt beam="1">  1        2 0.32069969E+00 0.16917109E+04</pdfrwt>
<pdfrwt beam="2">  1       -1 0.52804026E-01 0.16917109E+04</pdfrwt>
<totfact> 0.23505022E+01</totfact>
</mgrwt>
</event>
<event>
12    7  0.1675873E-007  0.1443748E+04  0.7818608E-02  0.8922746E-01
          2   -1    0    0  501    0  0.00000000000E+00  0.00000000000E+00  0.11458782433E+04  0.11458782433E+04  0.00000000000E+00 0. -1.
         -1   -1    0    0    0  501 -0.00000000000E+00 -0.00000000000E+00 -0.45476222744E+03  0.45476222744E+03  0.00000000000E+00 0.  1.
         24    2    1    2    0    0  0.72534066632E+02  0.15523226243E+03 -0.23764697448E+03  0.30350898761E+03  0.79267742231E+02 0.  0.
        254    2    1    2    0    0 -0.72534066632E+02 -0.15523226243E+03  0.92876299034E+03  0.12971314831E+04  0.88915192524E+03 0.  0.
         23    2    4    4    0    0 -0.34354128512E+03 -0.52380414598E+01  0.47005741036E+02  0.35820242865E+03  0.89729529916E+02 0.  0.
         23    2    4    4    0    0  0.27100721849E+03 -0.14999422097E+03  0.88175724931E+03  0.93892905447E+03  0.90270392897E+02 0.  0.
          2    1    3    3  502    0  0.33400742061E+02  0.52818901054E+01 -0.42118212475E+02  0.54013440507E+02  0.00000000000E+00 0. -1.
         -1    1    3    3    0  502  0.39133324571E+02  0.14995037233E+03 -0.19552876201E+03  0.24949554710E+03  0.00000000000E+00 0.  1.
         13    1    5    5    0    0 -0.62978089392E+01 -0.28082588330E+01  0.18505065677E+02  0.19748067521E+02  0.00000000000E+00 0. -1.
        -13    1    5    5    0    0 -0.33724347618E+03 -0.24297826268E+01  0.28500675359E+02  0.33845436113E+03  0.00000000000E+00 0.  1.
          3    1    6    6  503    0  0.71023196743E+02 -0.54851317498E+02  0.15418660475E+03  0.17839974942E+03  0.00000000000E+00 0. -1.
         -3    1    6    6    0  503  0.19998402175E+03 -0.95142903474E+02  0.72757064455E+03  0.76052930506E+03  0.00000000000E+00 0.  1.
<mgrwt>
<rscale>  0 0.14437481E+04</rscale>
<asrwt>0</asrwt>
<pdfrwt beam="1">  1        2 0.17628896E+00 0.14437481E+04</pdfrwt>
<pdfrwt beam="2">  1       -1 0.69963420E-01 0.14437481E+04</pdfrwt>
<totfact> 0.46670160E+01</totfact>
</mgrwt>
</event>
<event>
12    7  0.1675873E-007  0.1209161E+04  0.7818608E-02  0.9104876E-01
         -1   -1    0    0    0  501 -0.00000000000E+00  0.00000000000E+00  0.19686254371E+03  0.19686254371E+03  0.00000000000E+00 0.  1.
          2   -1    0    0  501    0  0.00000000000E+00 -0.00000000000E+00 -0.18567135596E+04  0.18567135596E+04  0.00000000000E+00 0. -1.
         24    2    1    2    0    0  0.17516928868E+03 -0.92535843750E+02 -0.81275137816E+02  0.22770425690E+03  0.77436545043E+02 0.  0.
        254    2    1    2    0    0 -0.17516928868E+03  0.92535843750E+02 -0.15785758781E+04  0.18258718465E+04  0.89591240344E+03 0.  0.
         23    2    4    4    0    0  0.35089318016E+03 -0.27500755205E+02 -0.52733936583E+03  0.64069935497E+03  0.92339272757E+02 0.  0.
         23    2    4    4    0    0 -0.52606246884E+03  0.12003659895E+03 -0.10512365123E+04  0.11851724915E+04  0.91570320444E+02 0.  0.
          4    1    3    3  502    0  0.16521014169E+02  0.60764325440E+01 -0.28665144394E+02  0.33638630245E+02  0.00000000000E+00 0. -1.
         -3    1    3    3    0  502  0.15864827451E+03 -0.98612276294E+02 -0.52609993422E+02  0.19406562665E+03  0.00000000000E+00 0.  1.
         13    1    5    5    0    0  0.24994996881E+02 -0.20209131577E+02 -0.20641214482E+02  0.38199719939E+02  0.00000000000E+00 0.  1.
        -13    1    5    5    0    0  0.32589818328E+03 -0.72916236279E+01 -0.50669815134E+03  0.60249963503E+03  0.00000000000E+00 0. -1.
          4    1    6    6  503    0 -0.45716917232E+03  0.93418129433E+02 -0.96308857772E+03  0.10701729802E+04  0.00000000000E+00 0. -1.
         -4    1    6    6    0  503 -0.68893296521E+02  0.26618469522E+02 -0.88147934567E+02  0.11499951128E+03  0.00000000000E+00 0.  1.
<mgrwt>
<rscale>  0 0.12091606E+04</rscale>
<asrwt>0</asrwt>
<pdfrwt beam="1">  1        2 0.28564825E+00 0.12091606E+04</pdfrwt>
<pdfrwt beam="2">  1       -1 0.30286544E-01 0.12091606E+04</pdfrwt>
<totfact> 0.90516595E+01</totfact>
</mgrwt>
</event>
<event>
12    7  0.1675873E-007  0.1666551E+04  0.7818608E-02  0.8780675E-01
         -1   -1    0    0    0  501 -0.00000000000E+00  0.00000000000E+00  0.25961037003E+03  0.25961037003E+03  0.00000000000E+00 0.  1.
          2   -1    0    0  501    0  0.00000000000E+00 -0.00000000000E+00 -0.26745787307E+04  0.26745787307E+04  0.00000000000E+00 0. -1.
         24    2    1    2    0    0  0.17759706829E+03 -0.10966454679E+03  0.10313801537E+03  0.24533046604E+03  0.77346983542E+02 0.  0.
        254    2    1    2    0    0 -0.17759706829E+03  0.10966454679E+03 -0.25181063761E+04  0.26888586347E+04  0.91952923000E+03 0.  0.
         23    2    4    4    0    0 -0.58580459073E+02 -0.34899466985E+03 -0.17003610448E+04  0.17392778238E+04  0.92901645258E+02 0.  0.
         23    2    4    4    0    0 -0.11901660922E+03  0.45865921664E+03 -0.81774533126E+03  0.94958081098E+03  0.91994888440E+02 0.  0.
          2    1    3    3  502    0  0.11561956506E+02 -0.19445145641E+02 -0.10380585743E+02  0.24890743010E+02  0.00000000000E+00 0. -1.
         -1    1    3    3    0  502  0.16603511179E+03 -0.90219401151E+02  0.11351860111E+03  0.22043972303E+03  0.00000000000E+00 0.  1.
         13    1    5    5    0    0 -0.68136204043E+02 -0.34362786715E+03 -0.16801868592E+04  0.17163188909E+04  0.00000000000E+00 0.  1.
        -13    1    5    5    0    0  0.95557449698E+01 -0.53668027002E+01 -0.20174185651E+02  0.22958932899E+02  0.00000000000E+00 0. -1.
          3    1    6    6  503    0 -0.36815066734E+02  0.12784114973E+03 -0.31739463850E+03  0.34414831868E+03  0.00000000000E+00 0. -1.
         -3    1    6    6    0  503 -0.82201542484E+02  0.33081806691E+03 -0.50035069276E+03  0.60543249230E+03  0.00000000000E+00 0.  1.
<mgrwt>
<rscale>  0 0.16665514E+04</rscale>
<asrwt>0</asrwt>
<pdfrwt beam="1">  1        2 0.41147367E+00 0.16665514E+04</pdfrwt>
<pdfrwt beam="2">  1       -1 0.39940055E-01 0.16665514E+04</pdfrwt>
<totfact> 0.18294891E+01</totfact>
</mgrwt>
</event>
<event>
12    7  0.1675873E-007  0.2052373E+04  0.7818608E-02  0.8582519E-01
          2   -1    0    0  501    0  0.00000000000E+00  0.00000000000E+00  0.19587214923E+04  0.19587214923E+04  0.00000000000E+00 0. -1.
         -1   -1    0    0    0  501 -0.00000000000E+00 -0.00000000000E+00 -0.53762547437E+03  0.53762547437E+03  0.00000000000E+00 0.  1.
         24    2    1    2    0    0 -0.27985915573E+03  0.35002373005E+02  0.13700985769E+04  0.14010985346E+04  0.79753871587E+02 0.  0.
        254    2    1    2    0    0  0.27985915573E+03 -0.35002373005E+02  0.50997440951E+02  0.10952484320E+04  0.10570818680E+04 0.  0.
         23    2    4    4    0    0 -0.35549584005E+03  0.11183199453E+03  0.17960835960E+03  0.42440522719E+03  0.94746750510E+02 0.  0.
         23    2    4    4    0    0  0.63535499578E+03 -0.14683436753E+03 -0.12861091865E+03  0.67084320483E+03  0.90848967625E+02 0.  0.
          2    1    3    3  502    0 -0.21666450150E+03  0.18880709571E+02  0.11863175576E+04  0.12060884441E+04  0.00000000000E+00 0. -1.
         -1    1    3    3    0  502 -0.63194654228E+02  0.16121663434E+02  0.18378101929E+03  0.19501009052E+03  0.00000000000E+00 0.  1.
         13    1    5    5    0    0 -0.31163209952E+03  0.79937910195E+02  0.18289091443E+03  0.37007258952E+03  0.00000000000E+00 0. -1.
        -13    1    5    5    0    0 -0.43863740534E+02  0.31894084335E+02 -0.32825548331E+01  0.54332637663E+02  0.00000000000E+00 0.  1.
          4    1    6    6  503    0  0.45267397859E+03 -0.12899828258E+03 -0.12602773889E+03  0.48727536237E+03  0.00000000000E+00 0. -1.
         -4    1    6    6    0  503  0.18268101718E+03 -0.17836084954E+02 -0.25831797549E+01  0.18356784246E+03  0.00000000000E+00 0.  1.
<mgrwt>
<rscale>  0 0.20523728E+04</rscale>
<asrwt>0</asrwt>
<pdfrwt beam="1">  1        2 0.30134176E+00 0.20523728E+04</pdfrwt>
<pdfrwt beam="2">  1       -1 0.82711613E-01 0.20523728E+04</pdfrwt>
<totfact> 0.10774600E+01</totfact>
</mgrwt>
</event>
<event>
12    7  0.1675873E-007  0.2591159E+04  0.7818608E-02  0.8371211E-01
         -1   -1    0    0    0  501 -0.00000000000E+00  0.00000000000E+00  0.12006984106E+04  0.12006984106E+04  0.00000000000E+00 0.  1.
          2   -1    0    0  501    0  0.00000000000E+00 -0.00000000000E+00 -0.13979577574E+04  0.13979577574E+04  0.00000000000E+00 0. -1.
         24    2    1    2    0    0  0.10399789197E+04 -0.21863387820E+03  0.31585486374E+03  0.11118591463E+04  0.84318088780E+02 0.  0.
        254    2    1    2    0    0 -0.10399789197E+04  0.21863387820E+03 -0.51311421052E+03  0.14867970216E+04  0.90439054853E+03 0.  0.
         23    2    4    4    0    0 -0.60256739198E+03  0.54469848340E+03 -0.44217166180E+03  0.92915636538E+03  0.89620718252E+02 0.  0.
         23    2    4    4    0    0 -0.43741152777E+03 -0.32606460520E+03 -0.70942548721E+02  0.55764065625E+03  0.91012553500E+02 0.  0.
          4    1    3    3  502    0  0.78375735235E+02 -0.22115187466E+02  0.47824529994E+02  0.94440579517E+02  0.00000000000E+00 0. -1.
         -3    1    3    3    0  502  0.96160318451E+03 -0.19651869074E+03  0.26803033375E+03  0.10174185668E+04  0.00000000000E+00 0.  1.
         13    1    5    5    0    0 -0.43060307011E+03  0.38714212008E+03 -0.26795259550E+03  0.63804123579E+03  0.00000000000E+00 0. -1.
        -13    1    5    5    0    0 -0.17196432186E+03  0.15755636332E+03 -0.17421906630E+03  0.29111512959E+03  0.00000000000E+00 0.  1.
          4    1    6    6  503    0 -0.31128084561E+03 -0.20491843714E+03 -0.84812779121E+02  0.38220483804E+03  0.00000000000E+00 0. -1.
         -4    1    6    6    0  503 -0.12613068216E+03 -0.12114616806E+03  0.13870230400E+02  0.17543581821E+03  0.00000000000E+00 0.  1.
<mgrwt>
<rscale>  0 0.25911585E+04</rscale>
<asrwt>0</asrwt>
<pdfrwt beam="1">  1        2 0.21507042E+00 0.25911585E+04</pdfrwt>
<pdfrwt beam="2">  1       -1 0.18472283E+00 0.25911585E+04</pdfrwt>
<totfact> 0.28172985E+00</totfact>
</mgrwt>
</event>
<event>
12    7  0.1675873E-007  0.1583489E+04  0.7818608E-02  0.8830756E-01
          2   -1    0    0  501    0  0.00000000000E+00  0.00000000000E+00  0.35848174368E+04  0.35848174368E+04  0.00000000000E+00 0. -1.
         -1   -1    0    0    0  501 -0.00000000000E+00 -0.00000000000E+00 -0.17486506751E+03  0.17486506751E+03  0.00000000000E+00 0.  1.
         24    2    1    2    0    0  0.35082457403E+03 -0.38844659307E+03  0.96786672213E+03  0.11032897484E+04  0.80707123300E+02 0.  0.
        254    2    1    2    0    0 -0.35082457403E+03  0.38844659307E+03  0.24420856471E+04  0.26563927559E+04  0.90480469054E+03 0.  0.
         23    2    4    4    0    0  0.58738679836E+02  0.32466369207E+03  0.25128286664E+03  0.42484540392E+03  0.92161774651E+02 0.  0.
         23    2    4    4    0    0 -0.40956325387E+03  0.63782900998E+02  0.21908027805E+04  0.22315473519E+04  0.91522912708E+02 0.  0.
          2    1    3    3  502    0  0.34026000354E+03 -0.34373998709E+03  0.88437380065E+03  0.10079935853E+04  0.00000000000E+00 0. -1.
         -1    1    3    3    0  502  0.10564570491E+02 -0.44706605978E+02  0.83492921478E+02  0.95296163116E+02  0.00000000000E+00 0.  1.
         13    1    5    5    0    0  0.53783020708E+01  0.49437510458E+02  0.86157535639E+02  0.99479216527E+02  0.00000000000E+00 0. -1.
        -13    1    5    5    0    0  0.53360377765E+02  0.27522618161E+03  0.16512533100E+03  0.32536618739E+03  0.00000000000E+00 0.  1.
          1    1    6    6  503    0 -0.12417760030E+01 -0.89155095288E+01  0.69543120282E+02  0.70123276423E+02  0.00000000000E+00 0. -1.
         -1    1    6    6    0  503 -0.40832147786E+03  0.72698410527E+02  0.21212596602E+04  0.21614240755E+04  0.00000000000E+00 0.  1.
<mgrwt>
<rscale>  0 0.15834890E+04</rscale>
<asrwt>0</asrwt>
<pdfrwt beam="1">  1        2 0.55151032E+00 0.15834890E+04</pdfrwt>
<pdfrwt beam="2">  1       -1 0.26902321E-01 0.15834890E+04</pdfrwt>
<totfact> 0.96821862E+00</totfact>
</mgrwt>
</event>
<event>
12    7  0.1739224E-007  0.1512852E+04  0.7818608E-02  0.8875951E-01
          2   -1    0    0  501    0  0.00000000000E+00  0.00000000000E+00  0.15389631483E+04  0.15389631483E+04  0.00000000000E+00 0. -1.
         -1   -1    0    0    0  501 -0.00000000000E+00 -0.00000000000E+00 -0.37179606023E+03  0.37179606023E+03  0.00000000000E+00 0.  1.
         24    2    1    2    0    0 -0.36440346380E+03 -0.25510257967E+02  0.83135681876E+03  0.91268219040E+03  0.91618572839E+02 0.  0.
        254    2    1    2    0    0  0.36440346380E+03  0.25510257967E+02  0.33581026926E+03  0.99807701809E+03  0.86599569248E+03 0.  0.
         23    2    4    4    0    0  0.60866505837E+03  0.12867198557E+03  0.34501750093E+03  0.71666399853E+03  0.86836499803E+02 0.  0.
         23    2    4    4    0    0 -0.24426159457E+03 -0.10316172760E+03 -0.92072316652E+01  0.28141301955E+03  0.93821350637E+02 0.  0.
          4    1    3    3  502    0 -0.32777162619E+03 -0.78885474890E+01  0.78674124883E+03  0.85232520832E+03  0.00000000000E+00 0. -1.
         -3    1    3    3    0  502 -0.36631837604E+02 -0.17621710478E+02  0.44615569929E+02  0.60356982086E+02  0.00000000000E+00 0.  1.
         13    1    5    5    0    0  0.22384175618E+02  0.86605529092E+01 -0.33179811689E+01  0.24229434451E+02  0.00000000000E+00 0. -1.
        -13    1    5    5    0    0  0.58628088275E+03  0.12001143266E+03  0.34833548209E+03  0.69243456408E+03  0.00000000000E+00 0.  1.
          1    1    6    6  503    0 -0.19629574652E+02 -0.42409788204E+02  0.10435163668E+02  0.47883222295E+02  0.00000000000E+00 0. -1.
         -1    1    6    6    0  503 -0.22463201992E+03 -0.60751939395E+02 -0.19642395333E+02  0.23352979726E+03  0.00000000000E+00 0.  1.
<mgrwt>
<rscale>  0 0.15128522E+04</rscale>
<asrwt>0</asrwt>
<pdfrwt beam="1">  1        2 0.23676356E+00 0.15128522E+04</pdfrwt>
<pdfrwt beam="2">  1       -1 0.57199395E-01 0.15128522E+04</pdfrwt>
<totfact> 0.41074859E+01</totfact>
</mgrwt>
</event>
<event>
12    7  0.1675873E-007  0.1471292E+04  0.7818608E-02  0.8903771E-01
          2   -1    0    0  501    0  0.00000000000E+00  0.00000000000E+00  0.25985829399E+04  0.25985829399E+04  0.00000000000E+00 0. -1.
         -1   -1    0    0    0  501 -0.00000000000E+00 -0.00000000000E+00 -0.20825773670E+03  0.20825773670E+03  0.00000000000E+00 0.  1.
         24    2    1    2    0    0  0.31673410317E+03 -0.32029137867E+03  0.70370984563E+03  0.84007458039E+03  0.87239294022E+02 0.  0.
        254    2    1    2    0    0 -0.31673410317E+03  0.32029137867E+03  0.16866153576E+04  0.19667660962E+04  0.90586447851E+03 0.  0.
         23    2    4    4    0    0 -0.49130392943E+03 -0.85726202654E+02  0.11943592587E+04  0.12976420823E+04  0.93018288541E+02 0.  0.
         23    2    4    4    0    0  0.17456982626E+03  0.40601758133E+03  0.49225609885E+03  0.66912401389E+03  0.10042897252E+03 0.  0.
          2    1    3    3  502    0  0.18400130425E+03 -0.14401483132E+03  0.30305586036E+03  0.38267428200E+03  0.00000000000E+00 0. -1.
         -1    1    3    3    0  502  0.13273279892E+03 -0.17627654736E+03  0.40065398527E+03  0.45740029839E+03  0.00000000000E+00 0.  1.
         13    1    5    5    0    0  0.29250790255E+01 -0.34637039714E+01  0.25900074495E+02  0.26293862238E+02  0.00000000000E+00 0.  1.
        -13    1    5    5    0    0 -0.49422900845E+03 -0.82262498682E+02  0.11684591842E+04  0.12713482201E+04  0.00000000000E+00 0. -1.
          2    1    6    6  503    0  0.16981706256E+03  0.30281838063E+03  0.34686421617E+03  0.49076633019E+03  0.00000000000E+00 0. -1.
         -2    1    6    6    0  503  0.47527637003E+01  0.10319920069E+03  0.14539188268E+03  0.17835768370E+03  0.00000000000E+00 0.  1.
<mgrwt>
<rscale>  0 0.14712920E+04</rscale>
<asrwt>0</asrwt>
<pdfrwt beam="1">  1        2 0.39978197E+00 0.14712920E+04</pdfrwt>
<pdfrwt beam="2">  1       -1 0.32039654E-01 0.14712920E+04</pdfrwt>
<totfact> 0.30662158E+01</totfact>
</mgrwt>
</event>
<event>
12    7  0.1675873E-007  0.1409723E+04  0.7818608E-02  0.8946810E-01
         -1   -1    0    0    0  501 -0.00000000000E+00  0.00000000000E+00  0.18555835101E+03  0.18555835101E+03  0.00000000000E+00 0.  1.
          2   -1    0    0  501    0  0.00000000000E+00 -0.00000000000E+00 -0.26774870356E+04  0.26774870356E+04  0.00000000000E+00 0. -1.
         24    2    1    2    0    0  0.21033595561E+02 -0.35901401207E+03 -0.11565097929E+04  0.12137877171E+04  0.80201296659E+02 0.  0.
        254    2    1    2    0    0 -0.21033595561E+02  0.35901401207E+03 -0.13354188916E+04  0.16492576695E+04  0.89853979949E+03 0.  0.
         23    2    4    4    0    0  0.27267351712E+03 -0.60522344662E+02 -0.10331125886E+03  0.31127853085E+03  0.90594185355E+02 0.  0.
         23    2    4    4    0    0 -0.29370711268E+03  0.41953635673E+03 -0.12321076328E+04  0.13379791387E+04  0.99117778773E+02 0.  0.
          4    1    3    3  502    0  0.13160253381E+00 -0.10923931348E+02 -0.80977610876E+01  0.13598651770E+02  0.00000000000E+00 0. -1.
         -3    1    3    3    0  502  0.20901993028E+02 -0.34809008072E+03 -0.11484120318E+04  0.12001890653E+04  0.00000000000E+00 0.  1.
         13    1    5    5    0    0  0.80984229124E+02 -0.29299215713E+02 -0.76555652154E+02  0.11522871728E+03  0.00000000000E+00 0. -1.
        -13    1    5    5    0    0  0.19168928799E+03 -0.31223128949E+02 -0.26755606710E+02  0.19604981358E+03  0.00000000000E+00 0.  1.
          4    1    6    6  503    0 -0.75907964837E+02  0.18915659115E+03 -0.44691821204E+03  0.49120069560E+03  0.00000000000E+00 0. -1.
         -4    1    6    6    0  503 -0.21779914784E+03  0.23037976558E+03 -0.78518942073E+03  0.84677844305E+03  0.00000000000E+00 0.  1.
<mgrwt>
<rscale>  0 0.14097235E+04</rscale>
<asrwt>0</asrwt>
<pdfrwt beam="1">  1        2 0.41192107E+00 0.14097235E+04</pdfrwt>
<pdfrwt beam="2">  1       -1 0.28547439E-01 0.14097235E+04</pdfrwt>
<totfact> 0.33944274E+01</totfact>
</mgrwt>
</event>
<event>
12    7  0.1675873E-007  0.3573040E+04  0.7818608E-02  0.8096695E-01
         -1   -1    0    0    0  501 -0.00000000000E+00  0.00000000000E+00  0.18473038839E+04  0.18473038839E+04  0.00000000000E+00 0.  1.
          2   -1    0    0  501    0  0.00000000000E+00 -0.00000000000E+00 -0.17277363605E+04  0.17277363605E+04  0.00000000000E+00 0. -1.
         24    2    1    2    0    0  0.61697133210E+02  0.79133426300E+02  0.17302903754E+04  0.17350078997E+04  0.79240101274E+02 0.  0.
        254    2    1    2    0    0 -0.61697133210E+02 -0.79133426300E+02 -0.16107228520E+04  0.18400323447E+04  0.88386780008E+03 0.  0.
         23    2    4    4    0    0 -0.22599072998E+02  0.32794801570E+03 -0.26964663738E+03  0.43496490925E+03  0.91785315404E+02 0.  0.
         23    2    4    4    0    0 -0.39098060213E+02 -0.40708144200E+03 -0.13410762146E+04  0.14050674354E+04  0.92114743098E+02 0.  0.
          4    1    3    3  502    0  0.59101503130E+02  0.74192508975E+02  0.95535831988E+03  0.96005574600E+03  0.00000000000E+00 0. -1.
         -3    1    3    3    0  502  0.25956300802E+01  0.49409173244E+01  0.77493205549E+03  0.77495215374E+03  0.00000000000E+00 0.  1.
         13    1    5    5    0    0 -0.10381292579E+01  0.17750089194E+03 -0.87995635202E+02  0.19811833880E+03  0.00000000000E+00 0.  1.
        -13    1    5    5    0    0 -0.21560943740E+02  0.15044712376E+03 -0.18165100218E+03  0.23684657045E+03  0.00000000000E+00 0. -1.
          1    1    6    6  503    0 -0.23097827282E+02 -0.58752400458E+02 -0.12574553752E+03  0.14070285850E+03  0.00000000000E+00 0. -1.
         -1    1    6    6    0  503 -0.16000232930E+02 -0.34832904154E+03 -0.12153306771E+04  0.12643645769E+04  0.00000000000E+00 0.  1.
<mgrwt>
<rscale>  0 0.35730402E+04</rscale>
<asrwt>0</asrwt>
<pdfrwt beam="1">  1        2 0.26580560E+00 0.35730402E+04</pdfrwt>
<pdfrwt beam="2">  1       -1 0.28420060E+00 0.35730402E+04</pdfrwt>
<totfact> 0.36780361E-01</totfact>
</mgrwt>
</event>
<event>
12    7  0.1675873E-007  0.9560365E+03  0.7818608E-02  0.9358123E-01
         -1   -1    0    0    0  501 -0.00000000000E+00  0.00000000000E+00  0.93351544179E+03  0.93351544179E+03  0.00000000000E+00 0.  1.
          2   -1    0    0  501    0  0.00000000000E+00 -0.00000000000E+00 -0.24477520416E+03  0.24477520416E+03  0.00000000000E+00 0. -1.
         24    2    1    2    0    0  0.44758897418E+02  0.49253077515E+02 -0.39553882636E+02  0.11167603839E+03  0.80484802149E+02 0.  0.
        254    2    1    2    0    0 -0.44758897418E+02 -0.49253077515E+02  0.72829412027E+03  0.10666146076E+04  0.77641816755E+03 0.  0.
         23    2    4    4    0    0  0.35571268833E+03 -0.37434123676E+02  0.37118381811E+03  0.52227460689E+03  0.84026828570E+02 0.  0.
         23    2    4    4    0    0 -0.40047158575E+03 -0.11818953839E+02  0.35711030215E+03  0.54434000067E+03  0.90890537278E+02 0.  0.
          2    1    3    3  502    0  0.29830011466E+02  0.62444122665E+01 -0.55600062468E+02  0.63404962070E+02  0.00000000000E+00 0. -1.
         -1    1    3    3    0  502  0.14928885952E+02  0.43008665249E+02  0.16046179832E+02  0.48271076324E+02  0.00000000000E+00 0.  1.
         13    1    5    5    0    0  0.18823955241E+03 -0.49730624591E+02  0.15701098730E+03  0.25011939998E+03  0.00000000000E+00 0. -1.
        -13    1    5    5    0    0  0.16747313592E+03  0.12296500915E+02  0.21417283081E+03  0.27215520691E+03  0.00000000000E+00 0.  1.
          4    1    6    6  503    0 -0.29385249591E+03  0.27502023117E+02  0.23267759546E+03  0.37582511100E+03  0.00000000000E+00 0. -1.
         -4    1    6    6    0  503 -0.10661908984E+03 -0.39320976956E+02  0.12443270670E+03  0.16851488967E+03  0.00000000000E+00 0.  1.
<mgrwt>
<rscale>  0 0.95603647E+03</rscale>
<asrwt>0</asrwt>
<pdfrwt beam="1">  1        2 0.37657724E-01 0.95603647E+03</pdfrwt>
<pdfrwt beam="2">  1       -1 0.14361776E+00 0.95603647E+03</pdfrwt>
<totfact> 0.62022392E+01</totfact>
</mgrwt>
</event>
<event>
12    7  0.1675873E-007  0.1715106E+04  0.7818608E-02  0.8752795E-01
          2   -1    0    0  501    0  0.00000000000E+00  0.00000000000E+00  0.35057342620E+03  0.35057342620E+03  0.00000000000E+00 0. -1.
         -1   -1    0    0    0  501 -0.00000000000E+00 -0.00000000000E+00 -0.20976982589E+04  0.20976982589E+04  0.00000000000E+00 0.  1.
         24    2    1    2    0    0 -0.40547615287E+03  0.22829131856E+02 -0.13067344026E+04  0.13710492020E+04  0.85375849925E+02 0.  0.
        254    2    1    2    0    0  0.40547615287E+03 -0.22829131856E+02 -0.44039043015E+03  0.10772224831E+04  0.89528345638E+03 0.  0.
         23    2    4    4    0    0  0.33657725007E+03  0.27712655272E+03 -0.57671781109E+03  0.72877166106E+03  0.91767798518E+02 0.  0.
         23    2    4    4    0    0  0.68898902806E+02 -0.29995568458E+03  0.13632738094E+03  0.34845082202E+03  0.90068579737E+02 0.  0.
          4    1    3    3  502    0 -0.89897799994E+02  0.37324333158E+02 -0.36409436052E+03  0.37688117975E+03  0.00000000000E+00 0. -1.
         -1    1    3    3    0  502 -0.31557835288E+03 -0.14495201301E+02 -0.94264004205E+03  0.99416802229E+03  0.00000000000E+00 0.  1.
         13    1    5    5    0    0  0.29293866296E+03  0.27351674397E+03 -0.53329304573E+03  0.66710264736E+03  0.00000000000E+00 0.  1.
        -13    1    5    5    0    0  0.43638587103E+02  0.36098087468E+01 -0.43424765365E+02  0.61669013699E+02  0.00000000000E+00 0. -1.
          4    1    6    6  503    0  0.15203586015E+02 -0.20271238130E+02 -0.11213728921E+02  0.27709562237E+02  0.00000000000E+00 0. -1.
         -4    1    6    6    0  503  0.53695316791E+02 -0.27968444645E+03  0.14754110986E+03  0.32074125978E+03  0.00000000000E+00 0.  1.
<mgrwt>
<rscale>  0 0.17151061E+04</rscale>
<asrwt>0</asrwt>
<pdfrwt beam="1">  1        2 0.53934374E-01 0.17151061E+04</pdfrwt>
<pdfrwt beam="2">  1       -1 0.32272280E+00 0.17151061E+04</pdfrwt>
<totfact> 0.23613065E+00</totfact>
</mgrwt>
</event>
<event>
12    7  0.1675873E-007  0.1274548E+04  0.7818608E-02  0.9049996E-01
         -1   -1    0    0    0  501 -0.00000000000E+00  0.00000000000E+00  0.48072669475E+03  0.48072669475E+03  0.00000000000E+00 0.  1.
          2   -1    0    0  501    0  0.00000000000E+00 -0.00000000000E+00 -0.84480104106E+03  0.84480104106E+03  0.00000000000E+00 0. -1.
         24    2    1    2    0    0  0.22158513316E+03  0.17177294221E+03  0.49105863794E+02  0.29693998577E+03  0.84593465348E+02 0.  0.
        254    2    1    2    0    0 -0.22158513316E+03 -0.17177294221E+03 -0.41318021011E+03  0.10285877500E+04  0.89926022851E+03 0.  0.
         23    2    4    4    0    0 -0.48201477753E+03  0.47563078059E+02 -0.10247757439E+02  0.49335674196E+03  0.93248947226E+02 0.  0.
         23    2    4    4    0    0  0.26042964436E+03 -0.21933602027E+03 -0.40293245267E+03  0.53523100807E+03  0.90475306773E+02 0.  0.
          2    1    3    3  502    0  0.14278627645E+03  0.81856784086E+02 -0.72923898110E+01  0.16474717840E+03  0.00000000000E+00 0. -1.
         -1    1    3    3    0  502  0.78798856713E+02  0.89916158124E+02  0.56398253605E+02  0.13219280737E+03  0.00000000000E+00 0.  1.
         13    1    5    5    0    0 -0.13889456138E+03  0.53182946146E+02  0.13687088568E+02  0.14935682554E+03  0.00000000000E+00 0.  1.
        -13    1    5    5    0    0 -0.34312021614E+03 -0.56198680867E+01 -0.23934846007E+02  0.34399991642E+03  0.00000000000E+00 0. -1.
          3    1    6    6  503    0  0.18279991234E+03 -0.11493987601E+03 -0.29844603105E+03  0.36837075956E+03  0.00000000000E+00 0. -1.
         -3    1    6    6    0  503  0.77629732022E+02 -0.10439614426E+03 -0.10448642161E+03  0.16686024851E+03  0.00000000000E+00 0.  1.
<mgrwt>
<rscale>  0 0.12745484E+04</rscale>
<asrwt>0</asrwt>
<pdfrwt beam="1">  1        2 0.12996939E+00 0.12745484E+04</pdfrwt>
<pdfrwt beam="2">  1       -1 0.73957954E-01 0.12745484E+04</pdfrwt>
<totfact> 0.66060418E+01</totfact>
</mgrwt>
</event>
<event>
12    7  0.1675873E-007  0.1952503E+04  0.7818608E-02  0.8629155E-01
         -1   -1    0    0    0  501 -0.00000000000E+00  0.00000000000E+00  0.61713798646E+03  0.61713798646E+03  0.00000000000E+00 0.  1.
          2   -1    0    0  501    0  0.00000000000E+00 -0.00000000000E+00 -0.15443338840E+04  0.15443338840E+04  0.00000000000E+00 0. -1.
         24    2    1    2    0    0  0.13844442863E+02  0.24705599041E+03  0.42820913220E+03  0.50093817510E+03  0.79672224627E+02 0.  0.
        254    2    1    2    0    0 -0.13844442863E+02 -0.24705599041E+03 -0.13554050298E+04  0.16605336954E+04  0.92683387281E+03 0.  0.
         23    2    4    4    0    0  0.19063578636E+03 -0.54444779505E+03 -0.75540395854E+03  0.95470715609E+03  0.89806507244E+02 0.  0.
         23    2    4    4    0    0 -0.20448022922E+03  0.29739180464E+03 -0.60000107121E+03  0.70582653928E+03  0.89082930351E+02 0.  0.
          4    1    3    3  502    0  0.36858458138E+02  0.82902172849E+02  0.11408947928E+03  0.14576599563E+03  0.00000000000E+00 0. -1.
         -3    1    3    3    0  502 -0.23014015276E+02  0.16415381756E+03  0.31411965292E+03  0.35517217947E+03  0.00000000000E+00 0.  1.
         13    1    5    5    0    0  0.13619549492E+03 -0.45814126876E+03 -0.57767020578E+03  0.74976363050E+03  0.00000000000E+00 0. -1.
        -13    1    5    5    0    0  0.54440291437E+02 -0.86306526292E+02 -0.17773375276E+03  0.20494352559E+03  0.00000000000E+00 0.  1.
          4    1    6    6  503    0 -0.13248770801E+03  0.25647497538E+03 -0.45508296374E+03  0.53891827735E+03  0.00000000000E+00 0. -1.
         -4    1    6    6    0  503 -0.71992521210E+02  0.40916829256E+02 -0.14491810747E+03  0.16690826193E+03  0.00000000000E+00 0.  1.
<mgrwt>
<rscale>  0 0.19525031E+04</rscale>
<asrwt>0</asrwt>
<pdfrwt beam="1">  1        2 0.23758983E+00 0.19525031E+04</pdfrwt>
<pdfrwt beam="2">  1       -1 0.94944306E-01 0.19525031E+04</pdfrwt>
<totfact> 0.13652203E+01</totfact>
</mgrwt>
</event>
<event>
12    7  0.1675873E-007  0.3189235E+04  0.7818608E-02  0.8191666E-01
          2   -1    0    0  501    0  0.00000000000E+00  0.00000000000E+00  0.17419535648E+04  0.17419535648E+04  0.00000000000E+00 0. -1.
         -1   -1    0    0    0  501 -0.00000000000E+00 -0.00000000000E+00 -0.14597430612E+04  0.14597430612E+04  0.00000000000E+00 0.  1.
         24    2    1    2    0    0  0.48867015986E+03  0.53596406634E+03 -0.11492408256E+04  0.13613191838E+04  0.79871393235E+02 0.  0.
        254    2    1    2    0    0 -0.48867015986E+03 -0.53596406634E+03  0.14314513293E+04  0.18403774421E+04  0.90104395896E+03 0.  0.
         23    2    4    4    0    0  0.14663722800E+03 -0.34896936726E+03  0.19597770223E+03  0.43597237536E+03  0.91556301720E+02 0.  0.
         23    2    4    4    0    0 -0.63530738786E+03 -0.18699469907E+03  0.12354736270E+04  0.14044050668E+04  0.85883723493E+02 0.  0.
          4    1    3    3  502    0  0.38358953037E+02  0.78318470556E+02 -0.12276266428E+03  0.15058507180E+03  0.00000000000E+00 0. -1.
         -3    1    3    3    0  502  0.45031120683E+03  0.45764559578E+03 -0.10264781613E+04  0.12107341120E+04  0.00000000000E+00 0.  1.
         13    1    5    5    0    0  0.71560389557E+02 -0.25482154409E+03  0.16404427152E+03  0.31139272905E+03  0.00000000000E+00 0. -1.
        -13    1    5    5    0    0  0.75076838445E+02 -0.94147823171E+02  0.31933430713E+02  0.12457964631E+03  0.00000000000E+00 0.  1.
          2    1    6    6  503    0 -0.44836278533E+03 -0.12659490788E+03  0.78302181784E+03  0.91114138595E+03  0.00000000000E+00 0. -1.
         -2    1    6    6    0  503 -0.18694460253E+03 -0.60399791189E+02  0.45245180919E+03  0.49326368083E+03  0.00000000000E+00 0.  1.
<mgrwt>
<rscale>  0 0.31892348E+04</rscale>
<asrwt>0</asrwt>
<pdfrwt beam="1">  1        2 0.26799286E+00 0.31892348E+04</pdfrwt>
<pdfrwt beam="2">  1       -1 0.22457585E+00 0.31892348E+04</pdfrwt>
<totfact> 0.91430628E-01</totfact>
</mgrwt>
</event>
<event>
12    7  0.1675873E-007  0.2687715E+04  0.7818608E-02  0.8339002E-01
          2   -1    0    0  501    0  0.00000000000E+00  0.00000000000E+00  0.68978657787E+03  0.68978657787E+03  0.00000000000E+00 0. -1.
         -1   -1    0    0    0  501 -0.00000000000E+00 -0.00000000000E+00 -0.26181325244E+04  0.26181325244E+04  0.00000000000E+00 0.  1.
         24    2    1    2    0    0  0.27065636428E+03  0.66363481773E+03 -0.20432585122E+04  0.21668272593E+04  0.81049276436E+02 0.  0.
        254    2    1    2    0    0 -0.27065636428E+03 -0.66363481773E+03  0.11491256568E+03  0.11410918429E+04  0.88046559130E+03 0.  0.
         23    2    4    4    0    0 -0.58545582902E+03 -0.41496323016E+03  0.62468362914E+02  0.72615769878E+03  0.91922233530E+02 0.  0.
         23    2    4    4    0    0  0.31479946474E+03 -0.24867158756E+03  0.52444202767E+02  0.41493414416E+03  0.92106938549E+02 0.  0.
          4    1    3    3  502    0  0.31177524966E+02  0.11480936215E+03 -0.26561406799E+03  0.29103962069E+03  0.00000000000E+00 0. -1.
         -3    1    3    3    0  502  0.23947883932E+03  0.54882545558E+03 -0.17776444442E+04  0.18757876386E+04  0.00000000000E+00 0.  1.
         13    1    5    5    0    0 -0.38597557940E+01 -0.29321133919E+01  0.10431797972E+02  0.11502930612E+02  0.00000000000E+00 0.  1.
        -13    1    5    5    0    0 -0.58159607322E+03 -0.41203111677E+03  0.52036564942E+02  0.71465476817E+03  0.00000000000E+00 0. -1.
          1    1    6    6  503    0  0.22867346081E+03 -0.16744851802E+03  0.77703397174E+02  0.29388497035E+03  0.00000000000E+00 0. -1.
         -1    1    6    6    0  503  0.86126003921E+02 -0.81223069545E+02 -0.25259194407E+02  0.12104917381E+03  0.00000000000E+00 0.  1.
<mgrwt>
<rscale>  0 0.26877148E+04</rscale>
<asrwt>0</asrwt>
<pdfrwt beam="1">  1        2 0.10612101E+00 0.26877148E+04</pdfrwt>
<pdfrwt beam="2">  1       -1 0.40278961E+00 0.26877148E+04</pdfrwt>
<totfact> 0.28611799E-01</totfact>
</mgrwt>
</event>
<event>
12    7  0.1675873E-007  0.1762121E+04  0.7818608E-02  0.8726706E-01
         -1   -1    0    0    0  501 -0.00000000000E+00  0.00000000000E+00  0.16811563265E+04  0.16811563265E+04  0.00000000000E+00 0.  1.
          2   -1    0    0  501    0  0.00000000000E+00 -0.00000000000E+00 -0.46174639734E+03  0.46174639734E+03  0.00000000000E+00 0. -1.
         24    2    1    2    0    0  0.13869223696E+02  0.41334941411E+03 -0.16320766326E+03  0.45315303163E+03  0.87526197306E+02 0.  0.
        254    2    1    2    0    0 -0.13869223696E+02 -0.41334941411E+03  0.13826175924E+04  0.16897496922E+04  0.87896104686E+03 0.  0.
         23    2    4    4    0    0  0.28172976665E+03 -0.54665276947E+03  0.76742408649E+03  0.98771569304E+03  0.91878452191E+02 0.  0.
         23    2    4    4    0    0 -0.29559899034E+03  0.13330335536E+03  0.61519350591E+03  0.70203399914E+03  0.96125639618E+02 0.  0.
          4    1    3    3  502    0 -0.28067766402E+02  0.29883972526E+03 -0.10465254707E+03  0.31787597662E+03  0.00000000000E+00 0. -1.
         -3    1    3    3    0  502  0.41936990098E+02  0.11450968885E+03 -0.58555116197E+02  0.13527705501E+03  0.00000000000E+00 0.  1.
         13    1    5    5    0    0  0.59785038659E+02 -0.21168636504E+03  0.26811977594E+03  0.34680481865E+03  0.00000000000E+00 0.  1.
        -13    1    5    5    0    0  0.22194472799E+03 -0.33496640443E+03  0.49930431055E+03  0.64091087439E+03  0.00000000000E+00 0. -1.
          1    1    6    6  503    0 -0.14929129604E+03  0.11046391995E+03  0.39758407409E+03  0.43882031021E+03  0.00000000000E+00 0. -1.
         -1    1    6    6    0  503 -0.14630769430E+03  0.22839435403E+02  0.21760943183E+03  0.26321368893E+03  0.00000000000E+00 0.  1.
<mgrwt>
<rscale>  0 0.17621213E+04</rscale>
<asrwt>0</asrwt>
<pdfrwt beam="1">  1        2 0.71037908E-01 0.17621213E+04</pdfrwt>
<pdfrwt beam="2">  1       -1 0.25863943E+00 0.17621213E+04</pdfrwt>
<totfact> 0.44767399E+00</totfact>
</mgrwt>
</event>
<event>
12    7  0.1808258E-007  0.1751231E+04  0.7818608E-02  0.8732673E-01
          2   -1    0    0  501    0  0.00000000000E+00  0.00000000000E+00  0.95306599504E+03  0.95306599504E+03  0.00000000000E+00 0. -1.
         -1   -1    0    0    0  501 -0.00000000000E+00 -0.00000000000E+00 -0.80445932758E+03  0.80445932758E+03  0.00000000000E+00 0.  1.
         24    2    1    2    0    0 -0.16302939804E+03 -0.39206875876E+03  0.54330449012E+03  0.69405718207E+03  0.78988016690E+02 0.  0.
        254    2    1    2    0    0  0.16302939804E+03  0.39206875876E+03 -0.39469782266E+03  0.10634681405E+04  0.89156133750E+03 0.  0.
         23    2    4    4    0    0 -0.21102600668E+03  0.27942649872E+03  0.14608023225E+03  0.39017416813E+03  0.91023642743E+02 0.  0.
         23    2    4    4    0    0  0.37405540472E+03  0.11264226004E+03 -0.54077805491E+03  0.67329397241E+03  0.90984306691E+02 0.  0.
          4    1    3    3  502    0 -0.12320706579E+03 -0.32790558533E+03  0.39722510970E+03  0.52961291688E+03  0.00000000000E+00 0. -1.
         -3    1    3    3    0  502 -0.39822332256E+02 -0.64163173430E+02  0.14607938042E+03  0.16444426519E+03  0.00000000000E+00 0.  1.
         13    1    5    5    0    0 -0.47409991232E+02  0.13215449854E+02  0.23165144658E+02  0.54396500903E+02  0.00000000000E+00 0.  1.
        -13    1    5    5    0    0 -0.16361601545E+03  0.26621104887E+03  0.12291508760E+03  0.33577766723E+03  0.00000000000E+00 0. -1.
          2    1    6    6  503    0  0.37256411300E+03  0.11593510279E+03 -0.54329412228E+03  0.66888972907E+03  0.00000000000E+00 0. -1.
         -2    1    6    6    0  503  0.14912917228E+01 -0.32928427503E+01  0.25160673699E+01  0.44042433392E+01  0.00000000000E+00 0.  1.
<mgrwt>
<rscale>  0 0.17512314E+04</rscale>
<asrwt>0</asrwt>
<pdfrwt beam="1">  1        2 0.14662554E+00 0.17512314E+04</pdfrwt>
<pdfrwt beam="2">  1       -1 0.12376297E+00 0.17512314E+04</pdfrwt>
<totfact> 0.16766549E+01</totfact>
</mgrwt>
</event>
<event>
12    7  0.1675873E-007  0.1533155E+04  0.7818608E-02  0.8862700E-01
         -1   -1    0    0    0  501 -0.00000000000E+00  0.00000000000E+00  0.12919802659E+03  0.12919802659E+03  0.00000000000E+00 0.  1.
          2   -1    0    0  501    0  0.00000000000E+00 -0.00000000000E+00 -0.45483726033E+04  0.45483726033E+04  0.00000000000E+00 0. -1.
         24    2    1    2    0    0 -0.47597781624E+03 -0.72367424367E+02 -0.16229140641E+04  0.16947718380E+04  0.81299431533E+02 0.  0.
        254    2    1    2    0    0  0.47597781624E+03  0.72367424367E+02 -0.27962605126E+04  0.29827987920E+04  0.91990426309E+03 0.  0.
         23    2    4    4    0    0  0.35115757368E+03  0.45021314899E+03 -0.11575961830E+04  0.12938682095E+04  0.89791421868E+02 0.  0.
         23    2    4    4    0    0  0.12482024256E+03 -0.37784572462E+03 -0.16386643296E+04  0.16889305825E+04  0.94436448763E+02 0.  0.
          2    1    3    3  502    0 -0.19195004637E+03 -0.39107804170E+02 -0.52929859159E+03  0.56438571891E+03  0.00000000000E+00 0. -1.
         -1    1    3    3    0  502 -0.28402776987E+03 -0.33259620197E+02 -0.10936154725E+04  0.11303861190E+04  0.00000000000E+00 0.  1.
         13    1    5    5    0    0  0.10678025540E+03  0.12186159036E+03 -0.24557843608E+03  0.29421257351E+03  0.00000000000E+00 0.  1.
        -13    1    5    5    0    0  0.24437731828E+03  0.32835155863E+03 -0.91201774696E+03  0.99965563596E+03  0.00000000000E+00 0. -1.
          3    1    6    6  503    0  0.12208822133E+03 -0.25233304554E+03 -0.10306323481E+04  0.10680732824E+04  0.00000000000E+00 0. -1.
         -3    1    6    6    0  503  0.27320212292E+01 -0.12551267908E+03 -0.60803198145E+03  0.62085730004E+03  0.00000000000E+00 0.  1.
<mgrwt>
<rscale>  0 0.15331546E+04</rscale>
<asrwt>0</asrwt>
<pdfrwt beam="1">  1        2 0.69974964E+00 0.15331546E+04</pdfrwt>
<pdfrwt beam="2">  1       -1 0.19876619E-01 0.15331546E+04</pdfrwt>
<totfact> 0.25896510E+00</totfact>
</mgrwt>
</event>
<event>
12    7  0.1675873E-007  0.1443037E+04  0.7818608E-02  0.8923242E-01
         -1   -1    0    0    0  501 -0.00000000000E+00  0.00000000000E+00  0.46022813539E+03  0.46022813539E+03  0.00000000000E+00 0.  1.
          2   -1    0    0  501    0  0.00000000000E+00 -0.00000000000E+00 -0.11311541000E+04  0.11311541000E+04  0.00000000000E+00 0. -1.
         24    2    1    2    0    0  0.27351857555E+03 -0.28655271659E+03 -0.41450045848E+03  0.57912431809E+03  0.81544314112E+02 0.  0.
        254    2    1    2    0    0 -0.27351857555E+03  0.28655271659E+03 -0.25642550612E+03  0.10122579173E+04  0.89553736961E+03 0.  0.
         23    2    4    4    0    0 -0.15530685536E+03 -0.21584225683E+03  0.17767888908E+03  0.33221080985E+03  0.89922941440E+02 0.  0.
         23    2    4    4    0    0 -0.11821172019E+03  0.50239497341E+03 -0.43410439520E+03  0.68004710744E+03  0.87422664727E+02 0.  0.
          4    1    3    3  502    0  0.14368027090E+03 -0.15903773140E+03 -0.28107514917E+03  0.35346889500E+03  0.00000000000E+00 0. -1.
         -3    1    3    3    0  502  0.12983830465E+03 -0.12751498519E+03 -0.13342530931E+03  0.22565542308E+03  0.00000000000E+00 0.  1.
         13    1    5    5    0    0 -0.66079963345E+02 -0.35453717274E+02  0.23165161829E+02  0.78486638014E+02  0.00000000000E+00 0. -1.
        -13    1    5    5    0    0 -0.89226892019E+02 -0.18038853955E+03  0.15451372726E+03  0.25372417183E+03  0.00000000000E+00 0.  1.
          1    1    6    6  503    0 -0.29662656780E+02  0.29904211312E+03 -0.27199830776E+03  0.40532596518E+03  0.00000000000E+00 0. -1.
         -1    1    6    6    0  503 -0.88549063408E+02  0.20335286029E+03 -0.16210608745E+03  0.27472114226E+03  0.00000000000E+00 0.  1.
<mgrwt>
<rscale>  0 0.14430370E+04</rscale>
<asrwt>0</asrwt>
<pdfrwt beam="1">  1        2 0.17402371E+00 0.14430370E+04</pdfrwt>
<pdfrwt beam="2">  1       -1 0.70804329E-01 0.14430370E+04</pdfrwt>
<totfact> 0.46491621E+01</totfact>
</mgrwt>
</event>
<event>
12    7  0.1675873E-007  0.2573552E+04  0.7818608E-02  0.8377241E-01
         -1   -1    0    0    0  501 -0.00000000000E+00  0.00000000000E+00  0.97928979522E+03  0.97928979522E+03  0.00000000000E+00 0.  1.
          2   -1    0    0  501    0  0.00000000000E+00 -0.00000000000E+00 -0.16908090254E+04  0.16908090254E+04  0.00000000000E+00 0. -1.
         24    2    1    2    0    0 -0.27202713081E+03  0.26272090971E+03  0.78786447424E+03  0.87760905444E+03  0.80288145876E+02 0.  0.
        254    2    1    2    0    0  0.27202713081E+03 -0.26272090971E+03 -0.14993837044E+04  0.17924897661E+04  0.90655779324E+03 0.  0.
         23    2    4    4    0    0  0.59435167716E+03 -0.11815951936E+03 -0.85591152102E+03  0.10527257138E+04  0.91822157360E+02 0.  0.
         23    2    4    4    0    0 -0.32232454635E+03 -0.14456139035E+03 -0.64347218336E+03  0.73976405231E+03  0.91669480090E+02 0.  0.
          2    1    3    3  502    0 -0.31616987885E+02  0.40174423879E+02  0.56338159650E+02  0.76076320164E+02  0.00000000000E+00 0. -1.
         -1    1    3    3    0  502 -0.24041014292E+03  0.22254648583E+03  0.73152631459E+03  0.80153273428E+03  0.00000000000E+00 0.  1.
         13    1    5    5    0    0  0.16249350531E+03 -0.51153016891E+02 -0.30689395958E+03  0.35100523192E+03  0.00000000000E+00 0.  1.
        -13    1    5    5    0    0  0.43185817185E+03 -0.67006502464E+02 -0.54901756144E+03  0.70172048191E+03  0.00000000000E+00 0. -1.
          3    1    6    6  503    0 -0.26027659625E+03 -0.14279548036E+03 -0.57650050562E+03  0.64844991228E+03  0.00000000000E+00 0. -1.
         -3    1    6    6    0  503 -0.62047950102E+02 -0.17659099977E+01 -0.66971677740E+02  0.91314140029E+02  0.00000000000E+00 0.  1.
<mgrwt>
<rscale>  0 0.25735517E+04</rscale>
<asrwt>0</asrwt>
<pdfrwt beam="1">  1        2 0.26012446E+00 0.25735517E+04</pdfrwt>
<pdfrwt beam="2">  1       -1 0.15065997E+00 0.25735517E+04</pdfrwt>
<totfact> 0.34531264E+00</totfact>
</mgrwt>
</event>
<event>
12    7  0.1675873E-007  0.1441853E+04  0.7818608E-02  0.8924068E-01
         -1   -1    0    0    0  501 -0.00000000000E+00  0.00000000000E+00  0.98146322232E+03  0.98146322232E+03  0.00000000000E+00 0.  1.
          2   -1    0    0  501    0  0.00000000000E+00 -0.00000000000E+00 -0.52955151139E+03  0.52955151139E+03  0.00000000000E+00 0. -1.
         24    2    1    2    0    0 -0.51632237715E+02  0.96690073373E+02 -0.30198675214E+03  0.33155535851E+03  0.81964010542E+02 0.  0.
        254    2    1    2    0    0  0.51632237715E+02 -0.96690073373E+02  0.75389846308E+03  0.11794593752E+04  0.90041471937E+03 0.  0.
         23    2    4    4    0    0  0.33906754349E+02  0.34303637952E+03  0.73669088763E+02  0.36433634475E+03  0.92142345335E+02 0.  0.
         23    2    4    4    0    0  0.17725483366E+02 -0.43972645289E+03  0.68022937432E+03  0.81512303045E+03  0.89666085814E+02 0.  0.
          2    1    3    3  502    0 -0.31997157968E+01  0.87432260898E+02 -0.19811951096E+03  0.21657788218E+03  0.00000000000E+00 0. -1.
         -1    1    3    3    0  502 -0.48432521918E+02  0.92578124747E+01 -0.10386724118E+03  0.11497747632E+03  0.00000000000E+00 0.  1.
         13    1    5    5    0    0 -0.25987209845E+01  0.26405215052E+03  0.83056932911E+02  0.27681897632E+03  0.00000000000E+00 0.  1.
        -13    1    5    5    0    0  0.36505475334E+02  0.78984229004E+02 -0.93878441478E+01  0.87517368439E+02  0.00000000000E+00 0. -1.
          3    1    6    6  503    0  0.24186363260E+01  0.41469942572E+01  0.99951171269E+01  0.11088269902E+02  0.00000000000E+00 0. -1.
         -3    1    6    6    0  503  0.15306847040E+02 -0.44387344715E+03  0.67023425719E+03  0.80403476055E+03  0.00000000000E+00 0.  1.
<mgrwt>
<rscale>  0 0.14418534E+04</rscale>
<asrwt>0</asrwt>
<pdfrwt beam="1">  1        2 0.81469463E-01 0.14418534E+04</pdfrwt>
<pdfrwt beam="2">  1       -1 0.15099434E+00 0.14418534E+04</pdfrwt>
<totfact> 0.21889785E+01</totfact>
</mgrwt>
</event>
<event>
12    7  0.1675873E-007  0.1277266E+04  0.7818608E-02  0.9047790E-01
          2   -1    0    0  501    0  0.00000000000E+00  0.00000000000E+00  0.14205144098E+04  0.14205144098E+04  0.00000000000E+00 0. -1.
         -1   -1    0    0    0  501 -0.00000000000E+00 -0.00000000000E+00 -0.28711575682E+03  0.28711575682E+03  0.00000000000E+00 0.  1.
         24    2    1    2    0    0 -0.86706430838E+02 -0.41740701704E+01 -0.11427440580E+03  0.16460125462E+03  0.80619508743E+02 0.  0.
        254    2    1    2    0    0  0.86706430838E+02  0.41740701704E+01  0.12476730588E+04  0.15430289120E+04  0.90372270839E+03 0.  0.
         23    2    4    4    0    0  0.48025705550E+03 -0.40924885600E+02  0.79725312919E+03  0.93642815131E+03  0.94675471766E+02 0.  0.
         23    2    4    4    0    0 -0.39355062466E+03  0.45098955771E+02  0.45041992960E+03  0.60660076070E+03  0.90390043250E+02 0.  0.
          4    1    3    3  502    0 -0.57662909887E+02 -0.47648984294E+00 -0.12908805440E+02  0.59092093186E+02  0.00000000000E+00 0. -1.
         -3    1    3    3    0  502 -0.29043520951E+02 -0.36975803275E+01 -0.10136560036E+03  0.10550916143E+03  0.00000000000E+00 0.  1.
         13    1    5    5    0    0  0.40152719974E+03 -0.67854434564E+02  0.64133549579E+03  0.75969700183E+03  0.00000000000E+00 0.  1.
        -13    1    5    5    0    0  0.78729855758E+02  0.26929548964E+02  0.15591763339E+03  0.17673114949E+03  0.00000000000E+00 0. -1.
          1    1    6    6  503    0 -0.18225112513E+03  0.41230803272E+02  0.15170208166E+03  0.24068438530E+03  0.00000000000E+00 0.  1.
         -1    1    6    6    0  503 -0.21129949953E+03  0.38681524985E+01  0.29871784793E+03  0.36591637539E+03  0.00000000000E+00 0. -1.
<mgrwt>
<rscale>  0 0.12772659E+04</rscale>
<asrwt>0</asrwt>
<pdfrwt beam="1">  1        2 0.21854067E+00 0.12772659E+04</pdfrwt>
<pdfrwt beam="2">  1       -1 0.44171656E-01 0.12772659E+04</pdfrwt>
<totfact> 0.79864989E+01</totfact>
</mgrwt>
</event>
<event>
12    7  0.1675873E-007  0.2067901E+04  0.7818608E-02  0.8575517E-01
          2   -1    0    0  501    0  0.00000000000E+00  0.00000000000E+00  0.16347758266E+04  0.16347758266E+04  0.00000000000E+00 0. -1.
         -1   -1    0    0    0  501 -0.00000000000E+00 -0.00000000000E+00 -0.65394489937E+03  0.65394489937E+03  0.00000000000E+00 0.  1.
         24    2    1    2    0    0 -0.42871198110E+03 -0.43863921910E+03 -0.22842368448E+03  0.65960692324E+03  0.81887644271E+02 0.  0.
        254    2    1    2    0    0  0.42871198110E+03  0.43863921910E+03  0.12092546117E+04  0.16291138028E+04  0.90305965422E+03 0.  0.
         23    2    4    4    0    0  0.15215766981E+02  0.33392827000E+03  0.23436208961E+01  0.34577029151E+03  0.88385478795E+02 0.  0.
         23    2    4    4    0    0  0.41349621412E+03  0.10471094910E+03  0.12069109908E+04  0.12833435113E+04  0.91612914563E+02 0.  0.
          4    1    3    3  502    0 -0.36257965586E+03 -0.32850628000E+03 -0.19639818413E+03  0.52721212958E+03  0.00000000000E+00 0. -1.
         -3    1    3    3    0  502 -0.66132325239E+02 -0.11013293910E+03 -0.32025500345E+02  0.13239479366E+03  0.00000000000E+00 0.  1.
         13    1    5    5    0    0 -0.19058115713E+02  0.23886090397E+03 -0.25431839317E+02  0.24096581017E+03  0.00000000000E+00 0. -1.
        -13    1    5    5    0    0  0.34273882694E+02  0.95067366028E+02  0.27775460213E+02  0.10480448134E+03  0.00000000000E+00 0.  1.
          4    1    6    6  503    0  0.38524422038E+03  0.96274679175E+02  0.10281643178E+04  0.11021813769E+04  0.00000000000E+00 0. -1.
         -4    1    6    6    0  503  0.28251993742E+02  0.84362699275E+01  0.17874667308E+03  0.18116213439E+03  0.00000000000E+00 0.  1.
<mgrwt>
<rscale>  0 0.20679007E+04</rscale>
<asrwt>0</asrwt>
<pdfrwt beam="1">  1        2 0.25150397E+00 0.20679007E+04</pdfrwt>
<pdfrwt beam="2">  1       -1 0.10060691E+00 0.20679007E+04</pdfrwt>
<totfact> 0.10548588E+01</totfact>
</mgrwt>
</event>
<event>
12    7  0.1675873E-007  0.2571703E+04  0.7818608E-02  0.8377877E-01
         -1   -1    0    0    0  501 -0.00000000000E+00  0.00000000000E+00  0.35841982470E+03  0.35841982470E+03  0.00000000000E+00 0.  1.
          2   -1    0    0  501    0  0.00000000000E+00 -0.00000000000E+00 -0.46130667910E+04  0.46130667910E+04  0.00000000000E+00 0. -1.
         24    2    1    2    0    0 -0.30985346925E+03  0.98840524876E+03 -0.98936012324E+03  0.14346297183E+04  0.79842764973E+02 0.  0.
        254    2    1    2    0    0  0.30985346925E+03 -0.98840524876E+03 -0.32652868431E+04  0.35368568974E+04  0.87994570104E+03 0.  0.
         23    2    4    4    0    0  0.71322241685E+02 -0.93501108541E+03 -0.16454578850E+04  0.18961743742E+04  0.92806324366E+02 0.  0.
         23    2    4    4    0    0  0.23853122756E+03 -0.53394163346E+02 -0.16198289581E+04  0.16406825232E+04  0.90803113535E+02 0.  0.
          2    1    3    3  502    0 -0.16273827773E+03  0.54539692011E+03 -0.59705631873E+03  0.82487441180E+03  0.00000000000E+00 0. -1.
         -1    1    3    3    0  502 -0.14711519151E+03  0.44300832865E+03 -0.39230380451E+03  0.60975530654E+03  0.00000000000E+00 0.  1.
         13    1    5    5    0    0  0.15912486025E+02 -0.21678040746E+03 -0.30674405083E+03  0.37595061509E+03  0.00000000000E+00 0.  1.
        -13    1    5    5    0    0  0.55409755659E+02 -0.71823067795E+03 -0.13387138342E+04  0.15202237591E+04  0.00000000000E+00 0. -1.
          1    1    6    6  503    0  0.11046280609E+03 -0.50180938391E+02 -0.10287653618E+04  0.10358949405E+04  0.00000000000E+00 0. -1.
         -1    1    6    6    0  503  0.12806842147E+03 -0.32132249552E+01 -0.59106359627E+03  0.60478758274E+03  0.00000000000E+00 0.  1.
<mgrwt>
<rscale>  0 0.25717034E+04</rscale>
<asrwt>0</asrwt>
<pdfrwt beam="1">  1        2 0.70970251E+00 0.25717034E+04</pdfrwt>
<pdfrwt beam="2">  1       -1 0.55141517E-01 0.25717034E+04</pdfrwt>
<totfact> 0.31928547E-01</totfact>
</mgrwt>
</event>
<event>
12    7  0.1675873E-007  0.2967288E+04  0.7818608E-02  0.8253134E-01
          2   -1    0    0  501    0  0.00000000000E+00  0.00000000000E+00  0.31348787727E+04  0.31348787727E+04  0.00000000000E+00 0. -1.
         -1   -1    0    0    0  501 -0.00000000000E+00 -0.00000000000E+00 -0.70216418500E+03  0.70216418500E+03  0.00000000000E+00 0.  1.
         24    2    1    2    0    0 -0.16288870539E+03 -0.47767224472E+03  0.25967581742E+04  0.26465705166E+04  0.80492116003E+02 0.  0.
        254    2    1    2    0    0  0.16288870539E+03  0.47767224472E+03 -0.16404358647E+03  0.11904724411E+04  0.10656504262E+04 0.  0.
         23    2    4    4    0    0 -0.32519647819E+03 -0.50318372240E+02  0.18227710418E+03  0.38727377990E+03  0.92039936328E+02 0.  0.
         23    2    4    4    0    0  0.48808518358E+03  0.52799061696E+03 -0.34632069064E+03  0.80319866116E+03  0.90492157079E+02 0.  0.
          2    1    3    3  502    0 -0.15909905345E+03 -0.48010950328E+03  0.25558468772E+04  0.26054118492E+04  0.00000000000E+00 0. -1.
         -1    1    3    3    0  502 -0.37896519350E+01  0.24372585577E+01  0.40911296933E+02  0.41158667469E+02  0.00000000000E+00 0.  1.
         13    1    5    5    0    0 -0.22986736894E+03 -0.17114196504E+02  0.81109650331E+02  0.24435768537E+03  0.00000000000E+00 0. -1.
        -13    1    5    5    0    0 -0.95329109249E+02 -0.33204175736E+02  0.10116745384E+03  0.14291609452E+03  0.00000000000E+00 0.  1.
          1    1    6    6  503    0  0.42000186678E+03  0.46124641304E+03 -0.26455883678E+03  0.67759958660E+03  0.00000000000E+00 0. -1.
         -1    1    6    6    0  503  0.68083316799E+02  0.66744203921E+02 -0.81761853862E+02  0.12559907456E+03  0.00000000000E+00 0.  1.
<mgrwt>
<rscale>  0 0.29672881E+04</rscale>
<asrwt>0</asrwt>
<pdfrwt beam="1">  1        2 0.48228904E+00 0.29672881E+04</pdfrwt>
<pdfrwt beam="2">  1       -1 0.10802526E+00 0.29672881E+04</pdfrwt>
<totfact> 0.11094749E+00</totfact>
</mgrwt>
</event>
<event>
12    7  0.1675873E-007  0.2041217E+04  0.7818608E-02  0.8587589E-01
          2   -1    0    0  501    0  0.00000000000E+00  0.00000000000E+00  0.11895692678E+04  0.11895692678E+04  0.00000000000E+00 0. -1.
         -1   -1    0    0    0  501 -0.00000000000E+00 -0.00000000000E+00 -0.87564624627E+03  0.87564624627E+03  0.00000000000E+00 0.  1.
         24    2    1    2    0    0 -0.57671872012E+03  0.49072528638E+03 -0.18264386860E+03  0.78329438831E+03  0.82313590550E+02 0.  0.
        254    2    1    2    0    0  0.57671872012E+03 -0.49072528638E+03  0.49656689012E+03  0.12819211257E+04  0.90737385209E+03 0.  0.
         23    2    4    4    0    0  0.60153874991E+03 -0.67572351390E+02 -0.13346203527E+02  0.61248165619E+03  0.92416274040E+02 0.  0.
         23    2    4    4    0    0 -0.24820029794E+02 -0.42315293499E+03  0.50991309364E+03  0.66943946955E+03  0.91996739388E+02 0.  0.
          4    1    3    3  502    0 -0.40753709313E+02  0.25949145027E+02  0.73610307053E+01  0.48871338466E+02  0.00000000000E+00 0. -1.
         -3    1    3    3    0  502 -0.53596501080E+03  0.46477614135E+03 -0.19000489931E+03  0.73442304984E+03  0.00000000000E+00 0.  1.
         13    1    5    5    0    0  0.49951392632E+03 -0.47855326261E+02 -0.45105129292E+02  0.50382414346E+03  0.00000000000E+00 0.  1.
        -13    1    5    5    0    0  0.10202482359E+03 -0.19717025130E+02  0.31758925765E+02  0.10865751273E+03  0.00000000000E+00 0. -1.
          2    1    6    6  503    0 -0.11728114068E+02 -0.42013746634E+03  0.49499445327E+03  0.64936318655E+03  0.00000000000E+00 0.  1.
         -2    1    6    6    0  503 -0.13091915725E+02 -0.30154686496E+01  0.14918640374E+02  0.20076283001E+02  0.00000000000E+00 0. -1.
<mgrwt>
<rscale>  0 0.20412172E+04</rscale>
<asrwt>0</asrwt>
<pdfrwt beam="1">  1        2 0.18301066E+00 0.20412172E+04</pdfrwt>
<pdfrwt beam="2">  1       -1 0.13471481E+00 0.20412172E+04</pdfrwt>
<totfact> 0.93964938E+00</totfact>
</mgrwt>
</event>
<event>
12    7  0.1675873E-007  0.2751726E+04  0.7818608E-02  0.8318414E-01
         -1   -1    0    0    0  501 -0.00000000000E+00  0.00000000000E+00  0.14914902983E+04  0.14914902983E+04  0.00000000000E+00 0.  1.
          2   -1    0    0  501    0  0.00000000000E+00 -0.00000000000E+00 -0.12691995193E+04  0.12691995193E+04  0.00000000000E+00 0. -1.
         24    2    1    2    0    0  0.53932296632E+03 -0.10348700161E+04 -0.30066635337E+03  0.12077649151E+04  0.80440176524E+02 0.  0.
        254    2    1    2    0    0 -0.53932296632E+03  0.10348700161E+04  0.52295713234E+03  0.15529249025E+04  0.88105980408E+03 0.  0.
         23    2    4    4    0    0 -0.32826719526E+03  0.16171266350E+03 -0.17183981870E+03  0.41375633874E+03  0.88062747687E+02 0.  0.
         23    2    4    4    0    0 -0.21105577106E+03  0.87315735255E+03  0.69479695103E+03  0.11391685637E+04  0.89520459403E+02 0.  0.
          4    1    3    3  502    0  0.50780595270E+03 -0.10035414880E+04 -0.28169296625E+03  0.11594452686E+04  0.00000000000E+00 0. -1.
         -3    1    3    3    0  502  0.31517013621E+02 -0.31328528100E+02 -0.18973387110E+02  0.48319646511E+02  0.00000000000E+00 0.  1.
         13    1    5    5    0    0 -0.11549909434E+03  0.62863343054E+02 -0.10920141042E+03  0.17092919216E+03  0.00000000000E+00 0. -1.
        -13    1    5    5    0    0 -0.21276810093E+03  0.98849320447E+02 -0.62638408276E+02  0.24282714658E+03  0.00000000000E+00 0.  1.
          1    1    6    6  503    0 -0.20764092542E+02  0.17265724670E+03  0.17217700770E+03  0.24471737649E+03  0.00000000000E+00 0. -1.
         -1    1    6    6    0  503 -0.19029167851E+03  0.70050010585E+03  0.52261994334E+03  0.89445118726E+03  0.00000000000E+00 0.  1.
<mgrwt>
<rscale>  0 0.27517258E+04</rscale>
<asrwt>0</asrwt>
<pdfrwt beam="1">  1        2 0.19526147E+00 0.27517258E+04</pdfrwt>
<pdfrwt beam="2">  1       -1 0.22946004E+00 0.27517258E+04</pdfrwt>
<totfact> 0.16324019E+00</totfact>
</mgrwt>
</event>
<event>
12    7  0.1675873E-007  0.1745261E+04  0.7818608E-02  0.8735963E-01
         -1   -1    0    0    0  501 -0.00000000000E+00  0.00000000000E+00  0.23528053600E+03  0.23528053600E+03  0.00000000000E+00 0.  1.
          2   -1    0    0  501    0  0.00000000000E+00 -0.00000000000E+00 -0.32364945560E+04  0.32364945560E+04  0.00000000000E+00 0. -1.
         24    2    1    2    0    0 -0.54491135712E+02  0.65715115155E+02 -0.22815893914E+04  0.22845125827E+04  0.77844905195E+02 0.  0.
        254    2    1    2    0    0  0.54491135712E+02 -0.65715115155E+02 -0.71962462857E+03  0.11872625093E+04  0.94044930733E+03 0.  0.
         23    2    4    4    0    0  0.16551330603E+03 -0.42899930234E+03 -0.14080631924E+03  0.48914965942E+03  0.89475772667E+02 0.  0.
         23    2    4    4    0    0 -0.11102217032E+03  0.36328418719E+03 -0.57881830933E+03  0.69811284985E+03  0.89607996019E+02 0.  0.
          2    1    3    3  502    0 -0.13059973899E+02  0.70066957738E+02 -0.16595100812E+04  0.16610399306E+04  0.00000000000E+00 0. -1.
         -3    1    3    3    0  502 -0.41431161813E+02 -0.43518425832E+01 -0.62207931021E+03  0.62347265208E+03  0.00000000000E+00 0.  1.
         13    1    5    5    0    0  0.16091402761E+03 -0.32934619165E+03 -0.12947361304E+03  0.38874883242E+03  0.00000000000E+00 0. -1.
        -13    1    5    5    0    0  0.45992784198E+01 -0.99653110695E+02 -0.11332706194E+02  0.10040082700E+03  0.00000000000E+00 0.  1.
          1    1    6    6  503    0 -0.10612522633E+03  0.26989310106E+03 -0.48850432732E+03  0.56810327184E+03  0.00000000000E+00 0. -1.
         -1    1    6    6    0  503 -0.48969439827E+01  0.93391086127E+02 -0.90313982007E+02  0.13000957801E+03  0.00000000000E+00 0.  1.
<mgrwt>
<rscale>  0 0.17452612E+04</rscale>
<asrwt>0</asrwt>
<pdfrwt beam="1">  1        2 0.49792221E+00 0.17452612E+04</pdfrwt>
<pdfrwt beam="2">  1       -1 0.36197008E-01 0.17452612E+04</pdfrwt>
<totfact> 0.97388128E+00</totfact>
</mgrwt>
</event>
<event>
12    7  0.1675873E-007  0.1219409E+04  0.7818608E-02  0.9096036E-01
          2   -1    0    0  501    0  0.00000000000E+00  0.00000000000E+00  0.69800695939E+03  0.69800695939E+03  0.00000000000E+00 0. -1.
         -1   -1    0    0    0  501 -0.00000000000E+00 -0.00000000000E+00 -0.53257248810E+03  0.53257248810E+03  0.00000000000E+00 0.  1.
         24    2    1    2    0    0 -0.26649979872E+03 -0.36030985203E+02  0.19837194229E+02  0.28122512725E+03  0.79835351235E+02 0.  0.
        254    2    1    2    0    0  0.26649979872E+03  0.36030985203E+02  0.14559727706E+03  0.94935432025E+03  0.89875173639E+03 0.  0.
         23    2    4    4    0    0  0.12632511641E+02  0.34833240732E+03  0.33715093652E+03  0.49486812826E+03  0.98633990264E+02 0.  0.
         23    2    4    4    0    0  0.25386728708E+03 -0.31230142211E+03 -0.19155365946E+03  0.45448619198E+03  0.88792547801E+02 0.  0.
          4    1    3    3  502    0 -0.23114884769E+03 -0.27284752694E+01  0.24375826978E+02  0.23244658592E+03  0.00000000000E+00 0. -1.
         -3    1    3    3    0  502 -0.35350951035E+02 -0.33302509933E+02 -0.45386327486E+01  0.48778541329E+02  0.00000000000E+00 0.  1.
         13    1    5    5    0    0  0.15659644946E+02  0.11856048501E+03  0.56852621994E+02  0.13241613841E+03  0.00000000000E+00 0. -1.
        -13    1    5    5    0    0 -0.30271333053E+01  0.22977192231E+03  0.28029831453E+03  0.36245198985E+03  0.00000000000E+00 0.  1.
          4    1    6    6  503    0  0.20374795159E+03 -0.27366749533E+03 -0.12690808561E+03  0.36402305967E+03  0.00000000000E+00 0. -1.
         -4    1    6    6    0  503  0.50119335492E+02 -0.38633926779E+02 -0.64645573856E+02  0.90463132312E+02  0.00000000000E+00 0.  1.
<mgrwt>
<rscale>  0 0.12194086E+04</rscale>
<asrwt>0</asrwt>
<pdfrwt beam="1">  1        2 0.10738569E+00 0.12194086E+04</pdfrwt>
<pdfrwt beam="2">  1       -1 0.81934229E-01 0.12194086E+04</pdfrwt>
<totfact> 0.68639530E+01</totfact>
</mgrwt>
</event>
<event>
12    7  0.1675873E-007  0.1674369E+04  0.7818608E-02  0.8776119E-01
          2   -1    0    0  501    0  0.00000000000E+00  0.00000000000E+00  0.13413080045E+04  0.13413080045E+04  0.00000000000E+00 0. -1.
         -1   -1    0    0    0  501 -0.00000000000E+00 -0.00000000000E+00 -0.52253340487E+03  0.52253340487E+03  0.00000000000E+00 0.  1.
         24    2    1    2    0    0 -0.34981068532E+03  0.26634252822E+03 -0.14312192176E+03  0.46914145462E+03  0.79397493947E+02 0.  0.
        254    2    1    2    0    0  0.34981068532E+03 -0.26634252822E+03  0.96189652141E+03  0.13946999548E+04  0.90919590189E+03 0.  0.
         23    2    4    4    0    0  0.19883559615E+03 -0.12924875629E+03  0.11019768121E+04  0.11306821078E+04  0.88590626558E+02 0.  0.
         23    2    4    4    0    0  0.15097508917E+03 -0.13709377194E+03 -0.14008029069E+03  0.26401784700E+03  0.92166999747E+02 0.  0.
          4    1    3    3  502    0 -0.31173077916E+03  0.21956623018E+03 -0.97636535553E+02  0.39359662242E+03  0.00000000000E+00 0. -1.
         -3    1    3    3    0  502 -0.38079906164E+02  0.46776298046E+02 -0.45485386211E+02  0.75544832193E+02  0.00000000000E+00 0.  1.
         13    1    5    5    0    0  0.77606926462E+02 -0.81531574495E+02  0.67333119592E+03  0.68267498275E+03  0.00000000000E+00 0.  1.
        -13    1    5    5    0    0  0.12122866969E+03 -0.47717181791E+02  0.42864561618E+03  0.44800712501E+03  0.00000000000E+00 0. -1.
          3    1    6    6  503    0  0.13546418744E+03 -0.14614118918E+03 -0.14372850567E+03  0.24569427465E+03  0.00000000000E+00 0. -1.
         -3    1    6    6    0  503  0.15510901734E+02  0.90474172437E+01  0.36482149769E+01  0.18323572356E+02  0.00000000000E+00 0.  1.
<mgrwt>
<rscale>  0 0.16743694E+04</rscale>
<asrwt>0</asrwt>
<pdfrwt beam="1">  1        2 0.20635508E+00 0.16743694E+04</pdfrwt>
<pdfrwt beam="2">  1       -1 0.80389755E-01 0.16743694E+04</pdfrwt>
<totfact> 0.26246004E+01</totfact>
</mgrwt>
</event>
<event>
12    7  0.1675873E-007  0.1365386E+04  0.7818608E-02  0.8979262E-01
          2   -1    0    0  501    0  0.00000000000E+00  0.00000000000E+00  0.12715466601E+04  0.12715466601E+04  0.00000000000E+00 0. -1.
         -1   -1    0    0    0  501 -0.00000000000E+00 -0.00000000000E+00 -0.36653782944E+03  0.36653782944E+03  0.00000000000E+00 0.  1.
         24    2    1    2    0    0  0.11663934637E+03 -0.13383882110E+03 -0.14343660576E+03  0.24576634286E+03  0.91156284794E+02 0.  0.
        254    2    1    2    0    0 -0.11663934637E+03  0.13383882110E+03  0.10484454364E+04  0.13923181466E+04  0.89877384320E+03 0.  0.
         23    2    4    4    0    0 -0.31637747340E+03  0.24846076473E+03  0.10682841094E+04  0.11444346599E+04  0.81684118663E+02 0.  0.
         23    2    4    4    0    0  0.19973812703E+03 -0.11462194363E+03 -0.19838672982E+02  0.24788348671E+03  0.89549654865E+02 0.  0.
          2    1    3    3  502    0  0.15117489129E+02 -0.76832342217E+02 -0.31972887966E+02  0.84581397796E+02  0.00000000000E+00 0. -1.
         -1    1    3    3    0  502  0.10152185724E+03 -0.57006478885E+02 -0.11146371780E+03  0.16118494507E+03  0.00000000000E+00 0.  1.
         13    1    5    5    0    0 -0.28586259990E+03  0.24991884049E+03  0.97812392931E+03  0.10492393788E+04  0.00000000000E+00 0.  1.
        -13    1    5    5    0    0 -0.30514873492E+02 -0.14580757551E+01  0.90160180042E+02  0.95195281156E+02  0.00000000000E+00 0. -1.
          1    1    6    6  503    0  0.56098655511E+02 -0.50006823879E+02 -0.46159796149E+02  0.88195625544E+02  0.00000000000E+00 0. -1.
         -1    1    6    6    0  503  0.14363947152E+03 -0.64615119751E+02  0.26321123167E+02  0.15968786116E+03  0.00000000000E+00 0.  1.
<mgrwt>
<rscale>  0 0.13653863E+04</rscale>
<asrwt>0</asrwt>
<pdfrwt beam="1">  1        2 0.19562256E+00 0.13653863E+04</pdfrwt>
<pdfrwt beam="2">  1       -1 0.56390436E-01 0.13653863E+04</pdfrwt>
<totfact> 0.60801240E+01</totfact>
</mgrwt>
</event>
<event>
12    7  0.1675873E-007  0.1345683E+04  0.7818608E-02  0.8994103E-01
          2   -1    0    0  501    0  0.00000000000E+00  0.00000000000E+00  0.10363955240E+04  0.10363955240E+04  0.00000000000E+00 0. -1.
         -1   -1    0    0    0  501 -0.00000000000E+00 -0.00000000000E+00 -0.43681730411E+03  0.43681730411E+03  0.00000000000E+00 0.  1.
         24    2    1    2    0    0 -0.16142417723E+03 -0.12447283754E+03 -0.13537147854E+03  0.25741713334E+03  0.79918027094E+02 0.  0.
        254    2    1    2    0    0  0.16142417723E+03  0.12447283754E+03  0.73494969838E+03  0.12157956947E+04  0.94681405773E+03 0.  0.
         23    2    4    4    0    0 -0.11448365338E+02 -0.90911456568E+02  0.88125673139E+03  0.89077906430E+03  0.92075820840E+02 0.  0.
         23    2    4    4    0    0  0.17287254256E+03  0.21538429411E+03 -0.14630703300E+03  0.32501663043E+03  0.89189416588E+02 0.  0.
          2    1    3    3  502    0 -0.86443513764E+02 -0.41118212481E+02 -0.22515689627E+02  0.98336894139E+02  0.00000000000E+00 0. -1.
         -1    1    3    3    0  502 -0.74980663463E+02 -0.83354625060E+02 -0.11285578891E+03  0.15908023920E+03  0.00000000000E+00 0.  1.
         13    1    5    5    0    0  0.33311453953E+02 -0.70929882077E+02  0.62327941259E+03  0.62818622024E+03  0.00000000000E+00 0. -1.
        -13    1    5    5    0    0 -0.44759819290E+02 -0.19981574491E+02  0.25797731880E+03  0.26259284407E+03  0.00000000000E+00 0.  1.
          4    1    6    6  503    0  0.11662396522E+03  0.15510125324E+03 -0.14553149012E+03  0.24256331676E+03  0.00000000000E+00 0. -1.
         -4    1    6    6    0  503  0.56248577342E+02  0.60283040868E+02 -0.77554288499E+00  0.82453313676E+02  0.00000000000E+00 0.  1.
<mgrwt>
<rscale>  0 0.13456827E+04</rscale>
<asrwt>0</asrwt>
<pdfrwt beam="1">  1        2 0.15944547E+00 0.13456827E+04</pdfrwt>
<pdfrwt beam="2">  1       -1 0.67202662E-01 0.13456827E+04</pdfrwt>
<totfact> 0.59693063E+01</totfact>
</mgrwt>
</event>
<event>
12    7  0.1675873E-007  0.3066029E+04  0.7818608E-02  0.8225123E-01
          2   -1    0    0  501    0  0.00000000000E+00  0.00000000000E+00  0.11263172876E+04  0.11263172876E+04  0.00000000000E+00 0. -1.
         -1   -1    0    0    0  501 -0.00000000000E+00 -0.00000000000E+00 -0.20865636902E+04  0.20865636902E+04  0.00000000000E+00 0.  1.
         24    2    1    2    0    0  0.67989766932E+03  0.11733792368E+04 -0.79940899174E+03  0.15763724194E+04  0.82556614934E+02 0.  0.
        254    2    1    2    0    0 -0.67989766932E+03 -0.11733792368E+04 -0.16083741082E+03  0.16365085584E+04  0.90178263181E+03 0.  0.
         23    2    4    4    0    0 -0.41801598484E+03 -0.12511842337E+04 -0.38103445567E+02  0.13229753327E+04  0.92803599962E+02 0.  0.
         23    2    4    4    0    0 -0.26188168448E+03  0.77804996921E+02 -0.12273396525E+03  0.31353322572E+03  0.92756795927E+02 0.  0.
          2    1    3    3  502    0  0.47141739883E+02  0.78725082265E+02 -0.31221244534E+02  0.96926509929E+02  0.00000000000E+00 0. -1.
         -1    1    3    3    0  502  0.63275592943E+03  0.10946541545E+04 -0.76818774720E+03  0.14794459095E+04  0.00000000000E+00 0.  1.
         13    1    5    5    0    0 -0.27787140806E+02 -0.82364806894E+02  0.20613189371E+02  0.89336387798E+02  0.00000000000E+00 0.  1.
        -13    1    5    5    0    0 -0.39022884403E+03 -0.11688194268E+04 -0.58716634937E+02  0.12336389449E+04  0.00000000000E+00 0. -1.
          3    1    6    6  503    0 -0.26056526275E+03  0.76512342891E+02 -0.13350268423E+03  0.30260760312E+03  0.00000000000E+00 0. -1.
         -3    1    6    6    0  503 -0.13164217255E+01  0.12926540305E+01  0.10768718983E+02  0.10925622597E+02  0.00000000000E+00 0.  1.
<mgrwt>
<rscale>  0 0.30660285E+04</rscale>
<asrwt>0</asrwt>
<pdfrwt beam="1">  1        2 0.17327958E+00 0.30660285E+04</pdfrwt>
<pdfrwt beam="2">  1       -1 0.32100979E+00 0.30660285E+04</pdfrwt>
<totfact> 0.49072596E-01</totfact>
</mgrwt>
</event>
<event>
12    7  0.1675873E-007  0.2734282E+04  0.7818608E-02  0.8323967E-01
          2   -1    0    0  501    0  0.00000000000E+00  0.00000000000E+00  0.25993268469E+04  0.25993268469E+04  0.00000000000E+00 0. -1.
         -1   -1    0    0    0  501 -0.00000000000E+00 -0.00000000000E+00 -0.71906107146E+03  0.71906107146E+03  0.00000000000E+00 0.  1.
         24    2    1    2    0    0 -0.97512637087E+03  0.16910567480E+03  0.16701229386E+04  0.19429610647E+04  0.79491513347E+02 0.  0.
        254    2    1    2    0    0  0.97512637087E+03 -0.16910567480E+03  0.21014283689E+03  0.13754268537E+04  0.93175686177E+03 0.  0.
         23    2    4    4    0    0  0.30671975788E+03 -0.47895324274E+03 -0.72776108150E+02  0.58083559171E+03  0.92738363536E+02 0.  0.
         23    2    4    4    0    0  0.66840661299E+03  0.30984756794E+03  0.28291894504E+03  0.79459126195E+03  0.92516098380E+02 0.  0.
          4    1    3    3  502    0 -0.93751807776E+03  0.14630812866E+03  0.15933384609E+04  0.18544739592E+04  0.00000000000E+00 0. -1.
         -3    1    3    3    0  502 -0.37608293113E+02  0.22797546139E+02  0.76784477732E+02  0.88487105509E+02  0.00000000000E+00 0.  1.
         13    1    5    5    0    0  0.67235923293E+01 -0.61857898278E+02 -0.13302795717E+02  0.63628379259E+02  0.00000000000E+00 0. -1.
        -13    1    5    5    0    0  0.29999616556E+03 -0.41709534446E+03 -0.59473312434E+02  0.51720721245E+03  0.00000000000E+00 0.  1.
          1    1    6    6  503    0  0.52450243955E+02  0.24861252774E-01  0.28257340978E+02  0.59577730976E+02  0.00000000000E+00 0. -1.
         -1    1    6    6    0  503  0.61595636903E+03  0.30982270669E+03  0.25466160406E+03  0.73501353097E+03  0.00000000000E+00 0.  1.
<mgrwt>
<rscale>  0 0.27342822E+04</rscale>
<asrwt>0</asrwt>
<pdfrwt beam="1">  1        2 0.39989643E+00 0.27342822E+04</pdfrwt>
<pdfrwt beam="2">  1       -1 0.11062478E+00 0.27342822E+04</pdfrwt>
<totfact> 0.22805677E+00</totfact>
</mgrwt>
</event>
<event>
12    7  0.1675873E-007  0.1285122E+04  0.7818608E-02  0.9041448E-01
          2   -1    0    0  501    0  0.00000000000E+00  0.00000000000E+00  0.10005445441E+04  0.10005445441E+04  0.00000000000E+00 0. -1.
         -1   -1    0    0    0  501 -0.00000000000E+00 -0.00000000000E+00 -0.41265976570E+03  0.41265976570E+03  0.00000000000E+00 0.  1.
         24    2    1    2    0    0  0.16534014233E+01  0.31929439862E+03  0.16033493162E+03  0.36562325258E+03  0.77597846667E+02 0.  0.
        254    2    1    2    0    0 -0.16534014233E+01 -0.31929439862E+03  0.42754984680E+03  0.10475810572E+04  0.90148519303E+03 0.  0.
         23    2    4    4    0    0 -0.28127027304E+03  0.20111238059E+03  0.18679371875E+03  0.40314541792E+03  0.89861996966E+02 0.  0.
         23    2    4    4    0    0  0.27961687162E+03 -0.52040677921E+03  0.24075612805E+03  0.64443563932E+03  0.91241269641E+02 0.  0.
          4    1    3    3  502    0  0.33489145468E+01  0.13521215172E+03  0.11117800501E+03  0.17508309456E+03  0.00000000000E+00 0. -1.
         -3    1    3    3    0  502 -0.16955131235E+01  0.18408224689E+03  0.49156926609E+02  0.19054015802E+03  0.00000000000E+00 0.  1.
         13    1    5    5    0    0 -0.22866627885E+03  0.11694749848E+03  0.14909506418E+03  0.29697528963E+03  0.00000000000E+00 0. -1.
        -13    1    5    5    0    0 -0.52603994194E+02  0.84164882110E+02  0.37698654567E+02  0.10617012829E+03  0.00000000000E+00 0.  1.
          4    1    6    6  503    0  0.17641480946E+03 -0.23439611390E+03  0.10724439684E+03  0.31235410012E+03  0.00000000000E+00 0. -1.
         -4    1    6    6    0  503  0.10320206216E+03 -0.28601066531E+03  0.13351173121E+03  0.33208153920E+03  0.00000000000E+00 0.  1.
<mgrwt>
<rscale>  0 0.12851217E+04</rscale>
<asrwt>0</asrwt>
<pdfrwt beam="1">  1        2 0.15392993E+00 0.12851217E+04</pdfrwt>
<pdfrwt beam="2">  1       -1 0.63486118E-01 0.12851217E+04</pdfrwt>
<totfact> 0.70894043E+01</totfact>
</mgrwt>
</event>
<event>
12    7  0.1675873E-007  0.1670257E+04  0.7818608E-02  0.8778512E-01
          2   -1    0    0  501    0  0.00000000000E+00  0.00000000000E+00  0.11357116811E+04  0.11357116811E+04  0.00000000000E+00 0. -1.
         -1   -1    0    0    0  501 -0.00000000000E+00 -0.00000000000E+00 -0.61409940351E+03  0.61409940351E+03  0.00000000000E+00 0.  1.
         24    2    1    2    0    0  0.13580491558E+03  0.53867752740E+03 -0.12052180203E+02  0.56151419050E+03  0.80848484619E+02 0.  0.
        254    2    1    2    0    0 -0.13580491558E+03 -0.53867752740E+03  0.53366445782E+03  0.11882968941E+04  0.90478467131E+03 0.  0.
         23    2    4    4    0    0 -0.28758512463E+03  0.14214072165E+03  0.30128289135E+03  0.44730655268E+03  0.80016140798E+02 0.  0.
         23    2    4    4    0    0  0.15178020906E+03 -0.68081824905E+03  0.23238156647E+03  0.74099034145E+03  0.92275530822E+02 0.  0.
          4    1    3    3  502    0 -0.73043971208E+01  0.51186249468E+01  0.72438847691E+00  0.89487025490E+01  0.00000000000E+00 0. -1.
         -3    1    3    3    0  502  0.14310931270E+03  0.53355890246E+03 -0.12776568680E+02  0.55256548795E+03  0.00000000000E+00 0.  1.
         13    1    5    5    0    0 -0.12221107821E+03  0.39940017840E+02  0.16820142373E+03  0.21171318242E+03  0.00000000000E+00 0.  1.
        -13    1    5    5    0    0 -0.16537404642E+03  0.10220070381E+03  0.13308146761E+03  0.23559337026E+03  0.00000000000E+00 0. -1.
          3    1    6    6  503    0  0.72679412518E+02 -0.27365902443E+03  0.14082868557E+03  0.31623452900E+03  0.00000000000E+00 0. -1.
         -3    1    6    6    0  503  0.79100796541E+02 -0.40715922462E+03  0.91552880902E+02  0.42475581244E+03  0.00000000000E+00 0.  1.
<mgrwt>
<rscale>  0 0.16702573E+04</rscale>
<asrwt>0</asrwt>
<pdfrwt beam="1">  1        2 0.17472487E+00 0.16702573E+04</pdfrwt>
<pdfrwt beam="2">  1       -1 0.94476831E-01 0.16702573E+04</pdfrwt>
<totfact> 0.24429764E+01</totfact>
</mgrwt>
</event>
<event>
12    7  0.1675873E-007  0.1719227E+04  0.7818608E-02  0.8750474E-01
         -1   -1    0    0    0  501 -0.00000000000E+00  0.00000000000E+00  0.29689488360E+03  0.29689488360E+03  0.00000000000E+00 0.  1.
          2   -1    0    0  501    0  0.00000000000E+00 -0.00000000000E+00 -0.24888794568E+04  0.24888794568E+04  0.00000000000E+00 0. -1.
         24    2    1    2    0    0 -0.62547766800E+03  0.16854344577E+03 -0.96153918666E+03  0.11622035868E+04  0.80810663929E+02 0.  0.
        254    2    1    2    0    0  0.62547766800E+03 -0.16854344577E+03 -0.12304453865E+04  0.16235707536E+04  0.83806738176E+03 0.  0.
         23    2    4    4    0    0  0.59349311160E+02 -0.13179275292E+03 -0.98276144324E+03  0.99756177961E+03  0.91748456982E+02 0.  0.
         23    2    4    4    0    0  0.56612835684E+03 -0.36750692858E+02 -0.24768394329E+03  0.62600897397E+03  0.93209280022E+02 0.  0.
          4    1    3    3  502    0  0.86983023636E+00 -0.32202074181E+01 -0.50816492380E+01  0.60786099919E+01  0.00000000000E+00 0. -1.
         -3    1    3    3    0  502 -0.62634749824E+03  0.17176365319E+03 -0.95645753742E+03  0.11561249768E+04  0.00000000000E+00 0.  1.
         13    1    5    5    0    0  0.49984468534E+02 -0.14528104375E+03 -0.91697059805E+03  0.92975271253E+03  0.00000000000E+00 0. -1.
        -13    1    5    5    0    0  0.93648426265E+01  0.13488290838E+02 -0.65790845191E+02  0.67809067079E+02  0.00000000000E+00 0.  1.
          3    1    6    6  503    0  0.51734721956E+03 -0.87508094971E+01 -0.23532603593E+03  0.56842155610E+03  0.00000000000E+00 0. -1.
         -3    1    6    6    0  503  0.48781137284E+02 -0.27999883360E+02 -0.12357907363E+02  0.57587417873E+02  0.00000000000E+00 0.  1.
<mgrwt>
<rscale>  0 0.17192272E+04</rscale>
<asrwt>0</asrwt>
<pdfrwt beam="1">  1        2 0.38290451E+00 0.17192272E+04</pdfrwt>
<pdfrwt beam="2">  1       -1 0.45676138E-01 0.17192272E+04</pdfrwt>
<totfact> 0.18232103E+01</totfact>
</mgrwt>
</event>
<event>
12    7  0.1675873E-007  0.1617081E+04  0.7818608E-02  0.8810123E-01
         -1   -1    0    0    0  501 -0.00000000000E+00  0.00000000000E+00  0.27201050201E+03  0.27201050201E+03  0.00000000000E+00 0.  1.
          2   -1    0    0  501    0  0.00000000000E+00 -0.00000000000E+00 -0.24033554214E+04  0.24033554214E+04  0.00000000000E+00 0. -1.
         24    2    1    2    0    0  0.39701589191E+03 -0.14592715724E+03 -0.13392993869E+04  0.14067424069E+04  0.79277979674E+02 0.  0.
        254    2    1    2    0    0 -0.39701589191E+03  0.14592715724E+03 -0.79204553250E+03  0.12686235165E+04  0.89618812053E+03 0.  0.
         23    2    4    4    0    0  0.60710910411E+02 -0.16110131109E+03  0.98467246423E+02  0.21747262041E+03  0.89213759776E+02 0.  0.
         23    2    4    4    0    0 -0.45772680232E+03  0.30702846833E+03 -0.89051277892E+03  0.10511508961E+04  0.90138177047E+02 0.  0.
          2    1    3    3  502    0  0.37961062828E+03 -0.12074530569E+03 -0.12107140175E+04  0.12745634901E+04  0.00000000000E+00 0. -1.
         -1    1    3    3    0  502  0.17405263625E+02 -0.25181851549E+02 -0.12858536934E+03  0.13217891685E+03  0.00000000000E+00 0.  1.
         13    1    5    5    0    0  0.46332024628E+02 -0.11943178019E+03  0.11324325899E+03  0.17098140932E+03  0.00000000000E+00 0. -1.
        -13    1    5    5    0    0  0.14378885784E+02 -0.41669530900E+02 -0.14776012567E+02  0.46491211096E+02  0.00000000000E+00 0.  1.
          3    1    6    6  503    0 -0.25893892912E+03  0.22593944511E+03 -0.53658809747E+03  0.63720074405E+03  0.00000000000E+00 0. -1.
         -3    1    6    6    0  503 -0.19878787320E+03  0.81089023218E+02 -0.35392468145E+03  0.41395015202E+03  0.00000000000E+00 0.  1.
<mgrwt>
<rscale>  0 0.16170812E+04</rscale>
<asrwt>0</asrwt>
<pdfrwt beam="1">  1        2 0.36974698E+00 0.16170812E+04</pdfrwt>
<pdfrwt beam="2">  1       -1 0.41847770E-01 0.16170812E+04</pdfrwt>
<totfact> 0.24232921E+01</totfact>
</mgrwt>
</event>
<event>
12    7  0.1675873E-007  0.1309246E+04  0.7818608E-02  0.9022265E-01
         -1   -1    0    0    0  501 -0.00000000000E+00  0.00000000000E+00  0.13624471512E+03  0.13624471512E+03  0.00000000000E+00 0.  1.
          2   -1    0    0  501    0  0.00000000000E+00 -0.00000000000E+00 -0.31453039846E+04  0.31453039846E+04  0.00000000000E+00 0. -1.
         24    2    1    2    0    0 -0.17010210649E+02 -0.34675318215E+02 -0.16362526670E+04  0.16383371569E+04  0.73035091626E+02 0.  0.
        254    2    1    2    0    0  0.17010210649E+02  0.34675318215E+02 -0.13728066025E+04  0.16432115428E+04  0.90224967807E+03 0.  0.
         23    2    4    4    0    0 -0.35760957557E+03  0.26383470679E+03 -0.64226664257E+03  0.78641241293E+03  0.91894950897E+02 0.  0.
         23    2    4    4    0    0  0.37461978622E+03 -0.22915938858E+03 -0.73053995997E+03  0.85679912991E+03  0.86960372003E+02 0.  0.
          4    1    3    3  502    0  0.15878579617E+02 -0.28757954866E+02 -0.32442387350E+03  0.32608280997E+03  0.00000000000E+00 0. -1.
         -3    1    3    3    0  502 -0.32888790266E+02 -0.59173633483E+01 -0.13118287935E+04  0.13122543470E+04  0.00000000000E+00 0.  1.
         13    1    5    5    0    0 -0.35833524977E+03  0.25384088079E+03 -0.63994920676E+03  0.77612778021E+03  0.00000000000E+00 0. -1.
        -13    1    5    5    0    0  0.72567419983E+00  0.99938260076E+01 -0.23174358080E+01  0.10284632713E+02  0.00000000000E+00 0.  1.
          4    1    6    6  503    0  0.17258230122E+03 -0.59071364086E+02 -0.26840863275E+03  0.32452622527E+03  0.00000000000E+00 0. -1.
         -4    1    6    6    0  503  0.20203748500E+03 -0.17008802449E+03 -0.46213132722E+03  0.53227290464E+03  0.00000000000E+00 0.  1.
<mgrwt>
<rscale>  0 0.13092457E+04</rscale>
<asrwt>0</asrwt>
<pdfrwt beam="1">  1        2 0.48389290E+00 0.13092457E+04</pdfrwt>
<pdfrwt beam="2">  1       -1 0.20960726E-01 0.13092457E+04</pdfrwt>
<totfact> 0.30084584E+01</totfact>
</mgrwt>
</event>
<event>
12    7  0.1675873E-007  0.1306693E+04  0.7818608E-02  0.9024274E-01
         -1   -1    0    0    0  501 -0.00000000000E+00  0.00000000000E+00  0.12482048879E+04  0.12482048879E+04  0.00000000000E+00 0.  1.
          2   -1    0    0  501    0  0.00000000000E+00 -0.00000000000E+00 -0.34198033251E+03  0.34198033251E+03  0.00000000000E+00 0. -1.
         24    2    1    2    0    0  0.18040052527E+03 -0.79602827177E+02 -0.85861376650E+02  0.22937168737E+03  0.79738543706E+02 0.  0.
        254    2    1    2    0    0 -0.18040052527E+03  0.79602827177E+02  0.99208593202E+03  0.13608135330E+04  0.91032852067E+03 0.  0.
         23    2    4    4    0    0 -0.38508776886E+03  0.22086497306E+03  0.99490032939E+03  0.10932749736E+04  0.91376017114E+02 0.  0.
         23    2    4    4    0    0  0.20468724359E+03 -0.14126214589E+03 -0.28143973685E+01  0.26753855939E+03  0.98575343660E+02 0.  0.
          4    1    3    3  502    0  0.17902391901E+03 -0.71809556313E+02 -0.96843469865E+02  0.21583520012E+03  0.00000000000E+00 0. -1.
         -1    1    3    3    0  502  0.13766062598E+01 -0.77932708640E+01  0.10982093215E+02  0.13536487245E+02  0.00000000000E+00 0.  1.
         13    1    5    5    0    0 -0.10077928017E+03  0.25220966696E+02  0.29822885234E+03  0.31580533378E+03  0.00000000000E+00 0.  1.
        -13    1    5    5    0    0 -0.28430848869E+03  0.19564400637E+03  0.69667147705E+03  0.77746963986E+03  0.00000000000E+00 0. -1.
          1    1    6    6  503    0  0.19932844180E+03 -0.14943061656E+03  0.12431550655E+02  0.24943111339E+03  0.00000000000E+00 0. -1.
         -1    1    6    6    0  503  0.53588017988E+01  0.81684706668E+01 -0.15245948024E+02  0.18107446007E+02  0.00000000000E+00 0.  1.
<mgrwt>
<rscale>  0 0.13066928E+04</rscale>
<asrwt>0</asrwt>
<pdfrwt beam="1">  1        2 0.52612360E-01 0.13066928E+04</pdfrwt>
<pdfrwt beam="2">  1       -1 0.19203152E+00 0.13066928E+04</pdfrwt>
<totfact> 0.18192488E+01</totfact>
</mgrwt>
</event>
<event>
12    7  0.1675873E-007  0.1942440E+04  0.7818608E-02  0.8634015E-01
          2   -1    0    0  501    0  0.00000000000E+00  0.00000000000E+00  0.82252067947E+03  0.82252067947E+03  0.00000000000E+00 0. -1.
         -1   -1    0    0    0  501 -0.00000000000E+00 -0.00000000000E+00 -0.11468024965E+04  0.11468024965E+04  0.00000000000E+00 0.  1.
         24    2    1    2    0    0 -0.40641194377E+03  0.13725336403E+03  0.50426292969E+03  0.66633454337E+03  0.75574251236E+02 0.  0.
        254    2    1    2    0    0  0.40641194377E+03 -0.13725336403E+03 -0.82854474675E+03  0.13029886326E+04  0.90955144188E+03 0.  0.
         23    2    4    4    0    0 -0.20290878703E+03  0.15343049898E+03 -0.63806809919E+02  0.27898779498E+03  0.95131419008E+02 0.  0.
         23    2    4    4    0    0  0.60932073080E+03 -0.29068386301E+03 -0.76473793683E+03  0.10240008376E+04  0.89357385171E+02 0.  0.
          2    1    3    3  502    0 -0.33794125158E+03  0.11469429033E+03  0.45821180540E+03  0.58079008976E+03  0.00000000000E+00 0. -1.
         -1    1    3    3    0  502 -0.68470692184E+02  0.22559073700E+02  0.46051124289E+02  0.85544453606E+02  0.00000000000E+00 0.  1.
         13    1    5    5    0    0 -0.40790770434E+01 -0.11818117713E+02 -0.68397770934E+01  0.14250941249E+02  0.00000000000E+00 0.  1.
        -13    1    5    5    0    0 -0.19882970999E+03  0.16524861670E+03 -0.56967032825E+02  0.26473685373E+03  0.00000000000E+00 0. -1.
          1    1    6    6  503    0  0.59128366049E+03 -0.26436171457E+03 -0.74139895172E+03  0.98446731226E+03  0.00000000000E+00 0. -1.
         -1    1    6    6    0  503  0.18037070305E+02 -0.26322148442E+02 -0.23338985108E+02  0.39533525389E+02  0.00000000000E+00 0.  1.
<mgrwt>
<rscale>  0 0.19424405E+04</rscale>
<asrwt>0</asrwt>
<pdfrwt beam="1">  1        2 0.12654164E+00 0.19424405E+04</pdfrwt>
<pdfrwt beam="2">  1       -1 0.17643115E+00 0.19424405E+04</pdfrwt>
<totfact> 0.78067282E+00</totfact>
</mgrwt>
</event>
<event>
12    7  0.1675873E-007  0.1540052E+04  0.7818608E-02  0.8858247E-01
         -1   -1    0    0    0  501 -0.00000000000E+00  0.00000000000E+00  0.27253756877E+03  0.27253756877E+03  0.00000000000E+00 0.  1.
          2   -1    0    0  501    0  0.00000000000E+00 -0.00000000000E+00 -0.21756271463E+04  0.21756271463E+04  0.00000000000E+00 0. -1.
         24    2    1    2    0    0 -0.23757734055E+03  0.41298274497E+03 -0.97731635134E+03  0.10899226071E+04  0.76067722698E+02 0.  0.
        254    2    1    2    0    0  0.23757734055E+03 -0.41298274497E+03 -0.92577322616E+03  0.13582421080E+04  0.87222005088E+03 0.  0.
         23    2    4    4    0    0  0.36595163161E+03  0.12100848203E+03 -0.58059839950E+03  0.70285758864E+03  0.91381830817E+02 0.  0.
         23    2    4    4    0    0 -0.12837429106E+03 -0.53399122701E+03 -0.34517482667E+03  0.65538451932E+03  0.93576803095E+02 0.  0.
          4    1    3    3  502    0 -0.12420509901E+03  0.27136869248E+03 -0.55142801169E+03  0.62700935077E+03  0.00000000000E+00 0. -1.
         -1    1    3    3    0  502 -0.11337224154E+03  0.14161405250E+03 -0.42588833965E+03  0.46291325631E+03  0.00000000000E+00 0.  1.
         13    1    5    5    0    0  0.16993448666E+03  0.35423041903E+02 -0.18874947636E+03  0.25643495565E+03  0.00000000000E+00 0. -1.
        -13    1    5    5    0    0  0.19601714495E+03  0.85585440132E+02 -0.39184892314E+03  0.44642263299E+03  0.00000000000E+00 0.  1.
          3    1    6    6  503    0 -0.14261783277E+03 -0.49149445098E+03 -0.30929285848E+03  0.59797049582E+03  0.00000000000E+00 0. -1.
         -3    1    6    6    0  503  0.14243541715E+02 -0.42496776025E+02 -0.35881968189E+02  0.57414023497E+02  0.00000000000E+00 0.  1.
<mgrwt>
<rscale>  0 0.15400521E+04</rscale>
<asrwt>0</asrwt>
<pdfrwt beam="1">  1        2 0.33471188E+00 0.15400521E+04</pdfrwt>
<pdfrwt beam="2">  1       -1 0.41928856E-01 0.15400521E+04</pdfrwt>
<totfact> 0.32685353E+01</totfact>
</mgrwt>
</event>
<event>
12    7  0.1675873E-007  0.1064475E+04  0.7818608E-02  0.9240526E-01
         -1   -1    0    0    0  501 -0.00000000000E+00  0.00000000000E+00  0.69635688766E+02  0.69635688766E+02  0.00000000000E+00 0.  1.
          2   -1    0    0  501    0  0.00000000000E+00 -0.00000000000E+00 -0.40679811429E+04  0.40679811429E+04  0.00000000000E+00 0. -1.
         24    2    1    2    0    0 -0.50695066340E+02 -0.78403193995E+02 -0.24921478948E+03  0.27645354528E+03  0.74843174861E+02 0.  0.
        254    2    1    2    0    0  0.50695066340E+02  0.78403193995E+02 -0.37491306646E+04  0.38611632863E+04  0.91863166333E+03 0.  0.
         23    2    4    4    0    0 -0.17006629944E+03 -0.29918849163E+03 -0.76362979428E+03  0.84260417015E+03  0.91733446016E+02 0.  0.
         23    2    4    4    0    0  0.22076136578E+03  0.37759168562E+03 -0.29855008703E+04  0.30185591162E+04  0.84691378021E+02 0.  0.
          4    1    3    3  502    0 -0.29036235000E+02 -0.32488311972E+02 -0.20357968827E+03  0.20819049650E+03  0.00000000000E+00 0. -1.
         -3    1    3    3    0  502 -0.21658831341E+02 -0.45914882022E+02 -0.45635101209E+02  0.68263048778E+02  0.00000000000E+00 0.  1.
         13    1    5    5    0    0  0.11050322984E+01  0.56715703193E+01 -0.21135742557E+02  0.21911353671E+02  0.00000000000E+00 0. -1.
        -13    1    5    5    0    0 -0.17117133174E+03 -0.30486006195E+03 -0.74249405172E+03  0.82069281648E+03  0.00000000000E+00 0.  1.
          1    1    6    6  503    0  0.90406637154E+02  0.90337737008E+02 -0.72946210618E+03  0.74057358252E+03  0.00000000000E+00 0. -1.
         -1    1    6    6    0  503  0.13035472862E+03  0.28725394861E+03 -0.22560387641E+04  0.22779855337E+04  0.00000000000E+00 0.  1.
<mgrwt>
<rscale>  0 0.10644748E+04</rscale>
<asrwt>0</asrwt>
<pdfrwt beam="1">  1        2 0.62584317E+00 0.10644748E+04</pdfrwt>
<pdfrwt beam="2">  1       -1 0.10713184E-01 0.10644748E+04</pdfrwt>
<totfact> 0.20348373E+01</totfact>
</mgrwt>
</event>
<event>
12    7  0.1675873E-007  0.1870943E+04  0.7818608E-02  0.8669457E-01
          2   -1    0    0  501    0  0.00000000000E+00  0.00000000000E+00  0.24036649004E+04  0.24036649004E+04  0.00000000000E+00 0. -1.
         -1   -1    0    0    0  501 -0.00000000000E+00 -0.00000000000E+00 -0.36407182398E+03  0.36407182398E+03  0.00000000000E+00 0.  1.
         24    2    1    2    0    0  0.22167481720E+03  0.10345473165E+02 -0.22244941695E+03  0.32411348091E+03  0.79492465112E+02 0.  0.
        254    2    1    2    0    0 -0.22167481720E+03 -0.10345473165E+02  0.22620424934E+04  0.24436232435E+04  0.89733581273E+03 0.  0.
         23    2    4    4    0    0 -0.26744193041E+03  0.29504246650E+03  0.47342610006E+03  0.62628159876E+03  0.97576254992E+02 0.  0.
         23    2    4    4    0    0  0.45767113218E+02 -0.30538793967E+03  0.17886163933E+04  0.18173416447E+04  0.90695252577E+02 0.  0.
          4    1    3    3  502    0  0.78187041954E+02 -0.25784860687E+02 -0.47757110148E+02  0.95177802768E+02  0.00000000000E+00 0. -1.
         -3    1    3    3    0  502  0.14348777524E+03  0.36130333852E+02 -0.17469230680E+03  0.22893567814E+03  0.00000000000E+00 0.  1.
         13    1    5    5    0    0 -0.55325053531E+02  0.11195236324E+03  0.10338017624E+03  0.16211617447E+03  0.00000000000E+00 0.  1.
        -13    1    5    5    0    0 -0.21211687688E+03  0.18309010326E+03  0.37004592383E+03  0.46416542429E+03  0.00000000000E+00 0. -1.
          1    1    6    6  503    0  0.42233348944E+02 -0.23672010160E+03  0.11395477229E+04  0.11646411786E+04  0.00000000000E+00 0. -1.
         -1    1    6    6    0  503  0.35337642735E+01 -0.68667838064E+02  0.64906867046E+03  0.65270046610E+03  0.00000000000E+00 0.  1.
<mgrwt>
<rscale>  0 0.18709427E+04</rscale>
<asrwt>0</asrwt>
<pdfrwt beam="1">  1        2 0.36979459E+00 0.18709427E+04</pdfrwt>
<pdfrwt beam="2">  1       -1 0.56011051E-01 0.18709427E+04</pdfrwt>
<totfact> 0.13643866E+01</totfact>
</mgrwt>
</event>
<event>
12    7  0.1675873E-007  0.1904843E+04  0.7818608E-02  0.8652450E-01
          2   -1    0    0  501    0  0.00000000000E+00  0.00000000000E+00  0.16584114692E+04  0.16584114692E+04  0.00000000000E+00 0. -1.
         -1   -1    0    0    0  501 -0.00000000000E+00 -0.00000000000E+00 -0.54697297142E+03  0.54697297142E+03  0.00000000000E+00 0.  1.
         24    2    1    2    0    0 -0.34279943169E+03 -0.46150548677E+03  0.72460075164E+03  0.92826254712E+03  0.78270955122E+02 0.  0.
        254    2    1    2    0    0  0.34279943169E+03  0.46150548677E+03  0.38683774614E+03  0.12771218935E+04  0.10727992004E+04 0.  0.
         23    2    4    4    0    0 -0.79866767157E+02 -0.26961950191E+03  0.30392547808E+03  0.42350202136E+03  0.88937559911E+02 0.  0.
         23    2    4    4    0    0  0.42266619884E+03  0.73112498868E+03  0.82912268056E+02  0.85361987215E+03  0.92746844748E+02 0.  0.
          4    1    3    3  502    0 -0.20921229962E+03 -0.32956560440E+03  0.52508196216E+03  0.65428918752E+03  0.00000000000E+00 0. -1.
         -3    1    3    3    0  502 -0.13358713207E+03 -0.13193988238E+03  0.19951878948E+03  0.27397335960E+03  0.00000000000E+00 0.  1.
         13    1    5    5    0    0 -0.34506207409E+02 -0.22265119724E+03  0.26354746351E+03  0.34672972111E+03  0.00000000000E+00 0. -1.
        -13    1    5    5    0    0 -0.45360559748E+02 -0.46968304670E+02  0.40378014574E+02  0.76772300247E+02  0.00000000000E+00 0.  1.
          1    1    6    6  503    0  0.41759975581E+03  0.73294638290E+03  0.85021385179E+02  0.84783759777E+03  0.00000000000E+00 0. -1.
         -1    1    6    6    0  503  0.50664430333E+01 -0.18213942181E+01 -0.21091171227E+01  0.57822743748E+01  0.00000000000E+00 0.  1.
<mgrwt>
<rscale>  0 0.19048425E+04</rscale>
<asrwt>0</asrwt>
<pdfrwt beam="1">  1        2 0.25514022E+00 0.19048425E+04</pdfrwt>
<pdfrwt beam="2">  1       -1 0.84149689E-01 0.19048425E+04</pdfrwt>
<totfact> 0.15435600E+01</totfact>
</mgrwt>
</event>
<event>
12    7  0.1675873E-007  0.2868214E+04  0.7818608E-02  0.8282398E-01
         -1   -1    0    0    0  501 -0.00000000000E+00  0.00000000000E+00  0.16904607703E+04  0.16904607703E+04  0.00000000000E+00 0.  1.
          2   -1    0    0  501    0  0.00000000000E+00 -0.00000000000E+00 -0.12166284319E+04  0.12166284319E+04  0.00000000000E+00 0. -1.
         24    2    1    2    0    0  0.94051734735E+03  0.81848534937E+03 -0.12182604756E+03  0.12552916267E+04  0.80151946183E+02 0.  0.
        254    2    1    2    0    0 -0.94051734735E+03 -0.81848534937E+03  0.59565838590E+03  0.16517975754E+04  0.90506086518E+03 0.  0.
         23    2    4    4    0    0  0.24188882292E+02 -0.40658895076E+03 -0.44122689019E+02  0.41983202536E+03  0.91719359596E+02 0.  0.
         23    2    4    4    0    0 -0.96470622965E+03 -0.41189639862E+03  0.63978107492E+03  0.12319655501E+04  0.90014110121E+02 0.  0.
          2    1    3    3  502    0  0.71910428129E+03  0.58122743218E+03 -0.10039173232E+03  0.93006171580E+03  0.00000000000E+00 0. -1.
         -1    1    3    3    0  502  0.22141306607E+03  0.23725791719E+03 -0.21434315240E+02  0.32522991093E+03  0.00000000000E+00 0.  1.
         13    1    5    5    0    0 -0.22328364458E+02 -0.43853930952E+02 -0.20668375518E+02  0.53375133404E+02  0.00000000000E+00 0. -1.
        -13    1    5    5    0    0  0.46517246750E+02 -0.36273501980E+03 -0.23454313501E+02  0.36645689195E+03  0.00000000000E+00 0.  1.
          4    1    6    6  503    0 -0.14719421408E+03 -0.45592295036E+02  0.12753782191E+03  0.20002672332E+03  0.00000000000E+00 0. -1.
         -4    1    6    6    0  503 -0.81751201557E+03 -0.36630410358E+03  0.51224325301E+03  0.10319388268E+04  0.00000000000E+00 0.  1.
<mgrwt>
<rscale>  0 0.28682138E+04</rscale>
<asrwt>0</asrwt>
<pdfrwt beam="1">  1        2 0.18717361E+00 0.28682138E+04</pdfrwt>
<pdfrwt beam="2">  1       -1 0.26007089E+00 0.28682138E+04</pdfrwt>
<totfact> 0.10938856E+00</totfact>
</mgrwt>
</event>
<event>
12    7  0.1675873E-007  0.2578348E+04  0.7818608E-02  0.8375593E-01
         -1   -1    0    0    0  501 -0.00000000000E+00  0.00000000000E+00  0.13502015954E+04  0.13502015954E+04  0.00000000000E+00 0.  1.
          2   -1    0    0  501    0  0.00000000000E+00 -0.00000000000E+00 -0.12309052119E+04  0.12309052119E+04  0.00000000000E+00 0. -1.
         24    2    1    2    0    0  0.53515255935E+03  0.20282267539E+03 -0.92352559713E+03  0.10894907618E+04  0.81026489516E+02 0.  0.
        254    2    1    2    0    0 -0.53515255935E+03 -0.20282267539E+03  0.10428219806E+04  0.14916160455E+04  0.89995302354E+03 0.  0.
         23    2    4    4    0    0 -0.11375733323E+03 -0.31696004995E+03 -0.91165822676E+01  0.34907439868E+03  0.91462667849E+02 0.  0.
         23    2    4    4    0    0 -0.42139522612E+03  0.11413737456E+03  0.10519385629E+04  0.11425416468E+04  0.90693979117E+02 0.  0.
          2    1    3    3  502    0  0.52437236970E+03  0.18966980719E+03 -0.91193971729E+03  0.10689130301E+04  0.00000000000E+00 0. -1.
         -1    1    3    3    0  502  0.10780189651E+02  0.13152868199E+02 -0.11585879843E+02  0.20577731715E+02  0.00000000000E+00 0.  1.
         13    1    5    5    0    0 -0.86029284544E+02 -0.10761354260E+03 -0.46310031182E+01  0.13785194428E+03  0.00000000000E+00 0.  1.
        -13    1    5    5    0    0 -0.27728048689E+02 -0.20934650735E+03 -0.44855791493E+01  0.21122245440E+03  0.00000000000E+00 0. -1.
          3    1    6    6  503    0 -0.15703154927E+03  0.47726970098E+02  0.28871208982E+03  0.33210155367E+03  0.00000000000E+00 0. -1.
         -3    1    6    6    0  503 -0.26436367685E+03  0.66410404466E+02  0.76322647304E+03  0.81044009316E+03  0.00000000000E+00 0.  1.
<mgrwt>
<rscale>  0 0.25783484E+04</rscale>
<asrwt>0</asrwt>
<pdfrwt beam="1">  1        2 0.18937003E+00 0.25783484E+04</pdfrwt>
<pdfrwt beam="2">  1       -1 0.20772332E+00 0.25783484E+04</pdfrwt>
<totfact> 0.24423145E+00</totfact>
</mgrwt>
</event>
<event>
12    7  0.1675873E-007  0.1560846E+04  0.7818608E-02  0.8844969E-01
          2   -1    0    0  501    0  0.00000000000E+00  0.00000000000E+00  0.16251440403E+04  0.16251440403E+04  0.00000000000E+00 0. -1.
         -1   -1    0    0    0  501 -0.00000000000E+00 -0.00000000000E+00 -0.37477305898E+03  0.37477305898E+03  0.00000000000E+00 0.  1.
         24    2    1    2    0    0 -0.22428986383E+03  0.29234959647E+02  0.10132639431E+04  0.10413137971E+04  0.80436185308E+02 0.  0.
        254    2    1    2    0    0  0.22428986383E+03 -0.29234959647E+02  0.23710703822E+03  0.95860330211E+03  0.90085510342E+03 0.  0.
         23    2    4    4    0    0  0.99055300485E+02 -0.44724488617E+03  0.33869582279E+02  0.46837715977E+03  0.91597349503E+02 0.  0.
         23    2    4    4    0    0  0.12523456335E+03  0.41800992652E+03  0.20323745595E+03  0.49022614234E+03  0.92737331227E+02 0.  0.
          4    1    3    3  502    0 -0.19866885882E+03  0.21589340005E+02  0.97063758096E+03  0.99099582675E+03  0.00000000000E+00 0. -1.
         -3    1    3    3    0  502 -0.25621005012E+02  0.76456196424E+01  0.42626362121E+02  0.50317970401E+02  0.00000000000E+00 0.  1.
         13    1    5    5    0    0 -0.67577353098E+01 -0.17403629617E+03  0.12586879918E+02  0.17462167368E+03  0.00000000000E+00 0.  1.
        -13    1    5    5    0    0  0.10581303579E+03 -0.27320859000E+03  0.21282702361E+02  0.29375548610E+03  0.00000000000E+00 0. -1.
          3    1    6    6  503    0 -0.14284116143E+02  0.54621389077E+02  0.32814869303E+02  0.65301973676E+02  0.00000000000E+00 0. -1.
         -3    1    6    6    0  503  0.13951867949E+03  0.36338853744E+03  0.17042258664E+03  0.42492416866E+03  0.00000000000E+00 0.  1.
<mgrwt>
<rscale>  0 0.15608462E+04</rscale>
<asrwt>0</asrwt>
<pdfrwt beam="1">  1        2 0.25002216E+00 0.15608462E+04</pdfrwt>
<pdfrwt beam="2">  1       -1 0.57657395E-01 0.15608462E+04</pdfrwt>
<totfact> 0.36044122E+01</totfact>
</mgrwt>
</event>
<event>
12    7  0.1675873E-007  0.1291859E+04  0.7818608E-02  0.9036046E-01
          2   -1    0    0  501    0  0.00000000000E+00  0.00000000000E+00  0.23197450623E+04  0.23197450623E+04  0.00000000000E+00 0. -1.
         -1   -1    0    0    0  501 -0.00000000000E+00 -0.00000000000E+00 -0.17985822428E+03  0.17985822428E+03  0.00000000000E+00 0.  1.
         24    2    1    2    0    0  0.28642724146E+03  0.14402637584E+03  0.45128728733E+03  0.55924739746E+03  0.79456115386E+02 0.  0.
        254    2    1    2    0    0 -0.28642724146E+03 -0.14402637584E+03  0.16885995506E+04  0.19403558891E+04  0.90046008918E+03 0.  0.
         23    2    4    4    0    0 -0.19818189121E+02  0.19656479691E+03  0.13904748146E+04  0.14074682619E+04  0.92283357641E+02 0.  0.
         23    2    4    4    0    0 -0.26660905234E+03 -0.34059117275E+03  0.29812473601E+03  0.53288762718E+03  0.89488162509E+02 0.  0.
          2    1    3    3  502    0  0.17223707427E+03  0.48857978966E+02  0.28122120766E+03  0.33337378346E+03  0.00000000000E+00 0. -1.
         -3    1    3    3    0  502  0.11419016719E+03  0.95168396872E+02  0.17006607967E+03  0.22587361400E+03  0.00000000000E+00 0.  1.
         13    1    5    5    0    0  0.24495762043E+02  0.38353512405E+02  0.17007263823E+03  0.17605606080E+03  0.00000000000E+00 0. -1.
        -13    1    5    5    0    0 -0.44313951165E+02  0.15821128450E+03  0.12204021764E+04  0.12314122011E+04  0.00000000000E+00 0.  1.
          3    1    6    6  503    0 -0.34521134400E+01  0.20206043293E+01 -0.40432978234E+01  0.56875466017E+01  0.00000000000E+00 0. -1.
         -3    1    6    6    0  503 -0.26315693890E+03 -0.34261177708E+03  0.30216803384E+03  0.52720008057E+03  0.00000000000E+00 0.  1.
<mgrwt>
<rscale>  0 0.12918595E+04</rscale>
<asrwt>0</asrwt>
<pdfrwt beam="1">  1        2 0.35688383E+00 0.12918595E+04</pdfrwt>
<pdfrwt beam="2">  1       -1 0.27670498E-01 0.12918595E+04</pdfrwt>
<totfact> 0.58185435E+01</totfact>
</mgrwt>
</event>
<event>
12    7  0.1675873E-007  0.1327189E+04  0.7818608E-02  0.9008278E-01
          2   -1    0    0  501    0  0.00000000000E+00  0.00000000000E+00  0.16154067103E+04  0.16154067103E+04  0.00000000000E+00 0. -1.
         -1   -1    0    0    0  501 -0.00000000000E+00 -0.00000000000E+00 -0.27259866392E+03  0.27259866392E+03  0.00000000000E+00 0.  1.
         24    2    1    2    0    0 -0.64080272990E+01  0.21222044249E+03 -0.25926789438E+02  0.22846166989E+03  0.80274262208E+02 0.  0.
        254    2    1    2    0    0  0.64080272990E+01 -0.21222044249E+03  0.13687348358E+04  0.16595437043E+04  0.91409609823E+03 0.  0.
         23    2    4    4    0    0  0.78882422491E+02 -0.54688751575E+03  0.64631150659E+03  0.85492185384E+03  0.88681571676E+02 0.  0.
         23    2    4    4    0    0 -0.72474395192E+02  0.33466707326E+03  0.72242332922E+03  0.80462185049E+03  0.90919017841E+02 0.  0.
          2    1    3    3  502    0 -0.21552846955E+02  0.83418119917E+02  0.24089119238E+02  0.89461687934E+02  0.00000000000E+00 0. -1.
         -1    1    3    3    0  502  0.15144819656E+02  0.12880232257E+03 -0.50015908676E+02  0.13899998195E+03  0.00000000000E+00 0.  1.
         13    1    5    5    0    0  0.97506811198E+02 -0.42307282507E+03  0.51207539643E+03  0.67135639207E+03  0.00000000000E+00 0. -1.
        -13    1    5    5    0    0 -0.18624388707E+02 -0.12381469068E+03  0.13423611015E+03  0.18356546176E+03  0.00000000000E+00 0.  1.
          3    1    6    6  503    0 -0.25206608843E+02  0.17398248286E+02  0.38380909429E+02  0.49103629004E+02  0.00000000000E+00 0. -1.
         -3    1    6    6    0  503 -0.47267786349E+02  0.31726882498E+03  0.68404241979E+03  0.75551822148E+03  0.00000000000E+00 0.  1.
<mgrwt>
<rscale>  0 0.13271891E+04</rscale>
<asrwt>0</asrwt>
<pdfrwt beam="1">  1        2 0.24852410E+00 0.13271891E+04</pdfrwt>
<pdfrwt beam="2">  1       -1 0.41938257E-01 0.13271891E+04</pdfrwt>
<totfact> 0.68021635E+01</totfact>
</mgrwt>
</event>
<event>
12    7  0.1675873E-007  0.1140158E+04  0.7818608E-02  0.9166911E-01
         -1   -1    0    0    0  501 -0.00000000000E+00  0.00000000000E+00  0.21917118243E+03  0.21917118243E+03  0.00000000000E+00 0.  1.
          2   -1    0    0  501    0  0.00000000000E+00 -0.00000000000E+00 -0.14828145900E+04  0.14828145900E+04  0.00000000000E+00 0. -1.
         24    2    1    2    0    0  0.40380769206E+02  0.43664591438E+02  0.46400164022E+02  0.10931283863E+03  0.79114590314E+02 0.  0.
        254    2    1    2    0    0 -0.40380769206E+02 -0.43664591438E+02 -0.13100435716E+04  0.15926729338E+04  0.90380070344E+03 0.  0.
         23    2    4    4    0    0  0.11779718563E+03  0.24838070658E+03 -0.60132731217E+02  0.29629238385E+03  0.92758174955E+02 0.  0.
         23    2    4    4    0    0 -0.15817795483E+03 -0.29204529802E+03 -0.12499108404E+04  0.12963805500E+04  0.89524856456E+02 0.  0.
          2    1    3    3  502    0 -0.22252076681E+02  0.24002006078E+02  0.98656156695E+01  0.34184522593E+02  0.00000000000E+00 0. -1.
         -1    1    3    3    0  502  0.62632845887E+02  0.19662585360E+02  0.36534548352E+02  0.75128316035E+02  0.00000000000E+00 0.  1.
         13    1    5    5    0    0  0.86087596141E+02  0.10251215185E+03 -0.60776487633E+02  0.14701563501E+03  0.00000000000E+00 0. -1.
        -13    1    5    5    0    0  0.31709589485E+02  0.14586855472E+03  0.64375641649E+00  0.14927674884E+03  0.00000000000E+00 0.  1.
          3    1    6    6  503    0 -0.12117867531E+02  0.48035015850E+01 -0.54116623580E+02  0.55664398754E+02  0.00000000000E+00 0. -1.
         -3    1    6    6    0  503 -0.14606008730E+03 -0.29684879960E+03 -0.11957942168E+04  0.12407161512E+04  0.00000000000E+00 0.  1.
<mgrwt>
<rscale>  0 0.11401583E+04</rscale>
<asrwt>0</asrwt>
<pdfrwt beam="1">  1        2 0.22812532E+00 0.11401583E+04</pdfrwt>
<pdfrwt beam="2">  1       -1 0.33718643E-01 0.11401583E+04</pdfrwt>
<totfact> 0.12145424E+02</totfact>
</mgrwt>
</event>
<event>
12    7  0.2390592E-007  0.1661597E+04  0.7818608E-02  0.8783575E-01
         -1   -1    0    0    0  501 -0.00000000000E+00  0.00000000000E+00  0.40017526717E+03  0.40017526717E+03  0.00000000000E+00 0.  1.
          2   -1    0    0  501    0  0.00000000000E+00 -0.00000000000E+00 -0.17248103691E+04  0.17248103691E+04  0.00000000000E+00 0. -1.
         24    2    1    2    0    0  0.40554611288E+03  0.34723963831E+03 -0.16124479791E+03  0.56400549665E+03  0.84019636457E+02 0.  0.
        254    2    1    2    0    0 -0.40554611288E+03 -0.34723963831E+03 -0.11633903040E+04  0.15609801396E+04  0.89338624385E+03 0.  0.
         23    2    4    4    0    0 -0.18803602845E+03 -0.61495802081E+03 -0.54835308047E+03  0.84995883610E+03  0.90598051005E+02 0.  0.
         23    2    4    4    0    0 -0.21751008443E+03  0.26771838250E+03 -0.61503722356E+03  0.71102130352E+03  0.91086434455E+02 0.  0.
          2    1    3    3  502    0  0.11546517895E+03  0.75403950491E+02 -0.86363161942E+01  0.13817579114E+03  0.00000000000E+00 0. -1.
         -1    1    3    3    0  502  0.29008093393E+03  0.27183568782E+03 -0.15260848171E+03  0.42582970551E+03  0.00000000000E+00 0.  1.
         13    1    5    5    0    0 -0.28470427945E+02 -0.16568328904E+03 -0.10067041586E+03  0.19594910095E+03  0.00000000000E+00 0. -1.
        -13    1    5    5    0    0 -0.15956560051E+03 -0.44927473177E+03 -0.44768266462E+03  0.65400973515E+03  0.00000000000E+00 0.  1.
          2    1    6    6  503    0 -0.68988021006E+02  0.30484082647E+02 -0.15823032228E+03  0.17528679707E+03  0.00000000000E+00 0. -1.
         -2    1    6    6    0  503 -0.14852206342E+03  0.23723429985E+03 -0.45680690128E+03  0.53573450645E+03  0.00000000000E+00 0.  1.
<mgrwt>
<rscale>  0 0.16615974E+04</rscale>
<asrwt>0</asrwt>
<pdfrwt beam="1">  1        2 0.26535544E+00 0.16615974E+04</pdfrwt>
<pdfrwt beam="2">  1       -1 0.61565426E-01 0.16615974E+04</pdfrwt>
<totfact> 0.27637470E+01</totfact>
</mgrwt>
</event>
<event>
12    7  0.1675873E-007  0.2264035E+04  0.7818608E-02  0.8492238E-01
          2   -1    0    0  501    0  0.00000000000E+00  0.00000000000E+00  0.18495440573E+04  0.18495440573E+04  0.00000000000E+00 0. -1.
         -1   -1    0    0    0  501 -0.00000000000E+00 -0.00000000000E+00 -0.69285368043E+03  0.69285368043E+03  0.00000000000E+00 0.  1.
         24    2    1    2    0    0  0.89319107634E+03  0.24800852526E+03  0.76681855983E+03  0.12040909596E+04  0.50257416631E+02 0.  0.
        254    2    1    2    0    0 -0.89319107634E+03 -0.24800852526E+03  0.38987181706E+03  0.13383067781E+04  0.88304386705E+03 0.  0.
         23    2    4    4    0    0 -0.65305787588E+03  0.67883361401E+02 -0.13254907515E+03  0.67602600833E+03  0.91373774182E+02 0.  0.
         23    2    4    4    0    0 -0.24013320046E+03 -0.31589188666E+03  0.52242089221E+03  0.66228076978E+03  0.90777703089E+02 0.  0.
          4    1    3    3  502    0  0.80848582650E+03  0.23751924188E+03  0.68664838787E+03  0.10869915963E+04  0.00000000000E+00 0. -1.
         -3    1    3    3    0  502  0.84705249849E+02  0.10489283378E+02  0.80170171966E+02  0.11709936332E+03  0.00000000000E+00 0.  1.
         13    1    5    5    0    0 -0.61226742901E+03  0.85310129859E+02 -0.12922600274E+03  0.63154460070E+03  0.00000000000E+00 0. -1.
        -13    1    5    5    0    0 -0.40790446872E+02 -0.17426768458E+02 -0.33230724097E+01  0.44481407635E+02  0.00000000000E+00 0.  1.
          3    1    6    6  503    0 -0.22866541978E+03 -0.31836393494E+03  0.48808150905E+03  0.62599283443E+03  0.00000000000E+00 0. -1.
         -3    1    6    6    0  503 -0.11467780680E+02  0.24720482791E+01  0.34339383159E+02  0.36287935352E+02  0.00000000000E+00 0.  1.
<mgrwt>
<rscale>  0 0.22640348E+04</rscale>
<asrwt>0</asrwt>
<pdfrwt beam="1">  1        2 0.28454524E+00 0.22640348E+04</pdfrwt>
<pdfrwt beam="2">  1       -1 0.10659287E+00 0.22640348E+04</pdfrwt>
<totfact> 0.68903301E+00</totfact>
</mgrwt>
</event>
<event>
12    7  0.1675873E-007  0.1366459E+04  0.7818608E-02  0.8978462E-01
         -1   -1    0    0    0  501 -0.00000000000E+00  0.00000000000E+00  0.70220589749E+03  0.70220589749E+03  0.00000000000E+00 0.  1.
          2   -1    0    0  501    0  0.00000000000E+00 -0.00000000000E+00 -0.66476558006E+03  0.66476558006E+03  0.00000000000E+00 0. -1.
         24    2    1    2    0    0 -0.17738120374E+03  0.55483390473E+02  0.33902121920E+03  0.39479052806E+03  0.79885392397E+02 0.  0.
        254    2    1    2    0    0  0.17738120374E+03 -0.55483390473E+02 -0.30158090177E+03  0.97218094950E+03  0.90534096350E+03 0.  0.
         23    2    4    4    0    0  0.17161769961E+03 -0.24827813782E+02  0.30195020201E+03  0.35987276016E+03  0.90914376485E+02 0.  0.
         23    2    4    4    0    0  0.57635041264E+01 -0.30655576692E+02 -0.60353110377E+03  0.61230818934E+03  0.98481181696E+02 0.  0.
          4    1    3    3  502    0 -0.24376344453E+01 -0.39389927478E+01 -0.33711521354E+01  0.57290830223E+01  0.00000000000E+00 0. -1.
         -3    1    3    3    0  502 -0.17494356930E+03  0.59422383221E+02  0.34239237133E+03  0.38906144503E+03  0.00000000000E+00 0.  1.
         13    1    5    5    0    0  0.15805868875E+03 -0.46574861895E+02  0.22583495199E+03  0.27955892472E+03  0.00000000000E+00 0. -1.
        -13    1    5    5    0    0  0.13559010865E+02  0.21747048113E+02  0.76115250021E+02  0.80313835440E+02  0.00000000000E+00 0.  1.
          3    1    6    6  503    0  0.42343784601E+02 -0.45219314505E+02 -0.30823449069E+03  0.31439828840E+03  0.00000000000E+00 0. -1.
         -3    1    6    6    0  503 -0.36580280474E+02  0.14563737813E+02 -0.29529661308E+03  0.29790990094E+03  0.00000000000E+00 0.  1.
<mgrwt>
<rscale>  0 0.13664587E+04</rscale>
<asrwt>0</asrwt>
<pdfrwt beam="1">  1        2 0.10227163E+00 0.13664587E+04</pdfrwt>
<pdfrwt beam="2">  1       -1 0.10803168E+00 0.13664587E+04</pdfrwt>
<totfact> 0.38830133E+01</totfact>
</mgrwt>
</event>
<event>
12    7  0.1675873E-007  0.1763067E+04  0.7818608E-02  0.8726190E-01
         -1   -1    0    0    0  501 -0.00000000000E+00  0.00000000000E+00  0.57672524625E+03  0.57672524625E+03  0.00000000000E+00 0.  1.
          2   -1    0    0  501    0  0.00000000000E+00 -0.00000000000E+00 -0.13474372779E+04  0.13474372779E+04  0.00000000000E+00 0. -1.
         24    2    1    2    0    0 -0.62175080883E+03  0.14039716879E+03 -0.37712331557E+03  0.74483919683E+03  0.79233835633E+02 0.  0.
        254    2    1    2    0    0  0.62175080883E+03 -0.14039716879E+03 -0.39358871606E+03  0.11793233273E+04  0.91082709644E+03 0.  0.
         23    2    4    4    0    0  0.70672454183E+03  0.13198256576E+03 -0.53759989609E+02  0.72658167373E+03  0.90287410150E+02 0.  0.
         23    2    4    4    0    0 -0.84973733001E+02 -0.27237973454E+03 -0.33982872645E+03  0.45274165356E+03  0.89889857368E+02 0.  0.
          2    1    3    3  502    0 -0.45089692550E+03  0.10519172340E+03 -0.23176755450E+03  0.51777363337E+03  0.00000000000E+00 0. -1.
         -1    1    3    3    0  502 -0.17085388333E+03  0.35205445387E+02 -0.14535576107E+03  0.22706556346E+03  0.00000000000E+00 0.  1.
         13    1    5    5    0    0  0.93798122262E+02 -0.76209774209E+01  0.10456477074E+02  0.94686350386E+02  0.00000000000E+00 0. -1.
        -13    1    5    5    0    0  0.61292641957E+03  0.13960354318E+03 -0.64216466683E+02  0.63189532335E+03  0.00000000000E+00 0.  1.
          4    1    6    6  503    0  0.73556856981E+01 -0.30751918003E+02 -0.80390901118E+02  0.86385667535E+02  0.00000000000E+00 0. -1.
         -4    1    6    6    0  503 -0.92329418699E+02 -0.24162781654E+03 -0.25943782533E+03  0.36635598603E+03  0.00000000000E+00 0.  1.
<mgrwt>
<rscale>  0 0.17630668E+04</rscale>
<asrwt>0</asrwt>
<pdfrwt beam="1">  1        2 0.20729804E+00 0.17630668E+04</pdfrwt>
<pdfrwt beam="2">  1       -1 0.88726962E-01 0.17630668E+04</pdfrwt>
<totfact> 0.20873014E+01</totfact>
</mgrwt>
</event>
<event>
12    7  0.1675873E-007  0.2300514E+04  0.7818608E-02  0.8477718E-01
         -1   -1    0    0    0  501 -0.00000000000E+00  0.00000000000E+00  0.13108613681E+04  0.13108613681E+04  0.00000000000E+00 0.  1.
          2   -1    0    0  501    0  0.00000000000E+00 -0.00000000000E+00 -0.10093298652E+04  0.10093298652E+04  0.00000000000E+00 0. -1.
         24    2    1    2    0    0 -0.60632066498E+03 -0.67777024892E+03 -0.23225714701E+03  0.94205283358E+03  0.80764471194E+02 0.  0.
        254    2    1    2    0    0  0.60632066498E+03  0.67777024892E+03  0.53378864993E+03  0.13781383998E+04  0.88732061122E+03 0.  0.
         23    2    4    4    0    0  0.45067685464E+03  0.29942884183E+02  0.53391689888E+03  0.70585279362E+03  0.95680236954E+02 0.  0.
         23    2    4    4    0    0  0.15564381035E+03  0.64782736473E+03 -0.12824894520E+00  0.67228560617E+03  0.89792146745E+02 0.  0.
          4    1    3    3  502    0 -0.33028673003E+02 -0.51959089601E+02 -0.34634695651E+02  0.70641364478E+02  0.00000000000E+00 0. -1.
         -3    1    3    3    0  502 -0.57329199198E+03 -0.62581115932E+03 -0.19762245136E+03  0.87141146910E+03  0.00000000000E+00 0.  1.
         13    1    5    5    0    0  0.95592132731E+02  0.25248655108E+02  0.17468596759E+03  0.20072503008E+03  0.00000000000E+00 0.  1.
        -13    1    5    5    0    0  0.35508472191E+03  0.46942290750E+01  0.35923093128E+03  0.50512776355E+03  0.00000000000E+00 0. -1.
          2    1    6    6  503    0  0.68815103248E+02  0.20333235295E+03  0.37170872872E+02  0.21785600286E+03  0.00000000000E+00 0. -1.
         -2    1    6    6    0  503  0.86828707097E+02  0.44449501178E+03 -0.37299121817E+02  0.45442960331E+03  0.00000000000E+00 0.  1.
<mgrwt>
<rscale>  0 0.23005143E+04</rscale>
<asrwt>0</asrwt>
<pdfrwt beam="1">  1        2 0.15528152E+00 0.23005143E+04</pdfrwt>
<pdfrwt beam="2">  1       -1 0.20167098E+00 0.23005143E+04</pdfrwt>
<totfact> 0.37640355E+00</totfact>
</mgrwt>
</event>
<event>
12    7  0.1675873E-007  0.1394117E+04  0.7818608E-02  0.8958088E-01
         -3   -1    0    0    0  501 -0.00000000000E+00  0.00000000000E+00  0.39090705445E+03  0.39090705445E+03  0.00000000000E+00 0.  1.
          4   -1    0    0  501    0  0.00000000000E+00 -0.00000000000E+00 -0.12429831792E+04  0.12429831792E+04  0.00000000000E+00 0. -1.
         24    2    1    2    0    0  0.10158210039E+03 -0.31672239795E+03  0.16203334634E+02  0.34204388489E+03  0.78099107897E+02 0.  0.
        254    2    1    2    0    0 -0.10158210039E+03  0.31672239795E+03 -0.86827945935E+03  0.12918463487E+04  0.89684210912E+03 0.  0.
         23    2    4    4    0    0  0.42421215379E+02  0.59443863404E+03 -0.70305290389E+03  0.92595688393E+03  0.89195942082E+02 0.  0.
         23    2    4    4    0    0 -0.14400331577E+03 -0.27771623608E+03 -0.16522655546E+03  0.36588946479E+03  0.93338218742E+02 0.  0.
          4    1    3    3  502    0  0.75701260562E+01 -0.58519598946E+01 -0.12795059904E+02  0.15977039809E+02  0.00000000000E+00 0. -1.
         -3    1    3    3    0  502  0.94011974331E+02 -0.31087043806E+03  0.28998394539E+02  0.32606684508E+03  0.00000000000E+00 0.  1.
         13    1    5    5    0    0 -0.20189231834E+02  0.32646514311E+03 -0.36701704013E+03  0.49161835045E+03  0.00000000000E+00 0.  1.
        -13    1    5    5    0    0  0.62610447213E+02  0.26797349093E+03 -0.33603586375E+03  0.43433853348E+03  0.00000000000E+00 0. -1.
          4    1    6    6  503    0 -0.32927585119E+02 -0.68219995662E+01 -0.15104377759E+02  0.36863366196E+02  0.00000000000E+00 0. -1.
         -4    1    6    6    0  503 -0.11107573065E+03 -0.27089423652E+03 -0.15012217770E+03  0.32902609859E+03  0.00000000000E+00 0.  1.
<mgrwt>
<rscale>  0 0.13941175E+04</rscale>
<asrwt>0</asrwt>
<pdfrwt beam="1">  1        4 0.19122818E+00 0.13941175E+04</pdfrwt>
<pdfrwt beam="2">  1       -3 0.60139546E-01 0.13941175E+04</pdfrwt>
<totfact> 0.90581144E-01</totfact>
</mgrwt>
</event>
<event>
12    7  0.1675873E-007  0.1727525E+04  0.7818608E-02  0.8745820E-01
         -1   -1    0    0    0  501 -0.00000000000E+00  0.00000000000E+00  0.46085589643E+03  0.46085589643E+03  0.00000000000E+00 0.  1.
          2   -1    0    0  501    0  0.00000000000E+00 -0.00000000000E+00 -0.16189137059E+04  0.16189137059E+04  0.00000000000E+00 0. -1.
         24    2    1    2    0    0 -0.49845198801E+03  0.32265838224E+03 -0.65035279506E+03  0.88433386526E+03  0.80776303616E+02 0.  0.
        254    2    1    2    0    0  0.49845198801E+03 -0.32265838224E+03 -0.50770501446E+03  0.11954357371E+04  0.90484219833E+03 0.  0.
         23    2    4    4    0    0  0.14472612727E+03 -0.55207270202E+03 -0.50087399983E+03  0.76481735428E+03  0.91328535904E+02 0.  0.
         23    2    4    4    0    0  0.35372586074E+03  0.22941431978E+03 -0.68310146269E+01  0.43061838284E+03  0.87364833901E+02 0.  0.
          2    1    3    3  502    0 -0.29423548384E+03  0.18145212815E+03 -0.43530887167E+03  0.55587157556E+03  0.00000000000E+00 0. -1.
         -1    1    3    3    0  502 -0.20421650416E+03  0.14120625409E+03 -0.21504392339E+03  0.32846228970E+03  0.00000000000E+00 0.  1.
         13    1    5    5    0    0  0.45017122239E+02 -0.31476558344E+03 -0.24041356527E+03  0.39862588498E+03  0.00000000000E+00 0. -1.
        -13    1    5    5    0    0  0.99709005033E+02 -0.23730711858E+03 -0.26046043456E+03  0.36619146929E+03  0.00000000000E+00 0.  1.
          4    1    6    6  503    0  0.16934209338E+03  0.60967604280E+02 -0.16114330854E+02  0.18070269788E+03  0.00000000000E+00 0. -1.
         -4    1    6    6    0  503  0.18438376735E+03  0.16844671550E+03  0.92833162275E+01  0.24991568495E+03  0.00000000000E+00 0.  1.
<mgrwt>
<rscale>  0 0.17275253E+04</rscale>
<asrwt>0</asrwt>
<pdfrwt beam="1">  1        2 0.24906365E+00 0.17275253E+04</pdfrwt>
<pdfrwt beam="2">  1       -1 0.70900906E-01 0.17275253E+04</pdfrwt>
<totfact> 0.23657825E+01</totfact>
</mgrwt>
</event>
<event>
12    7  0.1675873E-007  0.1683115E+04  0.7818608E-02  0.8771053E-01
          2   -1    0    0  501    0  0.00000000000E+00  0.00000000000E+00  0.21823420138E+04  0.21823420138E+04  0.00000000000E+00 0. -1.
         -1   -1    0    0    0  501 -0.00000000000E+00 -0.00000000000E+00 -0.32452260718E+03  0.32452260718E+03  0.00000000000E+00 0.  1.
         24    2    1    2    0    0  0.19289612085E+03  0.32247494241E+03  0.13939827925E+04  0.14460166935E+04  0.81100248058E+02 0.  0.
        254    2    1    2    0    0 -0.19289612085E+03 -0.32247494241E+03  0.46383661406E+03  0.10608479274E+04  0.87695776330E+03 0.  0.
         23    2    4    4    0    0  0.32135108339E+03 -0.10647617691E+03  0.36431727870E+02  0.35229808210E+03  0.90459785614E+02 0.  0.
         23    2    4    4    0    0 -0.51424720424E+03 -0.21599876550E+03  0.42740488619E+03  0.70854984529E+03  0.90897154876E+02 0.  0.
          2    1    3    3  502    0  0.12285617806E+03  0.13341209514E+03  0.59807982165E+03  0.62497351999E+03  0.00000000000E+00 0. -1.
         -1    1    3    3    0  502  0.70039942793E+02  0.18906284727E+03  0.79590297087E+03  0.82104317355E+03  0.00000000000E+00 0.  1.
         13    1    5    5    0    0  0.11073266253E+03 -0.38901554275E+02  0.56381056745E+02  0.13020705448E+03  0.00000000000E+00 0.  1.
        -13    1    5    5    0    0  0.21061842086E+03 -0.67574622635E+02 -0.19949328875E+02  0.22209102762E+03  0.00000000000E+00 0. -1.
          2    1    6    6  503    0 -0.91462713750E+02 -0.78479204774E+01  0.93252168288E+02  0.13085482319E+03  0.00000000000E+00 0.  1.
         -2    1    6    6    0  503 -0.42278449049E+03 -0.20815084502E+03  0.33415271790E+03  0.57769502210E+03  0.00000000000E+00 0. -1.
<mgrwt>
<rscale>  0 0.16831153E+04</rscale>
<asrwt>0</asrwt>
<pdfrwt beam="1">  1        2 0.33574492E+00 0.16831153E+04</pdfrwt>
<pdfrwt beam="2">  1       -1 0.49926556E-01 0.16831153E+04</pdfrwt>
<totfact> 0.23087753E+01</totfact>
</mgrwt>
</event>
<event>
12    7  0.1675873E-007  0.2062468E+04  0.7818608E-02  0.8577959E-01
          2   -1    0    0  501    0  0.00000000000E+00  0.00000000000E+00  0.67516343683E+03  0.67516343683E+03  0.00000000000E+00 0. -1.
         -1   -1    0    0    0  501 -0.00000000000E+00 -0.00000000000E+00 -0.15750904826E+04  0.15750904826E+04  0.00000000000E+00 0.  1.
         24    2    1    2    0    0  0.39581907451E+03 -0.18294857359E+03  0.40811049904E+03  0.60254850847E+03  0.79797276290E+02 0.  0.
        254    2    1    2    0    0 -0.39581907451E+03  0.18294857359E+03 -0.13080375448E+04  0.16477054110E+04  0.90212415017E+03 0.  0.
         23    2    4    4    0    0 -0.27521280746E+03 -0.38153498114E+00 -0.13712991674E+04  0.14016815938E+04  0.92236918530E+02 0.  0.
         23    2    4    4    0    0 -0.12060626705E+03  0.18333010857E+03  0.63261622536E+02  0.24602381712E+03  0.91487077491E+02 0.  0.
          4    1    3    3  502    0  0.30879578956E+03 -0.16391195000E+03  0.35779731302E+03  0.50024082621E+03  0.00000000000E+00 0. -1.
         -3    1    3    3    0  502  0.87023284951E+02 -0.19036623587E+02  0.50313186025E+02  0.10230768226E+03  0.00000000000E+00 0.  1.
         13    1    5    5    0    0 -0.27676047941E+03  0.66728792914E+01 -0.13622904058E+04  0.13901352596E+04  0.00000000000E+00 0. -1.
        -13    1    5    5    0    0  0.15476719532E+01 -0.70544142725E+01 -0.90087615659E+01  0.11546334230E+02  0.00000000000E+00 0.  1.
          3    1    6    6  503    0 -0.10433485928E+03  0.14516146192E+03  0.10738858315E+02  0.17908918439E+03  0.00000000000E+00 0. -1.
         -3    1    6    6    0  503 -0.16271407769E+02  0.38168646643E+02  0.52522764221E+02  0.66934632730E+02  0.00000000000E+00 0.  1.
<mgrwt>
<rscale>  0 0.20624679E+04</rscale>
<asrwt>0</asrwt>
<pdfrwt beam="1">  1        2 0.10387130E+00 0.20624679E+04</pdfrwt>
<pdfrwt beam="2">  1       -1 0.24232161E+00 0.20624679E+04</pdfrwt>
<totfact> 0.35418990E+00</totfact>
</mgrwt>
</event>
<event>
12    7  0.1675873E-007  0.1613261E+04  0.7818608E-02  0.8812442E-01
         -1   -1    0    0    0  501 -0.00000000000E+00  0.00000000000E+00  0.51698410713E+03  0.51698410713E+03  0.00000000000E+00 0.  1.
          2   -1    0    0  501    0  0.00000000000E+00 -0.00000000000E+00 -0.12585545440E+04  0.12585545440E+04  0.00000000000E+00 0. -1.
         24    2    1    2    0    0 -0.25377698689E+03 -0.12543493223E+03 -0.77338554510E+03  0.82866485733E+03  0.91779971183E+02 0.  0.
        254    2    1    2    0    0  0.25377698689E+03  0.12543493223E+03  0.31815108186E+02  0.94687379384E+03  0.90300669934E+03 0.  0.
         23    2    4    4    0    0  0.44631930196E+02 -0.22618925137E+03  0.34454117035E+03  0.42404222223E+03  0.89160538012E+02 0.  0.
         23    2    4    4    0    0  0.20914505669E+03  0.35162418360E+03 -0.31272606216E+03  0.52283157161E+03  0.90410403621E+02 0.  0.
          2    1    3    3  502    0 -0.82814582012E+02 -0.70841720541E+02 -0.19890320320E+03  0.22680231173E+03  0.00000000000E+00 0. -1.
         -1    1    3    3    0  502 -0.17096240488E+03 -0.54593211692E+02 -0.57448234190E+03  0.60186254560E+03  0.00000000000E+00 0.  1.
         13    1    5    5    0    0  0.18145278838E+02 -0.20803976328E+03  0.32544714069E+03  0.38668544792E+03  0.00000000000E+00 0.  1.
        -13    1    5    5    0    0  0.26486651358E+02 -0.18149488089E+02  0.19094029658E+02  0.37356774308E+02  0.00000000000E+00 0. -1.
          2    1    6    6  503    0  0.36692836072E+02  0.15570291542E+02 -0.18012509975E+02  0.43740698592E+02  0.00000000000E+00 0. -1.
         -2    1    6    6    0  503  0.17245222062E+03  0.33605389206E+03 -0.29471355219E+03  0.47909087302E+03  0.00000000000E+00 0.  1.
<mgrwt>
<rscale>  0 0.16132609E+04</rscale>
<asrwt>0</asrwt>
<pdfrwt beam="1">  1        2 0.19362378E+00 0.16132609E+04</pdfrwt>
<pdfrwt beam="2">  1       -1 0.79536016E-01 0.16132609E+04</pdfrwt>
<totfact> 0.30160051E+01</totfact>
</mgrwt>
</event>
<event>
12    7  0.1675873E-007  0.2254318E+04  0.7818608E-02  0.8496154E-01
          2   -1    0    0  501    0  0.00000000000E+00  0.00000000000E+00  0.43661400271E+03  0.43661400271E+03  0.00000000000E+00 0. -1.
         -1   -1    0    0    0  501 -0.00000000000E+00 -0.00000000000E+00 -0.29098643028E+04  0.29098643028E+04  0.00000000000E+00 0.  1.
         24    2    1    2    0    0 -0.53842195290E+02 -0.41729989820E+03 -0.23070118569E+04  0.23464207571E+04  0.79677313848E+02 0.  0.
        254    2    1    2    0    0  0.53842195290E+02  0.41729989820E+03 -0.16623844320E+03  0.10000575485E+04  0.89187537985E+03 0.  0.
         23    2    4    4    0    0  0.35860294044E+03  0.47253402410E+03  0.61757270258E+02  0.60274779883E+03  0.87215111897E+02 0.  0.
         23    2    4    4    0    0 -0.30476074515E+03 -0.55234125905E+02 -0.22799571346E+03  0.39730974962E+03  0.99714950412E+02 0.  0.
          4    1    3    3  502    0 -0.34095458670E+02 -0.18429292035E+03 -0.82087028728E+03  0.84199430481E+03  0.00000000000E+00 0. -1.
         -3    1    3    3    0  502 -0.19746736620E+02 -0.23300697785E+03 -0.14861415696E+04  0.15044264523E+04  0.00000000000E+00 0.  1.
         13    1    5    5    0    0  0.17182129944E+03  0.24047391574E+03 -0.12237388884E+02  0.29580401751E+03  0.00000000000E+00 0.  1.
        -13    1    5    5    0    0  0.18678164100E+03  0.23206010837E+03  0.73994659142E+02  0.30694378132E+03  0.00000000000E+00 0. -1.
          3    1    6    6  503    0 -0.10299837856E+03  0.42732566511E+01 -0.12813444329E+03  0.16445474230E+03  0.00000000000E+00 0. -1.
         -3    1    6    6    0  503 -0.20176236659E+03 -0.59507382556E+02 -0.99861270166E+02  0.23285500731E+03  0.00000000000E+00 0.  1.
<mgrwt>
<rscale>  0 0.22543181E+04</rscale>
<asrwt>0</asrwt>
<pdfrwt beam="1">  1        2 0.67171385E-01 0.22543181E+04</pdfrwt>
<pdfrwt beam="2">  1       -1 0.44767143E+00 0.22543181E+04</pdfrwt>
<totfact> 0.25115919E-01</totfact>
</mgrwt>
</event>
<event>
12    7  0.1675873E-007  0.2039774E+04  0.7818608E-02  0.8588248E-01
         -1   -1    0    0    0  501 -0.00000000000E+00  0.00000000000E+00  0.37693877852E+03  0.37693877852E+03  0.00000000000E+00 0.  1.
          2   -1    0    0  501    0  0.00000000000E+00 -0.00000000000E+00 -0.27595170904E+04  0.27595170904E+04  0.00000000000E+00 0. -1.
         24    2    1    2    0    0  0.22786247355E+03 -0.68895932317E+03 -0.52056628402E+03  0.89666752199E+03  0.80231746156E+02 0.  0.
        254    2    1    2    0    0 -0.22786247355E+03  0.68895932317E+03 -0.18620120278E+04  0.22397883469E+04  0.10114231515E+04 0.  0.
         23    2    4    4    0    0  0.61054906636E+02 -0.20641435350E+03 -0.13102285174E+03  0.26759629084E+03  0.90034439192E+02 0.  0.
         23    2    4    4    0    0 -0.28891738019E+03  0.89537367666E+03 -0.17309891761E+04  0.19721920561E+04  0.89725720123E+02 0.  0.
          2    1    3    3  502    0  0.98794223247E+02 -0.34162495219E+03 -0.20859830747E+03  0.41228771554E+03  0.00000000000E+00 0. -1.
         -1    1    3    3    0  502  0.12906825031E+03 -0.34733437098E+03 -0.31196797655E+03  0.48437980645E+03  0.00000000000E+00 0.  1.
         13    1    5    5    0    0  0.64509016633E+02 -0.66249391143E+02 -0.61911184117E+02  0.11128068014E+03  0.00000000000E+00 0.  1.
        -13    1    5    5    0    0 -0.34541099966E+01 -0.14016496235E+03 -0.69111667624E+02  0.15631561070E+03  0.00000000000E+00 0. -1.
          3    1    6    6  503    0 -0.14805857051E+03  0.53507179961E+03 -0.10972362041E+04  0.12296952707E+04  0.00000000000E+00 0. -1.
         -3    1    6    6    0  503 -0.14085880968E+03  0.36030187705E+03 -0.63375297196E+03  0.74249678540E+03  0.00000000000E+00 0.  1.
<mgrwt>
<rscale>  0 0.20397735E+04</rscale>
<asrwt>0</asrwt>
<pdfrwt beam="1">  1        2 0.42454110E+00 0.20397735E+04</pdfrwt>
<pdfrwt beam="2">  1       -1 0.57990580E-01 0.20397735E+04</pdfrwt>
<totfact> 0.77769249E+00</totfact>
</mgrwt>
</event>
<event>
12    7  0.1675873E-007  0.3593538E+04  0.7818608E-02  0.8091973E-01
         -1   -1    0    0    0  501 -0.00000000000E+00  0.00000000000E+00  0.19419199591E+04  0.19419199591E+04  0.00000000000E+00 0.  1.
          2   -1    0    0  501    0  0.00000000000E+00 -0.00000000000E+00 -0.16624676827E+04  0.16624676827E+04  0.00000000000E+00 0. -1.
         24    2    1    2    0    0 -0.16011147955E+04  0.12970262503E+03 -0.37696973856E+03  0.16520155944E+04  0.81596454037E+02 0.  0.
        254    2    1    2    0    0  0.16011147955E+04 -0.12970262503E+03  0.65642201495E+03  0.19523720474E+04  0.89469290302E+03 0.  0.
         23    2    4    4    0    0  0.88820968683E+03 -0.23493149906E+02  0.81506890306E+03  0.12089095186E+04  0.87501609145E+02 0.  0.
         23    2    4    4    0    0  0.71290510863E+03 -0.10620947512E+03 -0.15864688811E+03  0.74346252882E+03  0.89741574166E+02 0.  0.
          4    1    3    3  502    0 -0.68601531213E+03  0.22156117860E+02 -0.18436527087E+03  0.71070278960E+03  0.00000000000E+00 0. -1.
         -3    1    3    3    0  502 -0.91509948333E+03  0.10754650717E+03 -0.19260446768E+03  0.94131280485E+03  0.00000000000E+00 0.  1.
         13    1    5    5    0    0  0.22165505472E+03  0.45519568482E+01  0.15575239029E+03  0.27094370389E+03  0.00000000000E+00 0. -1.
        -13    1    5    5    0    0  0.66655463211E+03 -0.28045106754E+02  0.65931651276E+03  0.93796581473E+03  0.00000000000E+00 0.  1.
          2    1    6    6  503    0  0.30344602345E+03 -0.18737872038E+02 -0.30277630634E+02  0.30552795603E+03  0.00000000000E+00 0. -1.
         -2    1    6    6    0  503  0.40945908518E+03 -0.87471603085E+02 -0.12836925748E+03  0.43793457279E+03  0.00000000000E+00 0.  1.
<mgrwt>
<rscale>  0 0.35935382E+04</rscale>
<asrwt>0</asrwt>
<pdfrwt beam="1">  1        2 0.25576426E+00 0.35935382E+04</pdfrwt>
<pdfrwt beam="2">  1       -1 0.29875692E+00 0.35935382E+04</pdfrwt>
<totfact> 0.32132093E-01</totfact>
</mgrwt>
</event>
<event>
12    7  0.1675873E-007  0.1414674E+04  0.7818608E-02  0.8943265E-01
          2   -1    0    0  501    0  0.00000000000E+00  0.00000000000E+00  0.82880105400E+03  0.82880105400E+03  0.00000000000E+00 0. -1.
         -1   -1    0    0    0  501 -0.00000000000E+00 -0.00000000000E+00 -0.60367389909E+03  0.60367389909E+03  0.00000000000E+00 0.  1.
         24    2    1    2    0    0  0.18603407047E+02 -0.12322522325E+03 -0.33050746368E+03  0.36342857214E+03  0.85525441246E+02 0.  0.
        254    2    1    2    0    0 -0.18603407047E+02  0.12322522325E+03  0.55563461859E+03  0.10690463810E+04  0.90476504842E+03 0.  0.
         23    2    4    4    0    0 -0.44702938410E+03  0.79024818627E+02  0.36546898122E+03  0.58971675246E+03  0.90100386739E+02 0.  0.
         23    2    4    4    0    0  0.42842597705E+03  0.44200404626E+02  0.19016563737E+03  0.47932962849E+03  0.89952373679E+02 0.  0.
          2    1    3    3  502    0 -0.13698155671E+02 -0.35822837348E+02 -0.29665742896E+02  0.48486817240E+02  0.00000000000E+00 0. -1.
         -1    1    3    3    0  502  0.32301562718E+02 -0.87402385905E+02 -0.30084172078E+03  0.31494175490E+03  0.00000000000E+00 0.  1.
         13    1    5    5    0    0 -0.24711527512E+02  0.14065297243E+02  0.15773090209E+01  0.28477712027E+02  0.00000000000E+00 0.  1.
        -13    1    5    5    0    0 -0.42231785659E+03  0.64959521385E+02  0.36389167220E+03  0.56123904043E+03  0.00000000000E+00 0. -1.
          1    1    6    6  503    0  0.34009751149E+03  0.10352354258E+02  0.17787104623E+03  0.38394218009E+03  0.00000000000E+00 0. -1.
         -1    1    6    6    0  503  0.88328465559E+02  0.33848050367E+02  0.12294591138E+02  0.95387448404E+02  0.00000000000E+00 0.  1.
<mgrwt>
<rscale>  0 0.14146739E+04</rscale>
<asrwt>0</asrwt>
<pdfrwt beam="1">  1        2 0.12750785E+00 0.14146739E+04</pdfrwt>
<pdfrwt beam="2">  1       -1 0.92872908E-01 0.14146739E+04</pdfrwt>
<totfact> 0.41087899E+01</totfact>
</mgrwt>
</event>
<event>
12    7  0.1675873E-007  0.1468560E+04  0.7818608E-02  0.8905634E-01
          2   -1    0    0  501    0  0.00000000000E+00  0.00000000000E+00  0.33991914937E+03  0.33991914937E+03  0.00000000000E+00 0. -1.
         -1   -1    0    0    0  501 -0.00000000000E+00 -0.00000000000E+00 -0.15861628370E+04  0.15861628370E+04  0.00000000000E+00 0.  1.
         24    2    1    2    0    0  0.12689135105E+03  0.50252187656E+03 -0.27675805157E+03  0.59325206432E+03  0.81995983550E+02 0.  0.
        254    2    1    2    0    0 -0.12689135105E+03 -0.50252187656E+03 -0.96948563610E+03  0.13328299221E+04  0.75359375740E+03 0.  0.
         23    2    4    4    0    0  0.23156810690E+03 -0.20555526537E+02 -0.52006337483E+03  0.57689482520E+03  0.91079128787E+02 0.  0.
         23    2    4    4    0    0 -0.35845945795E+03 -0.48196635002E+03 -0.44942226127E+03  0.75593509687E+03  0.93127633993E+02 0.  0.
          2    1    3    3  502    0  0.13661981566E+03  0.48005124559E+03 -0.27160943978E+03  0.56823046398E+03  0.00000000000E+00 0. -1.
         -1    1    3    3    0  502 -0.97284646117E+01  0.22470630973E+02 -0.51486117892E+01  0.25021600336E+02  0.00000000000E+00 0.  1.
         13    1    5    5    0    0  0.18320514015E+03 -0.41389054966E+02 -0.46084326216E+03  0.49764815837E+03  0.00000000000E+00 0. -1.
        -13    1    5    5    0    0  0.48362966751E+02  0.20833528429E+02 -0.59220112671E+02  0.79246666836E+02  0.00000000000E+00 0.  1.
          1    1    6    6  503    0 -0.28513749192E+03 -0.42822510630E+03 -0.35634505995E+03  0.62582899638E+03  0.00000000000E+00 0. -1.
         -1    1    6    6    0  503 -0.73321966032E+02 -0.53741243724E+02 -0.93077201318E+02  0.13010610049E+03  0.00000000000E+00 0.  1.
<mgrwt>
<rscale>  0 0.14685600E+04</rscale>
<asrwt>0</asrwt>
<pdfrwt beam="1">  1        2 0.52295255E-01 0.14685600E+04</pdfrwt>
<pdfrwt beam="2">  1       -1 0.24402505E+00 0.14685600E+04</pdfrwt>
<totfact> 0.80800408E+00</totfact>
</mgrwt>
</event>
<event>
12    7  0.1675873E-007  0.1568244E+04  0.7818608E-02  0.8840298E-01
          2   -1    0    0  501    0  0.00000000000E+00  0.00000000000E+00  0.59035299429E+03  0.59035299429E+03  0.00000000000E+00 0. -1.
         -1   -1    0    0    0  501 -0.00000000000E+00 -0.00000000000E+00 -0.10414911943E+04  0.10414911943E+04  0.00000000000E+00 0.  1.
         24    2    1    2    0    0  0.10817888868E+03  0.23723898157E+03 -0.60311791124E+03  0.66231743972E+03  0.83235627994E+02 0.  0.
        254    2    1    2    0    0 -0.10817888868E+03 -0.23723898157E+03  0.15197971119E+03  0.96952674891E+03  0.92135730198E+03 0.  0.
         23    2    4    4    0    0  0.34056613180E+03 -0.70800536035E+02 -0.15697507408E+03  0.39229576127E+03  0.90866849799E+02 0.  0.
         23    2    4    4    0    0 -0.44874502048E+03 -0.16643844554E+03  0.30895478528E+03  0.57723098764E+03  0.93105876261E+02 0.  0.
          2    1    3    3  502    0  0.90106823759E+02  0.10079610368E+03 -0.27253357219E+03  0.30422630093E+03  0.00000000000E+00 0. -1.
         -1    1    3    3    0  502  0.18072064919E+02  0.13644287790E+03 -0.33058433905E+03  0.35809113879E+03  0.00000000000E+00 0.  1.
         13    1    5    5    0    0  0.11700247933E+03 -0.68950766027E+02 -0.54008356149E+02  0.14615297068E+03  0.00000000000E+00 0. -1.
        -13    1    5    5    0    0  0.22356365247E+03 -0.18497700082E+01 -0.10296671794E+03  0.24614279059E+03  0.00000000000E+00 0.  1.
          3    1    6    6  503    0 -0.14052888037E+03 -0.77712407569E+02  0.60813341862E+02  0.17171443462E+03  0.00000000000E+00 0. -1.
         -3    1    6    6    0  503 -0.30821614011E+03 -0.88726037968E+02  0.24814144342E+03  0.40551655302E+03  0.00000000000E+00 0.  1.
<mgrwt>
<rscale>  0 0.15682442E+04</rscale>
<asrwt>0</asrwt>
<pdfrwt beam="1">  1        2 0.90823539E-01 0.15682442E+04</pdfrwt>
<pdfrwt beam="2">  1       -1 0.16022941E+00 0.15682442E+04</pdfrwt>
<totfact> 0.16169918E+01</totfact>
</mgrwt>
</event>
<event>
12    7  0.1675873E-007  0.2799959E+04  0.7818608E-02  0.8303281E-01
         -1   -1    0    0    0  501 -0.00000000000E+00  0.00000000000E+00  0.89988302504E+03  0.89988302504E+03  0.00000000000E+00 0.  1.
          2   -1    0    0  501    0  0.00000000000E+00 -0.00000000000E+00 -0.21779964186E+04  0.21779964186E+04  0.00000000000E+00 0. -1.
         24    2    1    2    0    0  0.60232804682E+03  0.90779604414E+03 -0.12559875750E+04  0.16646149100E+04  0.80902882718E+02 0.  0.
        254    2    1    2    0    0 -0.60232804682E+03 -0.90779604414E+03 -0.22125818608E+02  0.14132645336E+04  0.89996353063E+03 0.  0.
         23    2    4    4    0    0 -0.14632150006E+03  0.15021312027E+03 -0.11098617204E+03  0.25409798235E+03  0.90960933188E+02 0.  0.
         23    2    4    4    0    0 -0.45600654675E+03 -0.10580091644E+04  0.88860353431E+02  0.11591665513E+04  0.91899774525E+02 0.  0.
          4    1    3    3  502    0  0.59931334190E+03  0.88353370046E+03 -0.12339618347E+04  0.16317077224E+04  0.00000000000E+00 0. -1.
         -3    1    3    3    0  502  0.30147049205E+01  0.24262343681E+02 -0.22025740233E+02  0.32907187656E+02  0.00000000000E+00 0.  1.
         13    1    5    5    0    0 -0.44433071901E+02  0.68113143644E+02 -0.90470757804E+02  0.12164972763E+03  0.00000000000E+00 0. -1.
        -13    1    5    5    0    0 -0.10188842816E+03  0.82099976630E+02 -0.20515414236E+02  0.13244825472E+03  0.00000000000E+00 0.  1.
          3    1    6    6  503    0 -0.31611206159E+03 -0.64639763100E+03  0.83661865040E+02  0.72440046970E+03  0.00000000000E+00 0. -1.
         -3    1    6    6    0  503 -0.13989448517E+03 -0.41161153342E+03  0.51984883912E+01  0.43476608159E+03  0.00000000000E+00 0.  1.
<mgrwt>
<rscale>  0 0.27999586E+04</rscale>
<asrwt>0</asrwt>
<pdfrwt beam="1">  1        2 0.33507637E+00 0.27999586E+04</pdfrwt>
<pdfrwt beam="2">  1       -1 0.13844354E+00 0.27999586E+04</pdfrwt>
<totfact> 0.22690727E+00</totfact>
</mgrwt>
</event>
<event>
12    7  0.1675873E-007  0.1221330E+04  0.7818608E-02  0.9094388E-01
         -1   -1    0    0    0  501 -0.00000000000E+00  0.00000000000E+00  0.14827864736E+03  0.14827864736E+03  0.00000000000E+00 0.  1.
          2   -1    0    0  501    0  0.00000000000E+00 -0.00000000000E+00 -0.25149398510E+04  0.25149398510E+04  0.00000000000E+00 0. -1.
         24    2    1    2    0    0 -0.70323164602E+02  0.16658395016E+02 -0.10835502709E+04  0.10892830418E+04  0.85050020307E+02 0.  0.
        254    2    1    2    0    0  0.70323164602E+02 -0.16658395016E+02 -0.12831109327E+04  0.15739354565E+04  0.90866732422E+03 0.  0.
         23    2    4    4    0    0  0.43127665339E+02 -0.44506435618E+03 -0.80223798161E+03  0.92318022960E+03  0.93454162706E+02 0.  0.
         23    2    4    4    0    0  0.27195499263E+02  0.42840596117E+03 -0.48087295104E+03  0.65075522689E+03  0.89287779336E+02 0.  0.
          2    1    3    3  502    0 -0.45608630398E+02  0.43345758073E+02 -0.89797522986E+03  0.90017693558E+03  0.00000000000E+00 0. -1.
         -3    1    3    3    0  502 -0.24714534204E+02 -0.26687363056E+02 -0.18557504108E+03  0.18910610625E+03  0.00000000000E+00 0.  1.
         13    1    5    5    0    0  0.38337036262E+02 -0.21792672916E+03 -0.48386171036E+03  0.53205633384E+03  0.00000000000E+00 0. -1.
        -13    1    5    5    0    0  0.47906290777E+01 -0.22713762703E+03 -0.31837627125E+03  0.39112389576E+03  0.00000000000E+00 0.  1.
          1    1    6    6  503    0 -0.20168398715E+02  0.15351224681E+03 -0.12762796561E+03  0.20065311320E+03  0.00000000000E+00 0. -1.
         -1    1    6    6    0  503  0.47363897978E+02  0.27489371435E+03 -0.35324498543E+03  0.45010211370E+03  0.00000000000E+00 0.  1.
<mgrwt>
<rscale>  0 0.12213302E+04</rscale>
<asrwt>0</asrwt>
<pdfrwt beam="1">  1        2 0.38691382E+00 0.12213302E+04</pdfrwt>
<pdfrwt beam="2">  1       -1 0.22812100E-01 0.12213302E+04</pdfrwt>
<totfact> 0.63123314E+01</totfact>
</mgrwt>
</event>
<event>
12    7  0.1675873E-007  0.2868498E+04  0.7818608E-02  0.8282312E-01
         -1   -1    0    0    0  501 -0.00000000000E+00  0.00000000000E+00  0.70330948270E+03  0.70330948270E+03  0.00000000000E+00 0.  1.
          2   -1    0    0  501    0  0.00000000000E+00 -0.00000000000E+00 -0.29248439625E+04  0.29248439625E+04  0.00000000000E+00 0. -1.
         24    2    1    2    0    0  0.12580700124E+04  0.25999857719E+01 -0.13570647579E+04  0.18526719365E+04  0.89563559501E+02 0.  0.
        254    2    1    2    0    0 -0.12580700124E+04 -0.25999857719E+01 -0.86446972191E+03  0.17754815087E+04  0.90679643341E+03 0.  0.
         23    2    4    4    0    0 -0.52438836855E+03  0.15486374106E+02  0.11829042830E+03  0.54524765655E+03  0.89885442050E+02 0.  0.
         23    2    4    4    0    0 -0.73368164383E+03 -0.18086359878E+02 -0.98276015021E+03  0.12302338521E+04  0.95089154050E+02 0.  0.
          2    1    3    3  502    0  0.93196466139E+03 -0.37308424970E+02 -0.10007870033E+04  0.13680367958E+04  0.00000000000E+00 0. -1.
         -1    1    3    3    0  502  0.32610535098E+03  0.39908410742E+02 -0.35627775461E+03  0.48463514072E+03  0.00000000000E+00 0.  1.
         13    1    5    5    0    0 -0.48364295048E+03  0.30433880440E+02  0.88520417136E+02  0.49261809638E+03  0.00000000000E+00 0.  1.
        -13    1    5    5    0    0 -0.40745418068E+02 -0.14947506333E+02  0.29770011165E+02  0.52629560172E+02  0.00000000000E+00 0. -1.
          1    1    6    6  503    0 -0.78601279335E+02 -0.21581529873E+02 -0.14972587388E+03  0.17047510333E+03  0.00000000000E+00 0. -1.
         -1    1    6    6    0  503 -0.65508036449E+03  0.34951699951E+01 -0.83303427633E+03  0.10597587488E+04  0.00000000000E+00 0.  1.
<mgrwt>
<rscale>  0 0.28684982E+04</rscale>
<asrwt>0</asrwt>
<pdfrwt beam="1">  1        2 0.44997600E+00 0.28684982E+04</pdfrwt>
<pdfrwt beam="2">  1       -1 0.10820146E+00 0.28684982E+04</pdfrwt>
<totfact> 0.15125241E+00</totfact>
</mgrwt>
</event>
<event>
12    7  0.1675873E-007  0.2420057E+04  0.7818608E-02  0.8432032E-01
         -1   -1    0    0    0  501 -0.00000000000E+00  0.00000000000E+00  0.69081221508E+03  0.69081221508E+03  0.00000000000E+00 0.  1.
          2   -1    0    0  501    0  0.00000000000E+00 -0.00000000000E+00 -0.21194898877E+04  0.21194898877E+04  0.00000000000E+00 0. -1.
         24    2    1    2    0    0 -0.60079542429E+03  0.39352779883E+03 -0.14832294585E+04  0.16498471889E+04  0.78783564163E+02 0.  0.
        254    2    1    2    0    0  0.60079542429E+03 -0.39352779883E+03  0.54551785835E+02  0.11604549139E+04  0.90986836383E+03 0.  0.
         23    2    4    4    0    0  0.43722114981E+03  0.22501701777E+03 -0.58450467068E+02  0.50434847629E+03  0.95686656869E+02 0.  0.
         23    2    4    4    0    0  0.16357427447E+03 -0.61854481659E+03  0.11300225290E+03  0.65610643759E+03  0.91388811568E+02 0.  0.
          4    1    3    3  502    0 -0.36343934842E+03  0.25452124522E+03 -0.99542124155E+03  0.10898314881E+04  0.00000000000E+00 0. -1.
         -3    1    3    3    0  502 -0.23735607587E+03  0.13900655360E+03 -0.48780821691E+03  0.56001570084E+03  0.00000000000E+00 0.  1.
         13    1    5    5    0    0  0.15400807007E+03  0.95391950954E+02  0.22455314235E+02  0.18254410725E+03  0.00000000000E+00 0. -1.
        -13    1    5    5    0    0  0.28321307974E+03  0.12962506681E+03 -0.80905781302E+02  0.32180436904E+03  0.00000000000E+00 0.  1.
          2    1    6    6  503    0  0.91826126300E+02 -0.21504476204E+03  0.12660360213E+02  0.23417209884E+03  0.00000000000E+00 0. -1.
         -2    1    6    6    0  503  0.71748148174E+02 -0.40350005455E+03  0.10034189269E+03  0.42193433875E+03  0.00000000000E+00 0.  1.
<mgrwt>
<rscale>  0 0.24200574E+04</rscale>
<asrwt>0</asrwt>
<pdfrwt beam="1">  1        2 0.32607537E+00 0.24200574E+04</pdfrwt>
<pdfrwt beam="2">  1       -1 0.10627880E+00 0.24200574E+04</pdfrwt>
<totfact> 0.48436170E+00</totfact>
</mgrwt>
</event>
<event>
12    7  0.1675873E-007  0.2397389E+04  0.7818608E-02  0.8440482E-01
          2   -1    0    0  501    0  0.00000000000E+00  0.00000000000E+00  0.14976108094E+04  0.14976108094E+04  0.00000000000E+00 0. -1.
         -1   -1    0    0    0  501 -0.00000000000E+00 -0.00000000000E+00 -0.95944023674E+03  0.95944023674E+03  0.00000000000E+00 0.  1.
         24    2    1    2    0    0 -0.50053650421E+03  0.27852322026E+03  0.11008718784E+04  0.12434330293E+04  0.78069388258E+02 0.  0.
        254    2    1    2    0    0  0.50053650421E+03 -0.27852322026E+03 -0.56270130576E+03  0.12136180168E+04  0.91001316200E+03 0.  0.
         23    2    4    4    0    0  0.25873107867E+02 -0.88971737772E+02  0.23097046313E+03  0.26520817773E+03  0.91665887141E+02 0.  0.
         23    2    4    4    0    0  0.47466339634E+03 -0.18955148249E+03 -0.79367176888E+03  0.94840983911E+03  0.91275636662E+02 0.  0.
          4    1    3    3  502    0 -0.45210341717E+03  0.23004097643E+03  0.93031853730E+03  0.10596267888E+04  0.00000000000E+00 0. -1.
         -3    1    3    3    0  502 -0.48433087041E+02  0.48482243832E+02  0.17055334110E+03  0.18380624050E+03  0.00000000000E+00 0.  1.
         13    1    5    5    0    0  0.59137485804E+02 -0.58405458634E+02  0.12618741028E+03  0.15110162917E+03  0.00000000000E+00 0. -1.
        -13    1    5    5    0    0 -0.33264377936E+02 -0.30566279138E+02  0.10478305285E+03  0.11410654856E+03  0.00000000000E+00 0.  1.
          3    1    6    6  503    0  0.59403803207E+02 -0.41005163859E+02 -0.67632180253E+02  0.98915858710E+02  0.00000000000E+00 0. -1.
         -3    1    6    6    0  503  0.41525959314E+03 -0.14854631863E+03 -0.72603958863E+03  0.84949398040E+03  0.00000000000E+00 0.  1.
<mgrwt>
<rscale>  0 0.23973886E+04</rscale>
<asrwt>0</asrwt>
<pdfrwt beam="1">  1        2 0.23040166E+00 0.23973886E+04</pdfrwt>
<pdfrwt beam="2">  1       -1 0.14760619E+00 0.23973886E+04</pdfrwt>
<totfact> 0.47531022E+00</totfact>
</mgrwt>
</event>
<event>
12    7  0.1675873E-007  0.1769840E+04  0.7818608E-02  0.8722505E-01
          2   -1    0    0  501    0  0.00000000000E+00  0.00000000000E+00  0.19758500600E+04  0.19758500600E+04  0.00000000000E+00 0. -1.
         -1   -1    0    0    0  501 -0.00000000000E+00 -0.00000000000E+00 -0.39632740061E+03  0.39632740061E+03  0.00000000000E+00 0.  1.
         24    2    1    2    0    0 -0.25847333722E+03 -0.33556599064E+03  0.12454689542E+04  0.13174598602E+04  0.71376237191E+02 0.  0.
        254    2    1    2    0    0  0.25847333722E+03  0.33556599064E+03  0.33405370523E+03  0.10547176005E+04  0.90632463202E+03 0.  0.
         23    2    4    4    0    0  0.80121653116E+02 -0.27378875581E+03  0.28274640932E+03  0.41173234417E+03  0.90544072964E+02 0.  0.
         23    2    4    4    0    0  0.17835168411E+03  0.60935474645E+03  0.51307295910E+02  0.64298525628E+03  0.87607482211E+02 0.  0.
          2    1    3    3  502    0 -0.25614238014E+03 -0.32412853292E+03  0.11635453742E+04  0.12347088979E+04  0.00000000000E+00 0. -1.
         -1    1    3    3    0  502 -0.23309570803E+01 -0.11437457719E+02  0.81923579989E+02  0.82750962279E+02  0.00000000000E+00 0.  1.
         13    1    5    5    0    0  0.15298980495E+02 -0.12679529908E+03  0.18117212005E+03  0.22166290568E+03  0.00000000000E+00 0.  1.
        -13    1    5    5    0    0  0.64822672621E+02 -0.14699345673E+03  0.10157428927E+03  0.19006943849E+03  0.00000000000E+00 0. -1.
          1    1    6    6  503    0  0.94765744117E+02  0.45668786023E+03  0.26423734912E+02  0.46716438403E+03  0.00000000000E+00 0. -1.
         -1    1    6    6    0  503  0.83585939988E+02  0.15266688622E+03  0.24883560998E+02  0.17582087225E+03  0.00000000000E+00 0.  1.
<mgrwt>
<rscale>  0 0.17698401E+04</rscale>
<asrwt>0</asrwt>
<pdfrwt beam="1">  1        2 0.30397693E+00 0.17698401E+04</pdfrwt>
<pdfrwt beam="2">  1       -1 0.60973447E-01 0.17698401E+04</pdfrwt>
<totfact> 0.20260879E+01</totfact>
</mgrwt>
</event>
<event>
12    7  0.1675873E-007  0.1410356E+04  0.7818608E-02  0.8946356E-01
          2   -1    0    0  501    0  0.00000000000E+00  0.00000000000E+00  0.19999003988E+04  0.19999003988E+04  0.00000000000E+00 0. -1.
         -1   -1    0    0    0  501 -0.00000000000E+00 -0.00000000000E+00 -0.24865038154E+03  0.24865038154E+03  0.00000000000E+00 0.  1.
         24    2    1    2    0    0  0.70105173576E+02 -0.12231252646E+03 -0.83084748009E+02  0.19030218565E+03  0.97142972046E+02 0.  0.
        254    2    1    2    0    0 -0.70105173576E+02  0.12231252646E+03  0.18343347652E+04  0.20582485946E+04  0.92289119453E+03 0.  0.
         23    2    4    4    0    0 -0.22109699412E+03  0.47875357664E+03  0.99847876698E+03  0.11328700746E+04  0.91355842074E+02 0.  0.
         23    2    4    4    0    0  0.15099182054E+03 -0.35644105018E+03  0.83585599825E+03  0.92537852003E+03  0.88438698637E+02 0.  0.
          2    1    3    3  502    0 -0.24825994767E+02 -0.26724917250E+02 -0.16769049944E+02  0.40146634407E+02  0.00000000000E+00 0. -1.
         -3    1    3    3    0  502  0.94931168342E+02 -0.95587609215E+02 -0.66315698065E+02  0.15015555124E+03  0.00000000000E+00 0.  1.
         13    1    5    5    0    0 -0.13761983393E+03  0.38681039637E+03  0.78573454545E+03  0.88653272773E+03  0.00000000000E+00 0. -1.
        -13    1    5    5    0    0 -0.83477160185E+02  0.91943180275E+02  0.21274422153E+03  0.24633734687E+03  0.00000000000E+00 0.  1.
          2    1    6    6  503    0  0.10555084873E+03 -0.32261069403E+03  0.69193826758E+03  0.77071214322E+03  0.00000000000E+00 0. -1.
         -2    1    6    6    0  503  0.45440971811E+02 -0.33830356150E+02  0.14391773067E+03  0.15466637682E+03  0.00000000000E+00 0.  1.
<mgrwt>
<rscale>  0 0.14103560E+04</rscale>
<asrwt>0</asrwt>
<pdfrwt beam="1">  1        2 0.30767697E+00 0.14103560E+04</pdfrwt>
<pdfrwt beam="2">  1       -1 0.38253906E-01 0.14103560E+04</pdfrwt>
<totfact> 0.48948579E+01</totfact>
</mgrwt>
</event>
<event>
12    7  0.1910513E-007  0.1626458E+04  0.7818608E-02  0.8804457E-01
         -1   -1    0    0    0  501 -0.00000000000E+00  0.00000000000E+00  0.34650951214E+03  0.34650951214E+03  0.00000000000E+00 0.  1.
          2   -1    0    0  501    0  0.00000000000E+00 -0.00000000000E+00 -0.19085800606E+04  0.19085800606E+04  0.00000000000E+00 0. -1.
         24    2    1    2    0    0  0.81581854571E+02  0.21701923700E+03  0.16603682926E+03  0.29616231949E+03  0.79943371148E+02 0.  0.
        254    2    1    2    0    0 -0.81581854571E+02 -0.21701923700E+03 -0.17281073777E+04  0.19589272532E+04  0.89290980864E+03 0.  0.
         23    2    4    4    0    0 -0.64120411284E+02  0.24014935677E+03 -0.13116966886E+03  0.29547904676E+03  0.91209891708E+02 0.  0.
         23    2    4    4    0    0 -0.17461443288E+02 -0.45716859376E+03 -0.15969377089E+04  0.16634482065E+04  0.86843909273E+02 0.  0.
          4    1    3    3  502    0  0.69868847414E+01 -0.50080374065E+01 -0.74229858373E+00  0.86283256917E+01  0.00000000000E+00 0. -1.
         -3    1    3    3    0  502  0.74594969830E+02  0.22202727440E+03  0.16677912784E+03  0.28753399380E+03  0.00000000000E+00 0.  1.
         13    1    5    5    0    0 -0.55850648827E+02  0.22162653882E+03 -0.14523323576E+03  0.27079569873E+03  0.00000000000E+00 0. -1.
        -13    1    5    5    0    0 -0.82697624569E+01  0.18522817950E+02  0.14063566899E+02  0.24683348027E+02  0.00000000000E+00 0.  1.
          3    1    6    6  503    0 -0.15146123345E+02 -0.34611413079E+03 -0.10613224698E+04  0.11164361968E+04  0.00000000000E+00 0. -1.
         -3    1    6    6    0  503 -0.23153199431E+01 -0.11105446297E+03 -0.53561523907E+03  0.54701200971E+03  0.00000000000E+00 0.  1.
<mgrwt>
<rscale>  0 0.16264577E+04</rscale>
<asrwt>0</asrwt>
<pdfrwt beam="1">  1        2 0.29362770E+00 0.16264577E+04</pdfrwt>
<pdfrwt beam="2">  1       -1 0.53309156E-01 0.16264577E+04</pdfrwt>
<totfact> 0.29061484E+01</totfact>
</mgrwt>
</event>
<event>
12    7  0.1675873E-007  0.1550696E+04  0.7818608E-02  0.8851423E-01
          2   -1    0    0  501    0  0.00000000000E+00  0.00000000000E+00  0.92681037691E+03  0.92681037691E+03  0.00000000000E+00 0. -1.
         -1   -1    0    0    0  501 -0.00000000000E+00 -0.00000000000E+00 -0.64863797075E+03  0.64863797075E+03  0.00000000000E+00 0.  1.
         24    2    1    2    0    0 -0.11238194046E+03 -0.94408637232E+02  0.53258728904E+03  0.55819755824E+03  0.79953750718E+02 0.  0.
        254    2    1    2    0    0  0.11238194046E+03  0.94408637232E+02 -0.25441488288E+03  0.10172507894E+04  0.97392481467E+03 0.  0.
         23    2    4    4    0    0  0.23964774156E+03  0.11499068190E+03  0.31695387981E+03  0.42436087969E+03  0.94702150563E+02 0.  0.
         23    2    4    4    0    0 -0.12726580110E+03 -0.20582044666E+02 -0.57136876269E+03  0.59288990974E+03  0.91847576975E+02 0.  0.
          2    1    3    3  502    0 -0.10675488171E+03 -0.47051823142E+02  0.32814281989E+03  0.34826453893E+03  0.00000000000E+00 0. -1.
         -1    1    3    3    0  502 -0.56270587438E+01 -0.47356814090E+02  0.20444446915E+03  0.20993301931E+03  0.00000000000E+00 0.  1.
         13    1    5    5    0    0  0.17370884189E+02 -0.16302110993E+02  0.22560666593E+02  0.32809908830E+02  0.00000000000E+00 0.  1.
        -13    1    5    5    0    0  0.22227685737E+03  0.13129279289E+03  0.29439321322E+03  0.39155097086E+03  0.00000000000E+00 0. -1.
          2    1    6    6  503    0 -0.11691006259E+03 -0.13648974383E+02 -0.56787793887E+03  0.57994793791E+03  0.00000000000E+00 0. -1.
         -2    1    6    6    0  503 -0.10355738516E+02 -0.69330702837E+01 -0.34908238234E+01  0.12941971825E+02  0.00000000000E+00 0.  1.
<mgrwt>
<rscale>  0 0.15506958E+04</rscale>
<asrwt>0</asrwt>
<pdfrwt beam="1">  1        2 0.14258621E+00 0.15506958E+04</pdfrwt>
<pdfrwt beam="2">  1       -1 0.99790457E-01 0.15506958E+04</pdfrwt>
<totfact> 0.29599259E+01</totfact>
</mgrwt>
</event>
<event>
12    7  0.1675873E-007  0.2695176E+04  0.7818608E-02  0.8336572E-01
          2   -1    0    0  501    0  0.00000000000E+00  0.00000000000E+00  0.30086660374E+04  0.30086660374E+04  0.00000000000E+00 0. -1.
         -1   -1    0    0    0  501 -0.00000000000E+00 -0.00000000000E+00 -0.60358742725E+03  0.60358742725E+03  0.00000000000E+00 0.  1.
         24    2    1    2    0    0 -0.11823194977E+04 -0.16459034714E+03  0.10015674221E+04  0.15600345071E+04  0.74839731556E+02 0.  0.
        254    2    1    2    0    0  0.11823194977E+04  0.16459034714E+03  0.14035111880E+04  0.20522189575E+04  0.90376413823E+03 0.  0.
         23    2    4    4    0    0  0.78903880712E+03 -0.24321211039E+03  0.46476235628E+03  0.95195068458E+03  0.92041774574E+02 0.  0.
         23    2    4    4    0    0  0.39328069058E+03  0.40780245753E+03  0.93874883170E+03  0.11002682729E+04  0.91478726202E+02 0.  0.
          2    1    3    3  502    0 -0.11762311922E+04 -0.15919324837E+03  0.98862163897E+03  0.15447443325E+04  0.00000000000E+00 0. -1.
         -1    1    3    3    0  502 -0.60883055438E+01 -0.53970987765E+01  0.12945783146E+02  0.15290174651E+02  0.00000000000E+00 0.  1.
         13    1    5    5    0    0  0.20305280555E+03 -0.79856401368E+02  0.81285863882E+02  0.23284088633E+03  0.00000000000E+00 0.  1.
        -13    1    5    5    0    0  0.58598600157E+03 -0.16335570902E+03  0.38347649240E+03  0.71910979824E+03  0.00000000000E+00 0. -1.
          1    1    6    6  503    0  0.39151068097E+03  0.37920974203E+03  0.88552876220E+03  0.10398277888E+04  0.00000000000E+00 0. -1.
         -1    1    6    6    0  503  0.17700096107E+01  0.28592715505E+02  0.53220069503E+02  0.60440484047E+02  0.00000000000E+00 0.  1.
<mgrwt>
<rscale>  0 0.26951757E+04</rscale>
<asrwt>0</asrwt>
<pdfrwt beam="1">  1        2 0.46287169E+00 0.26951757E+04</pdfrwt>
<pdfrwt beam="2">  1       -1 0.92859605E-01 0.26951757E+04</pdfrwt>
<totfact> 0.19325928E+00</totfact>
</mgrwt>
</event>
<event>
12    7  0.1675873E-007  0.1342204E+04  0.7818608E-02  0.8996750E-01
          2   -1    0    0  501    0  0.00000000000E+00  0.00000000000E+00  0.44223557584E+03  0.44223557584E+03  0.00000000000E+00 0. -1.
         -1   -1    0    0    0  501 -0.00000000000E+00 -0.00000000000E+00 -0.10184123725E+04  0.10184123725E+04  0.00000000000E+00 0.  1.
         24    2    1    2    0    0 -0.86740670547E+02 -0.63582242170E+02 -0.54199591461E+03  0.55891465950E+03  0.84020114856E+02 0.  0.
        254    2    1    2    0    0  0.86740670547E+02  0.63582242170E+02 -0.34180882078E+02  0.90173328887E+03  0.89464403318E+03 0.  0.
         23    2    4    4    0    0  0.14067382770E+03  0.43906393013E+02  0.40971077166E+03  0.44468031930E+03  0.90336995806E+02 0.  0.
         23    2    4    4    0    0 -0.53933157149E+02  0.19675849157E+02 -0.44389165374E+03  0.45705296957E+03  0.92529412933E+02 0.  0.
          2    1    3    3  502    0 -0.48712490840E+02 -0.16067816651E+02 -0.96541666095E+02  0.10932234350E+03  0.00000000000E+00 0. -1.
         -1    1    3    3    0  502 -0.38028179707E+02 -0.47514425519E+02 -0.44545424852E+03  0.44959231600E+03  0.00000000000E+00 0.  1.
         13    1    5    5    0    0  0.10001483820E+03  0.19871523106E+02  0.15436999450E+03  0.18500794711E+03  0.00000000000E+00 0. -1.
        -13    1    5    5    0    0  0.40658989493E+02  0.24034869907E+02  0.25534077716E+03  0.25967237219E+03  0.00000000000E+00 0.  1.
          3    1    6    6  503    0 -0.24289034069E+02  0.18746002048E+02 -0.32876994727E+02  0.44969618089E+02  0.00000000000E+00 0. -1.
         -3    1    6    6    0  503 -0.29644123080E+02  0.92984710894E+00 -0.41101465901E+03  0.41208335148E+03  0.00000000000E+00 0.  1.
<mgrwt>
<rscale>  0 0.13422044E+04</rscale>
<asrwt>0</asrwt>
<pdfrwt beam="1">  1        2 0.68036244E-01 0.13422044E+04</pdfrwt>
<pdfrwt beam="2">  1       -1 0.15667882E+00 0.13422044E+04</pdfrwt>
<totfact> 0.24572379E+01</totfact>
</mgrwt>
</event>
<event>
12    7  0.1675873E-007  0.2113800E+04  0.7818608E-02  0.8555189E-01
         -1   -1    0    0    0  501 -0.00000000000E+00  0.00000000000E+00  0.15156301017E+04  0.15156301017E+04  0.00000000000E+00 0.  1.
          2   -1    0    0  501    0  0.00000000000E+00 -0.00000000000E+00 -0.73701172552E+03  0.73701172552E+03  0.00000000000E+00 0. -1.
         24    2    1    2    0    0 -0.37627847303E+03 -0.66189430016E+03 -0.14995833100E+03  0.78021464045E+03  0.80980431542E+02 0.  0.
        254    2    1    2    0    0  0.37627847303E+03  0.66189430016E+03  0.92857670722E+03  0.14724271868E+04  0.85211358718E+03 0.  0.
         23    2    4    4    0    0 -0.78542610987E+02  0.19052987088E+03 -0.10316323405E+03  0.24698063462E+03  0.88804321867E+02 0.  0.
         23    2    4    4    0    0  0.45482108402E+03  0.47136442928E+03  0.10317399413E+04  0.12254465522E+04  0.90472660163E+02 0.  0.
          4    1    3    3  502    0 -0.28125442022E+03 -0.55749804197E+03 -0.11807440850E+03  0.63549168494E+03  0.00000000000E+00 0. -1.
         -3    1    3    3    0  502 -0.95024052815E+02 -0.10439625819E+03 -0.31883922497E+02  0.14472295551E+03  0.00000000000E+00 0.  1.
         13    1    5    5    0    0  0.57856994625E+01  0.87145712263E+02 -0.19450922863E+02  0.89477303739E+02  0.00000000000E+00 0. -1.
        -13    1    5    5    0    0 -0.84328310450E+02  0.10338415861E+03 -0.83712311183E+02  0.15750333088E+03  0.00000000000E+00 0.  1.
          4    1    6    6  503    0  0.14303362056E+03  0.18728576317E+03  0.30869629521E+03  0.38836577652E+03  0.00000000000E+00 0. -1.
         -4    1    6    6    0  503  0.31178746346E+03  0.28407866611E+03  0.72304364605E+03  0.83708077567E+03  0.00000000000E+00 0.  1.
<mgrwt>
<rscale>  0 0.21137996E+04</rscale>
<asrwt>0</asrwt>
<pdfrwt beam="1">  1        2 0.11338642E+00 0.21137996E+04</pdfrwt>
<pdfrwt beam="2">  1       -1 0.23317386E+00 0.21137996E+04</pdfrwt>
<totfact> 0.36236527E+00</totfact>
</mgrwt>
</event>
<event>
12    7  0.1675873E-007  0.1078809E+04  0.7818608E-02  0.9226095E-01
         -1   -1    0    0    0  501 -0.00000000000E+00  0.00000000000E+00  0.43345604259E+03  0.43345604259E+03  0.00000000000E+00 0.  1.
          2   -1    0    0  501    0  0.00000000000E+00 -0.00000000000E+00 -0.67125007548E+03  0.67125007548E+03  0.00000000000E+00 0. -1.
         24    2    1    2    0    0 -0.58657264909E+02 -0.65495704468E+02 -0.15115311844E+03  0.19055030598E+03  0.75708598356E+02 0.  0.
        254    2    1    2    0    0  0.58657264909E+02  0.65495704468E+02 -0.86640914455E+02  0.91415581209E+03  0.90578354958E+03 0.  0.
         23    2    4    4    0    0  0.15946470839E+03 -0.35905251210E+03  0.12262019160E+03  0.42176123881E+03  0.92190734374E+02 0.  0.
         23    2    4    4    0    0 -0.10080744348E+03  0.42454821657E+03 -0.20926110606E+03  0.49239457329E+03  0.90878360691E+02 0.  0.
          2    1    3    3  502    0 -0.38790563778E+02 -0.55993211313E+02 -0.15395438211E+03  0.16835052516E+03  0.00000000000E+00 0. -1.
         -1    1    3    3    0  502 -0.19866701131E+02 -0.95024931551E+01  0.28012636767E+01  0.22199780814E+02  0.00000000000E+00 0.  1.
         13    1    5    5    0    0  0.96383176932E+02 -0.12705690950E+03  0.21414658879E+02  0.16090917520E+03  0.00000000000E+00 0.  1.
        -13    1    5    5    0    0  0.63081531457E+02 -0.23199560260E+03  0.10120553272E+03  0.26085206361E+03  0.00000000000E+00 0. -1.
          2    1    6    6  503    0 -0.65354475704E+02  0.27343154763E+03 -0.18171869872E+03  0.33475021165E+03  0.00000000000E+00 0. -1.
         -2    1    6    6    0  503 -0.35452967776E+02  0.15111666894E+03 -0.27542407341E+02  0.15764436164E+03  0.00000000000E+00 0.  1.
<mgrwt>
<rscale>  0 0.10788093E+04</rscale>
<asrwt>0</asrwt>
<pdfrwt beam="1">  1        2 0.10326924E+00 0.10788093E+04</pdfrwt>
<pdfrwt beam="2">  1       -1 0.66685545E-01 0.10788093E+04</pdfrwt>
<totfact> 0.11179010E+02</totfact>
</mgrwt>
</event>
<event>
12    7  0.1675873E-007  0.1976988E+04  0.7818608E-02  0.8617456E-01
         -1   -1    0    0    0  501 -0.00000000000E+00  0.00000000000E+00  0.57231757244E+03  0.57231757244E+03  0.00000000000E+00 0.  1.
          2   -1    0    0  501    0  0.00000000000E+00 -0.00000000000E+00 -0.17073048549E+04  0.17073048549E+04  0.00000000000E+00 0. -1.
         24    2    1    2    0    0  0.67953223623E+03  0.16201078828E+03 -0.84966539606E+03  0.11028841226E+04  0.80065891769E+02 0.  0.
        254    2    1    2    0    0 -0.67953223623E+03 -0.16201078828E+03 -0.28532188635E+03  0.11767383047E+04  0.90293571383E+03 0.  0.
         23    2    4    4    0    0  0.78763103615E+02  0.16926133947E+03  0.13166609992E+03  0.24555615044E+03  0.90049062299E+02 0.  0.
         23    2    4    4    0    0 -0.75829533984E+03 -0.33127212774E+03 -0.41698798627E+03  0.93118215426E+03  0.92022707335E+02 0.  0.
          4    1    3    3  502    0  0.37476238666E+03  0.76040439113E+02 -0.52344453633E+03  0.64824623211E+03  0.00000000000E+00 0. -1.
         -3    1    3    3    0  502  0.30476984957E+03  0.85970349162E+02 -0.32622085974E+03  0.45463789049E+03  0.00000000000E+00 0.  1.
         13    1    5    5    0    0  0.84863606594E+02  0.17467208426E+03  0.13524573903E+03  0.23665075252E+03  0.00000000000E+00 0.  1.
        -13    1    5    5    0    0 -0.61005029788E+01 -0.54107447990E+01 -0.35796391059E+01  0.89053979138E+01  0.00000000000E+00 0. -1.
          2    1    6    6  503    0 -0.32050609695E+02  0.12292153581E+01 -0.50438484933E+01  0.32468337805E+02  0.00000000000E+00 0. -1.
         -2    1    6    6    0  503 -0.72624473015E+03 -0.33250134310E+03 -0.41194413778E+03  0.89871381645E+03  0.00000000000E+00 0.  1.
<mgrwt>
<rscale>  0 0.19769882E+04</rscale>
<asrwt>0</asrwt>
<pdfrwt beam="1">  1        2 0.26266229E+00 0.19769882E+04</pdfrwt>
<pdfrwt beam="2">  1       -1 0.88048857E-01 0.19769882E+04</pdfrwt>
<totfact> 0.13056393E+01</totfact>
</mgrwt>
</event>
<event>
12    7  0.1675873E-007  0.1884089E+04  0.7818608E-02  0.8662817E-01
          2   -1    0    0  501    0  0.00000000000E+00  0.00000000000E+00  0.16676468392E+04  0.16676468392E+04  0.00000000000E+00 0. -1.
         -1   -1    0    0    0  501 -0.00000000000E+00 -0.00000000000E+00 -0.53215581321E+03  0.53215581321E+03  0.00000000000E+00 0.  1.
         24    2    1    2    0    0 -0.37610557168E+03 -0.55303026694E+03  0.50055513078E+03  0.83921305222E+03  0.80157537809E+02 0.  0.
        254    2    1    2    0    0  0.37610557168E+03  0.55303026694E+03  0.63493589522E+03  0.13605896002E+04  0.10003812233E+04 0.  0.
         23    2    4    4    0    0 -0.29919780376E+03  0.37949201924E+03  0.34148524038E+03  0.59858775910E+03  0.90341670947E+02 0.  0.
         23    2    4    4    0    0  0.67530337543E+03  0.17353824770E+03  0.29345065484E+03  0.76200184109E+03  0.91560617700E+02 0.  0.
          2    1    3    3  502    0 -0.22738550258E+03 -0.38086968475E+03  0.36451079599E+03  0.57413761759E+03  0.00000000000E+00 0. -1.
         -1    1    3    3    0  502 -0.14872006910E+03 -0.17216058219E+03  0.13604433479E+03  0.26507543463E+03  0.00000000000E+00 0.  1.
         13    1    5    5    0    0 -0.24988437043E+03  0.33468124110E+03  0.25483212937E+03  0.48927818865E+03  0.00000000000E+00 0. -1.
        -13    1    5    5    0    0 -0.49313433325E+02  0.44810778134E+02  0.86653111016E+02  0.10930957045E+03  0.00000000000E+00 0.  1.
          4    1    6    6  503    0  0.30803378580E+03  0.11715763680E+03  0.16733779252E+03  0.36961150126E+03  0.00000000000E+00 0. -1.
         -4    1    6    6    0  503  0.36726958963E+03  0.56380610906E+02  0.12611286232E+03  0.39239033984E+03  0.00000000000E+00 0.  1.
<mgrwt>
<rscale>  0 0.18840891E+04</rscale>
<asrwt>0</asrwt>
<pdfrwt beam="1">  1        2 0.25656105E+00 0.18840891E+04</pdfrwt>
<pdfrwt beam="2">  1       -1 0.81870126E-01 0.18840891E+04</pdfrwt>
<totfact> 0.16210950E+01</totfact>
</mgrwt>
</event>
<event>
12    7  0.1675873E-007  0.2047378E+04  0.7818608E-02  0.8584785E-01
         -1   -1    0    0    0  501 -0.00000000000E+00  0.00000000000E+00  0.32327744485E+03  0.32327744485E+03  0.00000000000E+00 0.  1.
          2   -1    0    0  501    0  0.00000000000E+00 -0.00000000000E+00 -0.32416108248E+04  0.32416108248E+04  0.00000000000E+00 0. -1.
         24    2    1    2    0    0 -0.50619216234E+03 -0.55460453405E+03 -0.18056806176E+04  0.19572148051E+04  0.79941265916E+02 0.  0.
        254    2    1    2    0    0  0.50619216234E+03  0.55460453405E+03 -0.11126527623E+04  0.16076734646E+04  0.88476047874E+03 0.  0.
         23    2    4    4    0    0  0.99192190857E+02  0.56662261474E+03 -0.22063341708E+03  0.62291843819E+03  0.91912989566E+02 0.  0.
         23    2    4    4    0    0  0.40699997148E+03 -0.12018080689E+02 -0.89201934523E+03  0.98475502636E+03  0.90832475554E+02 0.  0.
          4    1    3    3  502    0 -0.50631624000E+03 -0.55283126111E+03 -0.17792910952E+04  0.19307654802E+04  0.00000000000E+00 0. -1.
         -3    1    3    3    0  502  0.12407766230E+00 -0.17732729366E+01 -0.26389522445E+02  0.26449324888E+02  0.00000000000E+00 0.  1.
         13    1    5    5    0    0 -0.70689448658E+01  0.91393705376E+02 -0.62406179336E+02  0.11089323957E+03  0.00000000000E+00 0.  1.
        -13    1    5    5    0    0  0.10626113572E+03  0.47522890936E+03 -0.15822723774E+03  0.51202519862E+03  0.00000000000E+00 0. -1.
          4    1    6    6  503    0  0.67055932213E+02 -0.33940294726E+02 -0.13225014163E+03  0.15211358129E+03  0.00000000000E+00 0.  1.
         -4    1    6    6    0  503  0.33994403927E+03  0.21922214037E+02 -0.75976920360E+03  0.83264144507E+03  0.00000000000E+00 0. -1.
<mgrwt>
<rscale>  0 0.20473785E+04</rscale>
<asrwt>0</asrwt>
<pdfrwt beam="1">  1        2 0.49870935E+00 0.20473785E+04</pdfrwt>
<pdfrwt beam="2">  1       -1 0.49734992E-01 0.20473785E+04</pdfrwt>
<totfact> 0.52186159E+00</totfact>
</mgrwt>
</event>
<event>
12    7  0.1675873E-007  0.2373807E+04  0.7818608E-02  0.8449375E-01
         -1   -1    0    0    0  501 -0.00000000000E+00  0.00000000000E+00  0.93532774146E+03  0.93532774146E+03  0.00000000000E+00 0.  1.
          2   -1    0    0  501    0  0.00000000000E+00 -0.00000000000E+00 -0.15061455065E+04  0.15061455065E+04  0.00000000000E+00 0. -1.
         24    2    1    2    0    0 -0.28664677613E+03 -0.86072472547E+03  0.23594422485E+03  0.94080893825E+03  0.80239352840E+02 0.  0.
        254    2    1    2    0    0  0.28664677613E+03  0.86072472547E+03 -0.80676198991E+03  0.15006643097E+04  0.88210828974E+03 0.  0.
         23    2    4    4    0    0  0.48660455972E+03  0.36667131998E+03 -0.73033754809E+03  0.95537321852E+03  0.90073292764E+02 0.  0.
         23    2    4    4    0    0 -0.19995778358E+03  0.49405340549E+03 -0.76424441818E+02  0.54529109121E+03  0.86196265363E+02 0.  0.
          2    1    3    3  502    0 -0.26148756493E+03 -0.78404474867E+03  0.19041874663E+03  0.84815164540E+03  0.00000000000E+00 0. -1.
         -1    1    3    3    0  502 -0.25159211206E+02 -0.76679976800E+02  0.45525478220E+02  0.92657292847E+02  0.00000000000E+00 0.  1.
         13    1    5    5    0    0  0.18836461672E+03  0.88657132078E+02 -0.24667617936E+03  0.32278546027E+03  0.00000000000E+00 0.  1.
        -13    1    5    5    0    0  0.29823994300E+03  0.27801418791E+03 -0.48366136873E+03  0.63258775824E+03  0.00000000000E+00 0. -1.
          3    1    6    6  503    0 -0.83659069564E+02  0.16092935633E+03  0.11236851561E+02  0.18172331849E+03  0.00000000000E+00 0. -1.
         -3    1    6    6    0  503 -0.11629871402E+03  0.33312404915E+03 -0.87661293379E+02  0.36356777272E+03  0.00000000000E+00 0.  1.
<mgrwt>
<rscale>  0 0.23738068E+04</rscale>
<asrwt>0</asrwt>
<pdfrwt beam="1">  1        2 0.23171469E+00 0.23738068E+04</pdfrwt>
<pdfrwt beam="2">  1       -1 0.14389658E+00 0.23738068E+04</pdfrwt>
<totfact> 0.50403083E+00</totfact>
</mgrwt>
</event>
<event>
12    7  0.1675873E-007  0.1077083E+04  0.7818608E-02  0.9227821E-01
          2   -1    0    0  501    0  0.00000000000E+00  0.00000000000E+00  0.16495987787E+04  0.16495987787E+04  0.00000000000E+00 0. -1.
         -1   -1    0    0    0  501 -0.00000000000E+00 -0.00000000000E+00 -0.17581662861E+03  0.17581662861E+03  0.00000000000E+00 0.  1.
         24    2    1    2    0    0 -0.12260180223E+03  0.78802438079E+02  0.23519324717E+03  0.28805598906E+03  0.80120928367E+02 0.  0.
        254    2    1    2    0    0  0.12260180223E+03 -0.78802438079E+02  0.12385889029E+04  0.15373594182E+04  0.89896078016E+03 0.  0.
         23    2    4    4    0    0 -0.19210769351E+03  0.32063124360E+03  0.63810212784E+03  0.74504050840E+03  0.90560881880E+02 0.  0.
         23    2    4    4    0    0  0.31470949574E+03 -0.39943368168E+03  0.60048677504E+03  0.79231890981E+03  0.92712216410E+02 0.  0.
          4    1    3    3  502    0 -0.55657716244E+02  0.26518266954E+02  0.17043781796E+03  0.18124582657E+03  0.00000000000E+00 0. -1.
         -3    1    3    3    0  502 -0.66944085984E+02  0.52284171126E+02  0.64755429217E+02  0.10681016249E+03  0.00000000000E+00 0.  1.
         13    1    5    5    0    0 -0.14372935672E+02  0.10545397481E+02  0.82522100765E+02  0.84425611058E+02  0.00000000000E+00 0. -1.
        -13    1    5    5    0    0 -0.17773475783E+03  0.31008584612E+03  0.55558002707E+03  0.66061489734E+03  0.00000000000E+00 0.  1.
          1    1    6    6  503    0  0.10396191937E+03 -0.77719159715E+02  0.18682788919E+03  0.22749287603E+03  0.00000000000E+00 0. -1.
         -1    1    6    6    0  503  0.21074757637E+03 -0.32171452197E+03  0.41365888585E+03  0.56482603378E+03  0.00000000000E+00 0.  1.
<mgrwt>
<rscale>  0 0.10770829E+04</rscale>
<asrwt>0</asrwt>
<pdfrwt beam="1">  1        2 0.25378442E+00 0.10770829E+04</pdfrwt>
<pdfrwt beam="2">  1       -1 0.27048713E-01 0.10770829E+04</pdfrwt>
<totfact> 0.14485856E+02</totfact>
</mgrwt>
</event>
<event>
12    7  0.1675873E-007  0.1218769E+04  0.7818608E-02  0.9096585E-01
          2   -1    0    0  501    0  0.00000000000E+00  0.00000000000E+00  0.22789382977E+04  0.22789382977E+04  0.00000000000E+00 0. -1.
         -1   -1    0    0    0  501 -0.00000000000E+00 -0.00000000000E+00 -0.16294849544E+03  0.16294849544E+03  0.00000000000E+00 0.  1.
         24    2    1    2    0    0 -0.23451367502E+03 -0.65722595803E+02  0.67434308134E+03  0.72181703793E+03  0.83457303617E+02 0.  0.
        254    2    1    2    0    0  0.23451367502E+03  0.65722595803E+02  0.14416467209E+04  0.17200697552E+04  0.90607867841E+03 0.  0.
         23    2    4    4    0    0 -0.10652937339E+02 -0.17067880559E+03 -0.39669187887E+02  0.19738026661E+03  0.90225192864E+02 0.  0.
         23    2    4    4    0    0  0.24516661236E+03  0.23640140139E+03  0.14813159088E+04  0.15226894886E+04  0.91072315295E+02 0.  0.
          4    1    3    3  502    0 -0.17390140301E+03 -0.96379391804E+01  0.48171837438E+03  0.51223742547E+03  0.00000000000E+00 0. -1.
         -1    1    3    3    0  502 -0.60612272008E+02 -0.56084656623E+02  0.19262470696E+03  0.20957961246E+03  0.00000000000E+00 0.  1.
         13    1    5    5    0    0  0.33479555470E+01 -0.77690307396E+01  0.21264260974E+02  0.22885266871E+02  0.00000000000E+00 0.  1.
        -13    1    5    5    0    0 -0.14000892886E+02 -0.16290977485E+03 -0.60933448861E+02  0.17449499974E+03  0.00000000000E+00 0. -1.
          4    1    6    6  503    0  0.77014329029E+02  0.22885626136E+02  0.37016133465E+03  0.37878011092E+03  0.00000000000E+00 0. -1.
         -4    1    6    6    0  503  0.16815228333E+03  0.21351577526E+03  0.11111545741E+04  0.11439093776E+04  0.00000000000E+00 0.  1.
<mgrwt>
<rscale>  0 0.12187692E+04</rscale>
<asrwt>0</asrwt>
<pdfrwt beam="1">  1        2 0.35060587E+00 0.12187692E+04</pdfrwt>
<pdfrwt beam="2">  1       -1 0.25069001E-01 0.12187692E+04</pdfrwt>
<totfact> 0.73187664E+01</totfact>
</mgrwt>
</event>
<event>
12    7  0.1675873E-007  0.1312839E+04  0.7818608E-02  0.9019445E-01
          2   -1    0    0  501    0  0.00000000000E+00  0.00000000000E+00  0.17126343239E+04  0.17126343239E+04  0.00000000000E+00 0. -1.
         -1   -1    0    0    0  501 -0.00000000000E+00 -0.00000000000E+00 -0.25159273570E+03  0.25159273570E+03  0.00000000000E+00 0.  1.
         24    2    1    2    0    0  0.25481025307E+02  0.18103125521E+03 -0.39053118303E+02  0.20357800815E+03  0.80605591231E+02 0.  0.
        254    2    1    2    0    0 -0.25481025307E+02 -0.18103125521E+03  0.15000947065E+04  0.17606490515E+04  0.90342645295E+03 0.  0.
         23    2    4    4    0    0  0.31180719434E+02  0.18260376294E+03  0.13283651039E+04  0.13443765367E+04  0.92076336921E+02 0.  0.
         23    2    4    4    0    0 -0.56661744741E+02 -0.36363501815E+03  0.17172960264E+03  0.41627251473E+03  0.91382549498E+02 0.  0.
          2    1    3    3  502    0  0.47463303715E+02  0.88220635500E+02  0.86851670511E+00  0.10018183492E+03  0.00000000000E+00 0. -1.
         -1    1    3    3    0  502 -0.21982278408E+02  0.92810619713E+02 -0.39921635009E+02  0.10339617322E+03  0.00000000000E+00 0.  1.
         13    1    5    5    0    0  0.19603498228E+02  0.11162888836E+02  0.37300934868E+03  0.37369089022E+03  0.00000000000E+00 0. -1.
        -13    1    5    5    0    0  0.11577221207E+02  0.17144087410E+03  0.95535575521E+03  0.97068564653E+03  0.00000000000E+00 0.  1.
          3    1    6    6  503    0 -0.27270606518E+02 -0.91160830401E+02  0.45722042198E+01  0.95262206728E+02  0.00000000000E+00 0. -1.
         -3    1    6    6    0  503 -0.29391138223E+02 -0.27247418775E+03  0.16715739842E+03  0.32101030800E+03  0.00000000000E+00 0.  1.
<mgrwt>
<rscale>  0 0.13128387E+04</rscale>
<asrwt>0</asrwt>
<pdfrwt beam="1">  1        2 0.26348220E+00 0.13128387E+04</pdfrwt>
<pdfrwt beam="2">  1       -1 0.38706576E-01 0.13128387E+04</pdfrwt>
<totfact> 0.69629622E+01</totfact>
</mgrwt>
</event>
<event>
12    7  0.1675873E-007  0.3328612E+04  0.7818608E-02  0.8155653E-01
          2   -1    0    0  501    0  0.00000000000E+00  0.00000000000E+00  0.19617615178E+04  0.19617615178E+04  0.00000000000E+00 0. -1.
         -1   -1    0    0    0  501 -0.00000000000E+00 -0.00000000000E+00 -0.14119527552E+04  0.14119527552E+04  0.00000000000E+00 0.  1.
         24    2    1    2    0    0  0.51712562503E+03  0.12171734685E+04 -0.55052966536E+03  0.14347195858E+04  0.80045067666E+02 0.  0.
        254    2    1    2    0    0 -0.51712562503E+03 -0.12171734685E+04  0.11003384280E+04  0.19389946872E+04  0.89444148852E+03 0.  0.
         23    2    4    4    0    0 -0.56360415315E+03 -0.60276130615E+03  0.10143406434E+04  0.13106797422E+04  0.89574617540E+02 0.  0.
         23    2    4    4    0    0  0.46478528118E+02 -0.61441216239E+03  0.85997784641E+02  0.62831494506E+03  0.87872022624E+02 0.  0.
          4    1    3    3  502    0  0.14313305412E+03  0.39253073890E+03 -0.14137633894E+03  0.44108357641E+03  0.00000000000E+00 0. -1.
         -3    1    3    3    0  502  0.37399257091E+03  0.82464272964E+03 -0.40915332642E+03  0.99363600939E+03  0.00000000000E+00 0.  1.
         13    1    5    5    0    0 -0.40994635600E+03 -0.41864882683E+03  0.65693273573E+03  0.88027465844E+03  0.00000000000E+00 0. -1.
        -13    1    5    5    0    0 -0.15365779715E+03 -0.18411247932E+03  0.35740790762E+03  0.43040508372E+03  0.00000000000E+00 0.  1.
          4    1    6    6  503    0 -0.13110855506E+02 -0.10521056283E+03  0.40970199539E+02  0.11366492121E+03  0.00000000000E+00 0.  1.
         -4    1    6    6    0  503  0.59589383625E+02 -0.50920159956E+03  0.45027585102E+02  0.51465002386E+03  0.00000000000E+00 0. -1.
<mgrwt>
<rscale>  0 0.33286121E+04</rscale>
<asrwt>0</asrwt>
<pdfrwt beam="1">  1        2 0.30180947E+00 0.33286121E+04</pdfrwt>
<pdfrwt beam="2">  1       -1 0.21722350E+00 0.33286121E+04</pdfrwt>
<totfact> 0.76406377E-01</totfact>
</mgrwt>
</event>
<event>
12    7  0.1675873E-007  0.1854358E+04  0.7818608E-02  0.8677915E-01
          2   -1    0    0  501    0  0.00000000000E+00  0.00000000000E+00  0.14719318764E+04  0.14719318764E+04  0.00000000000E+00 0. -1.
         -1   -1    0    0    0  501 -0.00000000000E+00 -0.00000000000E+00 -0.58403582505E+03  0.58403582505E+03  0.00000000000E+00 0.  1.
         24    2    1    2    0    0 -0.35041584638E+03 -0.41554949893E+03  0.83927079070E+03  0.10031320683E+04  0.80161305213E+02 0.  0.
        254    2    1    2    0    0  0.35041584638E+03  0.41554949893E+03  0.48625260615E+02  0.10528356331E+04  0.90034760119E+03 0.  0.
         23    2    4    4    0    0  0.45842865959E+03 -0.12816086661E+03  0.72106961026E+02  0.49005051781E+03  0.91477060035E+02 0.  0.
         23    2    4    4    0    0 -0.10801281321E+03  0.54371036555E+03 -0.23481700411E+02  0.56278511532E+03  0.94276011514E+02 0.  0.
          2    1    3    3  502    0 -0.30567560946E+03 -0.32383064547E+03  0.64666922109E+03  0.78516555367E+03  0.00000000000E+00 0. -1.
         -1    1    3    3    0  502 -0.44740236924E+02 -0.91718853463E+02  0.19260156961E+03  0.21796651462E+03  0.00000000000E+00 0.  1.
         13    1    5    5    0    0  0.57638258836E+02 -0.48509290086E+02  0.13872261572E+01  0.75347491682E+02  0.00000000000E+00 0.  1.
        -13    1    5    5    0    0  0.40079040076E+03 -0.79651576528E+02  0.70719734869E+02  0.41470302613E+03  0.00000000000E+00 0. -1.
          2    1    6    6  503    0 -0.73264555222E+02  0.50390424826E+03 -0.26200687077E+02  0.50987612463E+03  0.00000000000E+00 0. -1.
         -2    1    6    6    0  503 -0.34748257992E+02  0.39806117289E+02  0.27189866655E+01  0.52908990688E+02  0.00000000000E+00 0.  1.
<mgrwt>
<rscale>  0 0.18543581E+04</rscale>
<asrwt>0</asrwt>
<pdfrwt beam="1">  1        2 0.22645106E+00 0.18543581E+04</pdfrwt>
<pdfrwt beam="2">  1       -1 0.89851666E-01 0.18543581E+04</pdfrwt>
<totfact> 0.17098425E+01</totfact>
</mgrwt>
</event>
<event>
12    7  0.1675873E-007  0.3569336E+04  0.7818608E-02  0.8097552E-01
          2   -1    0    0  501    0  0.00000000000E+00  0.00000000000E+00  0.15071400352E+04  0.15071400352E+04  0.00000000000E+00 0. -1.
         -1   -1    0    0    0  501 -0.00000000000E+00 -0.00000000000E+00 -0.21132999617E+04  0.21132999617E+04  0.00000000000E+00 0.  1.
         24    2    1    2    0    0  0.62848317141E+03  0.44045717841E+03  0.12159458548E+04  0.14396384175E+04  0.70998791378E+02 0.  0.
        254    2    1    2    0    0 -0.62848317141E+03 -0.44045717841E+03 -0.18221057813E+04  0.21808015794E+04  0.92023498494E+03 0.  0.
         23    2    4    4    0    0  0.14234424034E+03  0.10064727072E+03 -0.11139025266E+03  0.22586990313E+03  0.90651359006E+02 0.  0.
         23    2    4    4    0    0 -0.77082741175E+03 -0.54110444913E+03 -0.17107155287E+04  0.19549316762E+04  0.90781689724E+02 0.  0.
          2    1    3    3  502    0  0.37612442693E+03  0.23966832806E+03  0.75936633059E+03  0.88065186994E+03  0.00000000000E+00 0. -1.
         -1    1    3    3    0  502  0.25235874448E+03  0.20078885035E+03  0.45657952426E+03  0.55898654753E+03  0.00000000000E+00 0.  1.
         13    1    5    5    0    0  0.15210617588E+03  0.79154436237E+02 -0.88385842571E+02  0.19290871075E+03  0.00000000000E+00 0. -1.
        -13    1    5    5    0    0 -0.97619355331E+01  0.21492834487E+02 -0.23004410094E+02  0.32961192385E+02  0.00000000000E+00 0.  1.
          3    1    6    6  503    0 -0.56286801963E+03 -0.38287802101E+03 -0.11514294740E+04  0.13376119841E+04  0.00000000000E+00 0. -1.
         -3    1    6    6    0  503 -0.20795939212E+03 -0.15822642812E+03 -0.55928605467E+03  0.61731969212E+03  0.00000000000E+00 0.  1.
<mgrwt>
<rscale>  0 0.35693355E+04</rscale>
<asrwt>0</asrwt>
<pdfrwt beam="1">  1        2 0.23186770E+00 0.35693355E+04</pdfrwt>
<pdfrwt beam="2">  1       -1 0.32512307E+00 0.35693355E+04</pdfrwt>
<totfact> 0.26503471E-01</totfact>
</mgrwt>
</event>
<event>
12    7  0.1675873E-007  0.1980458E+04  0.7818608E-02  0.8615812E-01
          2   -1    0    0  501    0  0.00000000000E+00  0.00000000000E+00  0.25691368783E+04  0.25691368783E+04  0.00000000000E+00 0. -1.
         -1   -1    0    0    0  501 -0.00000000000E+00 -0.00000000000E+00 -0.38166635497E+03  0.38166635497E+03  0.00000000000E+00 0.  1.
         24    2    1    2    0    0  0.50358313114E+03  0.18454251600E+03  0.16896135555E+02  0.54262445770E+03  0.80646838231E+02 0.  0.
        254    2    1    2    0    0 -0.50358313114E+03 -0.18454251600E+03  0.21705743878E+04  0.24081787756E+04  0.89458366408E+03 0.  0.
         23    2    4    4    0    0 -0.51362129745E+02  0.26069815453E+03  0.22208631276E+03  0.35705704716E+03  0.86981655905E+02 0.  0.
         23    2    4    4    0    0 -0.45222100139E+03 -0.44524067053E+03  0.19484880750E+04  0.20511217284E+04  0.88042475376E+02 0.  0.
          2    1    3    3  502    0  0.43237037323E+01  0.52491603253E+01 -0.92761907365E+01  0.11501991682E+02  0.00000000000E+00 0. -1.
         -1    1    3    3    0  502  0.49925942741E+03  0.17929335567E+03  0.26172326291E+02  0.53112246602E+03  0.00000000000E+00 0.  1.
         13    1    5    5    0    0 -0.74413121070E+02  0.18436720714E+03  0.17202259146E+03  0.26290749634E+03  0.00000000000E+00 0. -1.
        -13    1    5    5    0    0  0.23050991325E+02  0.76330947387E+02  0.50063721304E+02  0.94149550827E+02  0.00000000000E+00 0.  1.
          4    1    6    6  503    0 -0.26486200832E+03 -0.31935490058E+03  0.12464642098E+04  0.13137018164E+04  0.00000000000E+00 0. -1.
         -4    1    6    6    0  503 -0.18735899308E+03 -0.12588576994E+03  0.70202386519E+03  0.73741991203E+03  0.00000000000E+00 0.  1.
<mgrwt>
<rscale>  0 0.19804576E+04</rscale>
<asrwt>0</asrwt>
<pdfrwt beam="1">  1        2 0.39525182E+00 0.19804576E+04</pdfrwt>
<pdfrwt beam="2">  1       -1 0.58717903E-01 0.19804576E+04</pdfrwt>
<totfact> 0.98865798E+00</totfact>
</mgrwt>
</event>
<event>
12    7  0.1675873E-007  0.3271856E+04  0.7818608E-02  0.8170094E-01
         -1   -1    0    0    0  501 -0.00000000000E+00  0.00000000000E+00  0.13557845090E+04  0.13557845090E+04  0.00000000000E+00 0.  1.
          2   -1    0    0  501    0  0.00000000000E+00 -0.00000000000E+00 -0.19739567413E+04  0.19739567413E+04  0.00000000000E+00 0. -1.
         24    2    1    2    0    0 -0.16148594048E+01 -0.13287465240E+04  0.44657480293E+03  0.14040783849E+04  0.80231686729E+02 0.  0.
        254    2    1    2    0    0  0.16148594048E+01  0.13287465240E+04 -0.10647470351E+04  0.19256628654E+04  0.89940051682E+03 0.  0.
         23    2    4    4    0    0  0.17785351890E+02  0.13834168954E+04 -0.11393396796E+04  0.17947108438E+04  0.93453099358E+02 0.  0.
         23    2    4    4    0    0 -0.16170492485E+02 -0.54670371478E+02  0.74592644482E+02  0.13095202166E+03  0.91290936136E+02 0.  0.
          4    1    3    3  502    0  0.20296484284E+02 -0.57481643326E+03  0.22889212051E+03  0.61904562195E+03  0.00000000000E+00 0. -1.
         -3    1    3    3    0  502 -0.21911343689E+02 -0.75393009070E+03  0.21768268242E+03  0.78503276293E+03  0.00000000000E+00 0.  1.
         13    1    5    5    0    0 -0.29193985184E+02  0.30770417006E+03 -0.28081459699E+03  0.41760146423E+03  0.00000000000E+00 0. -1.
        -13    1    5    5    0    0  0.46979337073E+02  0.10757127254E+04 -0.85852508264E+03  0.13771093795E+04  0.00000000000E+00 0.  1.
          4    1    6    6  503    0 -0.32038053525E+02  0.13951888979E+02  0.37839562448E+02  0.51506548768E+02  0.00000000000E+00 0. -1.
         -4    1    6    6    0  503  0.15867561040E+02 -0.68622260457E+02  0.36753082035E+02  0.79445472890E+02  0.00000000000E+00 0.  1.
<mgrwt>
<rscale>  0 0.32718557E+04</rscale>
<asrwt>0</asrwt>
<pdfrwt beam="1">  1        2 0.30368565E+00 0.32718557E+04</pdfrwt>
<pdfrwt beam="2">  1       -1 0.20858223E+00 0.32718557E+04</pdfrwt>
<totfact> 0.86464853E-01</totfact>
</mgrwt>
</event>
<event>
12    7  0.1675873E-007  0.1436341E+04  0.7818608E-02  0.8927925E-01
          2   -1    0    0  501    0  0.00000000000E+00  0.00000000000E+00  0.39365972485E+03  0.39365972485E+03  0.00000000000E+00 0. -1.
         -1   -1    0    0    0  501 -0.00000000000E+00 -0.00000000000E+00 -0.13101896154E+04  0.13101896154E+04  0.00000000000E+00 0.  1.
         24    2    1    2    0    0 -0.36588752340E+03  0.10265571525E+02 -0.58195375216E+03  0.69214368209E+03  0.80085237420E+02 0.  0.
        254    2    1    2    0    0  0.36588752340E+03 -0.10265571525E+02 -0.33457613841E+03  0.10117056582E+04  0.88183223159E+03 0.  0.
         23    2    4    4    0    0 -0.27248700161E+03 -0.74647485095E+02 -0.16759385875E+03  0.34127768654E+03  0.92527535136E+02 0.  0.
         23    2    4    4    0    0  0.63837452502E+03  0.64381913571E+02 -0.16698227966E+03  0.67042797165E+03  0.99616858342E+02 0.  0.
          2    1    3    3  502    0 -0.25759604246E+03 -0.13850413327E+02 -0.34770709939E+03  0.43295240155E+03  0.00000000000E+00 0. -1.
         -3    1    3    3    0  502 -0.10829148094E+03  0.24115984852E+02 -0.23424665278E+03  0.25919128054E+03  0.00000000000E+00 0.  1.
         13    1    5    5    0    0 -0.42834853449E+02 -0.40605524892E+02 -0.63972534130E+02  0.87040900988E+02  0.00000000000E+00 0. -1.
        -13    1    5    5    0    0 -0.22965214816E+03 -0.34041960203E+02 -0.10362132462E+03  0.25423678555E+03  0.00000000000E+00 0.  1.
          1    1    6    6  503    0  0.63220793914E+03  0.51455230873E+02 -0.16768343509E+03  0.65608860186E+03  0.00000000000E+00 0. -1.
         -1    1    6    6    0  503  0.61665858805E+01  0.12926682698E+02  0.70115542811E+00  0.14339369788E+02  0.00000000000E+00 0.  1.
<mgrwt>
<rscale>  0 0.14363410E+04</rscale>
<asrwt>0</asrwt>
<pdfrwt beam="1">  1        2 0.60563035E-01 0.14363410E+04</pdfrwt>
<pdfrwt beam="2">  1       -1 0.20156763E+00 0.14363410E+04</pdfrwt>
<totfact> 0.13201699E+01</totfact>
</mgrwt>
</event>
<event>
12    7  0.1675873E-007  0.2353305E+04  0.7818608E-02  0.8457195E-01
          2   -1    0    0  501    0  0.00000000000E+00  0.00000000000E+00  0.22484899150E+04  0.22484899150E+04  0.00000000000E+00 0. -1.
         -1   -1    0    0    0  501 -0.00000000000E+00 -0.00000000000E+00 -0.61575133267E+03  0.61575133267E+03  0.00000000000E+00 0.  1.
         24    2    1    2    0    0 -0.33838443398E+03  0.29357064294E+03 -0.39158809722E+03  0.60051848462E+03  0.81200153545E+02 0.  0.
        254    2    1    2    0    0  0.33838443398E+03 -0.29357064294E+03  0.20243266795E+04  0.22637227631E+04  0.90876536846E+03 0.  0.
         23    2    4    4    0    0  0.74735554982E+02  0.20088190815E+03  0.92926728108E+02  0.25048980020E+03  0.90392582714E+02 0.  0.
         23    2    4    4    0    0  0.26364887899E+03 -0.49445255109E+03  0.19313999514E+04  0.20132329629E+04  0.93846329921E+02 0.  0.
          2    1    3    3  502    0 -0.37446064038E+02  0.53766615726E+02 -0.91500116750E+02  0.11254033963E+03  0.00000000000E+00 0. -1.
         -1    1    3    3    0  502 -0.30093836994E+03  0.23980402722E+03 -0.30008798047E+03  0.48797814499E+03  0.00000000000E+00 0.  1.
         13    1    5    5    0    0  0.87356629843E+02  0.19539183941E+03  0.72732360714E+02  0.22605120655E+03  0.00000000000E+00 0.  1.
        -13    1    5    5    0    0 -0.12621074860E+02  0.54900687313E+01  0.20194367394E+02  0.24438593653E+02  0.00000000000E+00 0. -1.
          1    1    6    6  503    0  0.15862736344E+03 -0.36322388886E+03  0.14565483648E+04  0.15095122963E+04  0.00000000000E+00 0. -1.
         -1    1    6    6    0  503  0.10502151555E+03 -0.13122866223E+03  0.47485158666E+03  0.50372066651E+03  0.00000000000E+00 0.  1.
<mgrwt>
<rscale>  0 0.23533046E+04</rscale>
<asrwt>0</asrwt>
<pdfrwt beam="1">  1        2 0.34592152E+00 0.23533046E+04</pdfrwt>
<pdfrwt beam="2">  1       -1 0.94730976E-01 0.23533046E+04</pdfrwt>
<totfact> 0.53655990E+00</totfact>
</mgrwt>
</event>
<event>
12    7  0.1675873E-007  0.1447567E+04  0.7818608E-02  0.8920089E-01
         -1   -1    0    0    0  501 -0.00000000000E+00  0.00000000000E+00  0.25801092119E+03  0.25801092119E+03  0.00000000000E+00 0.  1.
          2   -1    0    0  501    0  0.00000000000E+00 -0.00000000000E+00 -0.20303904691E+04  0.20303904691E+04  0.00000000000E+00 0. -1.
         24    2    1    2    0    0  0.10892032247E+03 -0.36475232884E+03 -0.89273056643E+03  0.97373208643E+03  0.79236442732E+02 0.  0.
        254    2    1    2    0    0 -0.10892032247E+03  0.36475232884E+03 -0.87964898149E+03  0.13146693039E+04  0.89981395293E+03 0.  0.
         23    2    4    4    0    0  0.11980556347E+03  0.23902979969E+03 -0.98066008669E+03  0.10205665018E+04  0.91504976306E+02 0.  0.
         23    2    4    4    0    0 -0.22872588594E+03  0.12572252915E+03  0.10101110520E+03  0.29410280213E+03  0.90396513278E+02 0.  0.
          2    1    3    3  502    0  0.25437664357E+02 -0.80478986233E+02 -0.29135471568E+03  0.30333399470E+03  0.00000000000E+00 0. -1.
         -1    1    3    3    0  502  0.83482658110E+02 -0.28427334261E+03 -0.60137585075E+03  0.67039809173E+03  0.00000000000E+00 0.  1.
         13    1    5    5    0    0  0.70719665126E+02  0.49863621957E+02 -0.27023091200E+03  0.28374706630E+03  0.00000000000E+00 0. -1.
        -13    1    5    5    0    0  0.49085898343E+02  0.18916617774E+03 -0.71042917469E+03  0.73681943546E+03  0.00000000000E+00 0.  1.
          1    1    6    6  503    0 -0.25051103776E+01  0.30736954097E+02  0.12409877497E+02  0.33242156739E+02  0.00000000000E+00 0. -1.
         -1    1    6    6    0  503 -0.22622077556E+03  0.94985575051E+02  0.88601227706E+02  0.26086064539E+03  0.00000000000E+00 0.  1.
<mgrwt>
<rscale>  0 0.14475675E+04</rscale>
<asrwt>0</asrwt>
<pdfrwt beam="1">  1        2 0.31236776E+00 0.14475675E+04</pdfrwt>
<pdfrwt beam="2">  1       -1 0.39693989E-01 0.14475675E+04</pdfrwt>
<totfact> 0.43882491E+01</totfact>
</mgrwt>
</event>
<event>
12    7  0.1675873E-007  0.1874274E+04  0.7818608E-02  0.8667769E-01
          2   -1    0    0  501    0  0.00000000000E+00  0.00000000000E+00  0.17007881062E+04  0.17007881062E+04  0.00000000000E+00 0. -1.
         -1   -1    0    0    0  501 -0.00000000000E+00 -0.00000000000E+00 -0.51636398734E+03  0.51636398734E+03  0.00000000000E+00 0.  1.
         24    2    1    2    0    0 -0.41625056742E+03 -0.19059412395E+03 -0.19587529566E+03  0.50400648604E+03  0.77876514794E+02 0.  0.
        254    2    1    2    0    0  0.41625056742E+03  0.19059412395E+03  0.13802994145E+04  0.17131456075E+04  0.90556653194E+03 0.  0.
         23    2    4    4    0    0  0.11869856208E+03 -0.29948055284E+03  0.89777103816E+03  0.95805614505E+03  0.90004388392E+02 0.  0.
         23    2    4    4    0    0  0.29755200534E+03  0.49007467679E+03  0.48252837636E+03  0.75508946244E+03  0.92822829012E+02 0.  0.
          2    1    3    3  502    0 -0.13669156013E+03 -0.29389292114E+02 -0.38786778483E+02  0.14509557984E+03  0.00000000000E+00 0. -1.
         -3    1    3    3    0  502 -0.27955900729E+03 -0.16120483183E+03 -0.15708851718E+03  0.35891090620E+03  0.00000000000E+00 0.  1.
         13    1    5    5    0    0  0.10494116717E+03 -0.25834301273E+03  0.66202846272E+03  0.71835607205E+03  0.00000000000E+00 0. -1.
        -13    1    5    5    0    0  0.13757394919E+02 -0.41137540109E+02  0.23574257544E+03  0.23970007300E+03  0.00000000000E+00 0.  1.
          1    1    6    6  503    0  0.23964135946E+03  0.42208854872E+03  0.44403336416E+03  0.65783915406E+03  0.00000000000E+00 0. -1.
         -1    1    6    6    0  503  0.57910645883E+02  0.67986128069E+02  0.38495012196E+02  0.97250308382E+02  0.00000000000E+00 0.  1.
<mgrwt>
<rscale>  0 0.18742740E+04</rscale>
<asrwt>0</asrwt>
<pdfrwt beam="1">  1        2 0.26165971E+00 0.18742740E+04</pdfrwt>
<pdfrwt beam="2">  1       -1 0.79440614E-01 0.18742740E+04</pdfrwt>
<totfact> 0.16581918E+01</totfact>
</mgrwt>
</event>
<event>
12    7  0.1675873E-007  0.1178159E+04  0.7818608E-02  0.9132191E-01
          2   -1    0    0  501    0  0.00000000000E+00  0.00000000000E+00  0.16434885918E+04  0.16434885918E+04  0.00000000000E+00 0. -1.
         -1   -1    0    0    0  501 -0.00000000000E+00 -0.00000000000E+00 -0.21114522425E+03  0.21114522425E+03  0.00000000000E+00 0.  1.
         24    2    1    2    0    0 -0.11702414883E+03  0.13970369208E+03  0.84383341275E+02  0.21568818237E+03  0.78670647253E+02 0.  0.
        254    2    1    2    0    0  0.11702414883E+03 -0.13970369208E+03  0.13479600263E+04  0.16389456337E+04  0.91429469250E+03 0.  0.
         23    2    4    4    0    0  0.35497571753E+03  0.91354922936E+02  0.12092708304E+04  0.12669280654E+04  0.91745843060E+02 0.  0.
         23    2    4    4    0    0 -0.23795156870E+03 -0.23105861502E+03  0.13868919594E+03  0.37201756831E+03  0.95673117643E+02 0.  0.
          2    1    3    3  502    0 -0.72712226726E+01  0.51018037271E+01  0.33578897529E+02  0.34733865890E+02  0.00000000000E+00 0. -1.
         -1    1    3    3    0  502 -0.10975292616E+03  0.13460188836E+03  0.50804443746E+02  0.18095431648E+03  0.00000000000E+00 0.  1.
         13    1    5    5    0    0  0.13467529261E+03  0.35488660226E+02  0.31847168786E+03  0.34759329023E+03  0.00000000000E+00 0.  1.
        -13    1    5    5    0    0  0.22030042492E+03  0.55866262710E+02  0.89079914252E+03  0.91933477518E+03  0.00000000000E+00 0. -1.
          1    1    6    6  503    0 -0.20895982964E+03 -0.20421494249E+03  0.15322477366E+03  0.32991784493E+03  0.00000000000E+00 0. -1.
         -1    1    6    6    0  503 -0.28991739061E+02 -0.26843672529E+02 -0.14535577728E+02  0.42099723378E+02  0.00000000000E+00 0.  1.
<mgrwt>
<rscale>  0 0.11781592E+04</rscale>
<asrwt>0</asrwt>
<pdfrwt beam="1">  1        2 0.25284439E+00 0.11781592E+04</pdfrwt>
<pdfrwt beam="2">  1       -1 0.32483882E-01 0.11781592E+04</pdfrwt>
<totfact> 0.10521592E+02</totfact>
</mgrwt>
</event>
<event>
12    7  0.1675873E-007  0.1695618E+04  0.7818608E-02  0.8763868E-01
         -1   -1    0    0    0  501 -0.00000000000E+00  0.00000000000E+00  0.84377639598E+03  0.84377639598E+03  0.00000000000E+00 0.  1.
          2   -1    0    0  501    0  0.00000000000E+00 -0.00000000000E+00 -0.85186059462E+03  0.85186059462E+03  0.00000000000E+00 0. -1.
         24    2    1    2    0    0 -0.49900759277E+03 -0.15648673916E+03 -0.30920379570E+03  0.61271578642E+03  0.79479371354E+02 0.  0.
        254    2    1    2    0    0  0.49900759277E+03  0.15648673916E+03  0.30111959707E+03  0.10829212042E+04  0.89919333047E+03 0.  0.
         23    2    4    4    0    0 -0.14287011584E+02  0.43009808967E+03  0.20822364110E+03  0.48673016016E+03  0.91436746760E+02 0.  0.
         23    2    4    4    0    0  0.51329460435E+03 -0.27361135051E+03  0.92895955964E+02  0.59619104403E+03  0.92084636905E+02 0.  0.
          2    1    3    3  502    0 -0.28345910881E+03 -0.80215736347E+02 -0.21832004926E+03  0.36667052600E+03  0.00000000000E+00 0. -1.
         -1    1    3    3    0  502 -0.21554848396E+03 -0.76271002810E+02 -0.90883746442E+02  0.24604526042E+03  0.00000000000E+00 0.  1.
         13    1    5    5    0    0 -0.31169637289E+02  0.54894247091E+02  0.17561243632E+02  0.65523445653E+02  0.00000000000E+00 0. -1.
        -13    1    5    5    0    0  0.16882625704E+02  0.37520384258E+03  0.19066239747E+03  0.42120671451E+03  0.00000000000E+00 0.  1.
          2    1    6    6  503    0  0.81498666951E+02 -0.74343700462E+02 -0.59322491823E+01  0.11047266673E+03  0.00000000000E+00 0.  1.
         -2    1    6    6    0  503  0.43179593740E+03 -0.19926765005E+03  0.98828205146E+02  0.48571837730E+03  0.00000000000E+00 0. -1.
<mgrwt>
<rscale>  0 0.16956177E+04</rscale>
<asrwt>0</asrwt>
<pdfrwt beam="1">  1        2 0.13105548E+00 0.16956177E+04</pdfrwt>
<pdfrwt beam="2">  1       -1 0.12981175E+00 0.16956177E+04</pdfrwt>
<totfact> 0.17502838E+01</totfact>
</mgrwt>
</event>
<event>
12    7  0.1675873E-007  0.1250498E+04  0.7818608E-02  0.9069769E-01
         -1   -1    0    0    0  501 -0.00000000000E+00  0.00000000000E+00  0.63796873437E+03  0.63796873437E+03  0.00000000000E+00 0.  1.
          2   -1    0    0  501    0  0.00000000000E+00 -0.00000000000E+00 -0.61278315827E+03  0.61278315827E+03  0.00000000000E+00 0. -1.
         24    2    1    2    0    0 -0.14676613736E+03  0.69287015299E+02 -0.23661771365E+03  0.29783493251E+03  0.79854336422E+02 0.  0.
        254    2    1    2    0    0  0.14676613736E+03 -0.69287015299E+02  0.26180328975E+03  0.95291696012E+03  0.90175871540E+03 0.  0.
         23    2    4    4    0    0  0.35718032626E+03  0.18999292061E+03 -0.12664069583E+03  0.43309076378E+03  0.88626454748E+02 0.  0.
         23    2    4    4    0    0 -0.21041418889E+03 -0.25927993591E+03  0.38844398558E+03  0.51982619635E+03  0.88489142949E+02 0.  0.
          4    1    3    3  502    0 -0.15043350098E+02  0.17583755239E+01 -0.83510737808E+02  0.84873067553E+02  0.00000000000E+00 0. -1.
         -3    1    3    3    0  502 -0.13172278727E+03  0.67528639776E+02 -0.15310697584E+03  0.21296186496E+03  0.00000000000E+00 0.  1.
         13    1    5    5    0    0 -0.44262589511E+01  0.46841397634E+01  0.22315868271E+01  0.68200376386E+01  0.00000000000E+00 0. -1.
        -13    1    5    5    0    0  0.36160658521E+03  0.18530878084E+03 -0.12887228266E+03  0.42627072614E+03  0.00000000000E+00 0.  1.
          4    1    6    6  503    0 -0.91173977088E+02 -0.92366987280E+02  0.21529450526E+03  0.25138830210E+03  0.00000000000E+00 0. -1.
         -4    1    6    6    0  503 -0.11924021180E+03 -0.16691294863E+03  0.17314948032E+03  0.26843789424E+03  0.00000000000E+00 0.  1.
<mgrwt>
<rscale>  0 0.12504983E+04</rscale>
<asrwt>0</asrwt>
<pdfrwt beam="1">  1        2 0.94274332E-01 0.12504983E+04</pdfrwt>
<pdfrwt beam="2">  1       -1 0.98149037E-01 0.12504983E+04</pdfrwt>
<totfact> 0.54066419E+01</totfact>
</mgrwt>
</event>
<event>
12    7  0.1675873E-007  0.1837909E+04  0.7818608E-02  0.8686396E-01
          2   -1    0    0  501    0  0.00000000000E+00  0.00000000000E+00  0.20348383901E+04  0.20348383901E+04  0.00000000000E+00 0. -1.
         -1   -1    0    0    0  501 -0.00000000000E+00 -0.00000000000E+00 -0.41500947771E+03  0.41500947771E+03  0.00000000000E+00 0.  1.
         24    2    1    2    0    0 -0.84908527986E+02  0.32632437831E+03  0.14285529776E+04  0.14700345204E+04  0.80875357413E+02 0.  0.
        254    2    1    2    0    0  0.84908527986E+02 -0.32632437831E+03  0.19127593480E+03  0.97981334739E+03  0.89986146405E+03 0.  0.
         23    2    4    4    0    0 -0.13725630007E+03 -0.24965963904E+03 -0.30254798127E+03  0.42553097479E+03  0.91499192668E+02 0.  0.
         23    2    4    4    0    0  0.22216482806E+03 -0.76664739269E+02  0.49382391607E+03  0.55428237260E+03  0.90178686039E+02 0.  0.
          4    1    3    3  502    0 -0.62628965522E+02  0.22224270280E+03  0.11224696140E+04  0.11459721815E+04  0.00000000000E+00 0. -1.
         -3    1    3    3    0  502 -0.22279562464E+02  0.10408167551E+03  0.30608336360E+03  0.32406233899E+03  0.00000000000E+00 0.  1.
         13    1    5    5    0    0 -0.79241988251E+02 -0.84896776044E+02 -0.17167040729E+03  0.20726187306E+03  0.00000000000E+00 0. -1.
        -13    1    5    5    0    0 -0.58014311822E+02 -0.16476286300E+03 -0.13087757398E+03  0.21826910173E+03  0.00000000000E+00 0.  1.
          2    1    6    6  503    0  0.20879106293E+03 -0.89998243602E+02  0.41471138249E+03  0.47294706107E+03  0.00000000000E+00 0. -1.
         -2    1    6    6    0  503  0.13373765134E+02  0.13333504333E+02  0.79112533579E+02  0.81335311525E+02  0.00000000000E+00 0.  1.
<mgrwt>
<rscale>  0 0.18379088E+04</rscale>
<asrwt>0</asrwt>
<pdfrwt beam="1">  1        2 0.31305206E+00 0.18379088E+04</pdfrwt>
<pdfrwt beam="2">  1       -1 0.63847613E-01 0.18379088E+04</pdfrwt>
<totfact> 0.17036923E+01</totfact>
</mgrwt>
</event>
<event>
12    7  0.1675873E-007  0.1491549E+04  0.7818608E-02  0.8890093E-01
         -1   -1    0    0    0  501 -0.00000000000E+00  0.00000000000E+00  0.39977731162E+03  0.39977731162E+03  0.00000000000E+00 0.  1.
          2   -1    0    0  501    0  0.00000000000E+00 -0.00000000000E+00 -0.13912226062E+04  0.13912226062E+04  0.00000000000E+00 0. -1.
         24    2    1    2    0    0 -0.28800671308E+02  0.34169038794E+02 -0.85880834448E+03  0.86388366746E+03  0.82135354666E+02 0.  0.
        254    2    1    2    0    0  0.28800671308E+02 -0.34169038794E+02 -0.13263695013E+03  0.92711625038E+03  0.91649057785E+03 0.  0.
         23    2    4    4    0    0  0.26780227639E+03 -0.32785173514E+03  0.13574104844E+03  0.45371650635E+03  0.90709516749E+02 0.  0.
         23    2    4    4    0    0 -0.23900160508E+03  0.29368269635E+03 -0.26837799857E+03  0.47339974403E+03  0.93323492018E+02 0.  0.
          2    1    3    3  502    0 -0.17422585626E+01  0.31009888560E+02 -0.77775116190E+03  0.77837106735E+03  0.00000000000E+00 0. -1.
         -1    1    3    3    0  502 -0.27058412745E+02  0.31591502336E+01 -0.81057182578E+02  0.85512600112E+02  0.00000000000E+00 0.  1.
         13    1    5    5    0    0  0.21068107856E+03 -0.30349431615E+03  0.10313030664E+03  0.38357682013E+03  0.00000000000E+00 0. -1.
        -13    1    5    5    0    0  0.57121197833E+02 -0.24357418995E+02  0.32610741804E+02  0.70139686219E+02  0.00000000000E+00 0.  1.
          2    1    6    6  503    0 -0.22066356441E+03  0.29796571359E+03 -0.25076268039E+03  0.44761355767E+03  0.00000000000E+00 0. -1.
         -2    1    6    6    0  503 -0.18338040669E+02 -0.42830172402E+01 -0.17615318181E+02  0.25786186358E+02  0.00000000000E+00 0.  1.
<mgrwt>
<rscale>  0 0.14915485E+04</rscale>
<asrwt>0</asrwt>
<pdfrwt beam="1">  1        2 0.21403425E+00 0.14915485E+04</pdfrwt>
<pdfrwt beam="2">  1       -1 0.61504202E-01 0.14915485E+04</pdfrwt>
<totfact> 0.43249287E+01</totfact>
</mgrwt>
</event>
<event>
12    7  0.1675873E-007  0.1322672E+04  0.7818608E-02  0.9011777E-01
          2   -1    0    0  501    0  0.00000000000E+00  0.00000000000E+00  0.38404101827E+04  0.38404101827E+04  0.00000000000E+00 0. -1.
         -1   -1    0    0    0  501 -0.00000000000E+00 -0.00000000000E+00 -0.11388500403E+03  0.11388500403E+03  0.00000000000E+00 0.  1.
         24    2    1    2    0    0  0.33201421527E+03  0.22157279607E+03  0.14924920541E+04  0.15470042762E+04  0.79760614670E+02 0.  0.
        254    2    1    2    0    0 -0.33201421527E+03 -0.22157279607E+03  0.22340331245E+04  0.24072909106E+04  0.80300534468E+03 0.  0.
         23    2    4    4    0    0 -0.14188935826E+03  0.26719842033E+03  0.12444321149E+04  0.12839859502E+04  0.92092594268E+02 0.  0.
         23    2    4    4    0    0 -0.19012485701E+03 -0.48877121640E+03  0.98960100965E+03  0.11233049604E+04  0.86366153757E+02 0.  0.
          2    1    3    3  502    0  0.30048325635E+03  0.20514417191E+03  0.12484270769E+04  0.13003632127E+04  0.00000000000E+00 0. -1.
         -1    1    3    3    0  502  0.31530958919E+02  0.16428624154E+02  0.24406497723E+03  0.24664106344E+03  0.00000000000E+00 0.  1.
         13    1    5    5    0    0 -0.37420597053E+01  0.79679660869E+02  0.24022574839E+03  0.25312301665E+03  0.00000000000E+00 0.  1.
        -13    1    5    5    0    0 -0.13814729855E+03  0.18751875946E+03  0.10042063665E+04  0.10308629336E+04  0.00000000000E+00 0. -1.
          1    1    6    6  503    0 -0.49626315641E+01 -0.10765389960E+03  0.20519615798E+03  0.23177457381E+03  0.00000000000E+00 0. -1.
         -1    1    6    6    0  503 -0.18516222544E+03 -0.38111731680E+03  0.78440485167E+03  0.89153038659E+03  0.00000000000E+00 0.  1.
<mgrwt>
<rscale>  0 0.13226717E+04</rscale>
<asrwt>0</asrwt>
<pdfrwt beam="1">  1        2 0.59083224E+00 0.13226717E+04</pdfrwt>
<pdfrwt beam="2">  1       -1 0.17520773E-01 0.13226717E+04</pdfrwt>
<totfact> 0.13365623E+01</totfact>
</mgrwt>
</event>
<event>
12    7  0.1675873E-007  0.1842978E+04  0.7818608E-02  0.8683772E-01
         -1   -1    0    0    0  501 -0.00000000000E+00  0.00000000000E+00  0.31277966893E+03  0.31277966893E+03  0.00000000000E+00 0.  1.
          2   -1    0    0  501    0  0.00000000000E+00 -0.00000000000E+00 -0.27148239568E+04  0.27148239568E+04  0.00000000000E+00 0. -1.
         24    2    1    2    0    0 -0.52943846263E+03  0.45228230969E+03 -0.79694324226E+03  0.10612696126E+04  0.79437307783E+02 0.  0.
        254    2    1    2    0    0  0.52943846263E+03 -0.45228230969E+03 -0.16051010456E+04  0.19663340132E+04  0.89736041325E+03 0.  0.
         23    2    4    4    0    0  0.15725756534E+03  0.12759703421E+03 -0.53513517844E+01  0.22207976521E+03  0.90993626995E+02 0.  0.
         23    2    4    4    0    0  0.37218089728E+03 -0.57987934391E+03 -0.15997496939E+04  0.17442542480E+04  0.91897359721E+02 0.  0.
          2    1    3    3  502    0 -0.32464540841E+03  0.28548218859E+03 -0.55112522741E+03  0.70045252337E+03  0.00000000000E+00 0. -1.
         -1    1    3    3    0  502 -0.20479305421E+03  0.16680012110E+03 -0.24581801485E+03  0.36081708923E+03  0.00000000000E+00 0.  1.
         13    1    5    5    0    0  0.21111893103E+02  0.71798715974E+02 -0.38143561927E+01  0.74935418589E+02  0.00000000000E+00 0. -1.
        -13    1    5    5    0    0  0.13614567224E+03  0.55798318240E+02 -0.15369955918E+01  0.14714434662E+03  0.00000000000E+00 0.  1.
          2    1    6    6  503    0  0.55797113909E+02 -0.83412900922E+02 -0.16095012942E+03  0.18967333530E+03  0.00000000000E+00 0.  1.
         -2    1    6    6    0  503  0.31638378337E+03 -0.49646644298E+03 -0.14387995644E+04  0.15545809127E+04  0.00000000000E+00 0. -1.
<mgrwt>
<rscale>  0 0.18429777E+04</rscale>
<asrwt>0</asrwt>
<pdfrwt beam="1">  1        2 0.41766523E+00 0.18429777E+04</pdfrwt>
<pdfrwt beam="2">  1       -1 0.48119949E-01 0.18429777E+04</pdfrwt>
<totfact> 0.12054422E+01</totfact>
</mgrwt>
</event>
<event>
12    7  0.1675873E-007  0.2738610E+04  0.7818608E-02  0.8322585E-01
          2   -1    0    0  501    0  0.00000000000E+00  0.00000000000E+00  0.95434509304E+03  0.95434509304E+03  0.00000000000E+00 0. -1.
         -1   -1    0    0    0  501 -0.00000000000E+00 -0.00000000000E+00 -0.19646944749E+04  0.19646944749E+04  0.00000000000E+00 0.  1.
         24    2    1    2    0    0 -0.33379676775E+03 -0.10165184488E+04 -0.10692834130E+04  0.15149343201E+04  0.83240241344E+02 0.  0.
        254    2    1    2    0    0  0.33379676775E+03  0.10165184488E+04  0.58934031154E+02  0.14041052479E+04  0.90736337170E+03 0.  0.
         23    2    4    4    0    0 -0.17143279361E+03  0.28426194990E+03  0.32377445638E+03  0.47132567899E+03  0.84403425193E+02 0.  0.
         23    2    4    4    0    0  0.50522956137E+03  0.73225649889E+03 -0.26484042522E+03  0.93277956893E+03  0.92091169642E+02 0.  0.
          2    1    3    3  502    0 -0.40551811206E+02 -0.80460878553E+02 -0.11835758662E+03  0.14875120397E+03  0.00000000000E+00 0. -1.
         -1    1    3    3    0  502 -0.29324495655E+03 -0.93605757024E+03 -0.95092582641E+03  0.13661831161E+04  0.00000000000E+00 0.  1.
         13    1    5    5    0    0  0.64220930954E+01  0.30649487845E+02  0.43414010486E+02  0.53529531021E+02  0.00000000000E+00 0.  1.
        -13    1    5    5    0    0 -0.17785488671E+03  0.25361246205E+03  0.28036044589E+03  0.41779614796E+03  0.00000000000E+00 0. -1.
          3    1    6    6  503    0  0.38649309669E+03  0.50444213983E+03 -0.21664988071E+03  0.67139850837E+03  0.00000000000E+00 0. -1.
         -3    1    6    6    0  503  0.11873646467E+03  0.22781435906E+03 -0.48190544515E+02  0.26138106056E+03  0.00000000000E+00 0.  1.
<mgrwt>
<rscale>  0 0.27386103E+04</rscale>
<asrwt>0</asrwt>
<pdfrwt beam="1">  1        2 0.14682232E+00 0.27386103E+04</pdfrwt>
<pdfrwt beam="2">  1       -1 0.30226069E+00 0.27386103E+04</pdfrwt>
<totfact> 0.85848246E-01</totfact>
</mgrwt>
</event>
<event>
12    7  0.1675873E-007  0.1752328E+04  0.7818608E-02  0.8732070E-01
         -1   -1    0    0    0  501 -0.00000000000E+00  0.00000000000E+00  0.24764242397E+03  0.24764242397E+03  0.00000000000E+00 0.  1.
          2   -1    0    0  501    0  0.00000000000E+00 -0.00000000000E+00 -0.30998851408E+04  0.30998851408E+04  0.00000000000E+00 0. -1.
         24    2    1    2    0    0  0.44823496109E+02  0.44290061964E+03 -0.17085593211E+03  0.48330102302E+03  0.78854452188E+02 0.  0.
        254    2    1    2    0    0 -0.44823496109E+02 -0.44290061964E+03 -0.26813867847E+04  0.28642265417E+04  0.90321010209E+03 0.  0.
         23    2    4    4    0    0 -0.95479956927E+02 -0.47026374239E+03 -0.27107256164E+04  0.27543374796E+04  0.89873101767E+02 0.  0.
         23    2    4    4    0    0  0.50656460818E+02  0.27363122744E+02  0.29338831717E+02  0.10988906214E+03  0.88882064680E+02 0.  0.
          4    1    3    3  502    0  0.33565830568E+01  0.27693934944E+02 -0.34386780123E+02  0.44279468490E+02  0.00000000000E+00 0. -1.
         -3    1    3    3    0  502  0.41466913052E+02  0.41520668470E+03 -0.13646915199E+03  0.43902155453E+03  0.00000000000E+00 0.  1.
         13    1    5    5    0    0 -0.81417992266E+02 -0.45335634165E+03 -0.26504443284E+04  0.26901702549E+04  0.00000000000E+00 0.  1.
        -13    1    5    5    0    0 -0.14061964662E+02 -0.16907400740E+02 -0.60281287980E+02  0.64167224738E+02  0.00000000000E+00 0. -1.
          2    1    6    6  503    0 -0.26516284357E+01 -0.29345961262E+01 -0.26598490566E+02  0.26890940634E+02  0.00000000000E+00 0. -1.
         -2    1    6    6    0  503  0.53308089254E+02  0.30297718871E+02  0.55937322283E+02  0.82998121502E+02  0.00000000000E+00 0.  1.
<mgrwt>
<rscale>  0 0.17523277E+04</rscale>
<asrwt>0</asrwt>
<pdfrwt beam="1">  1        2 0.47690544E+00 0.17523277E+04</pdfrwt>
<pdfrwt beam="2">  1       -1 0.38098832E-01 0.17523277E+04</pdfrwt>
<totfact> 0.10865865E+01</totfact>
</mgrwt>
</event>
<event>
12    7  0.1675873E-007  0.1461270E+04  0.7818608E-02  0.8910624E-01
         -1   -1    0    0    0  501 -0.00000000000E+00  0.00000000000E+00  0.14168965601E+04  0.14168965601E+04  0.00000000000E+00 0.  1.
          2   -1    0    0  501    0  0.00000000000E+00 -0.00000000000E+00 -0.37675837865E+03  0.37675837865E+03  0.00000000000E+00 0. -1.
         24    2    1    2    0    0 -0.19616613317E+03 -0.21673952916E+03  0.72916028018E+03  0.78955363576E+03  0.79139460786E+02 0.  0.
        254    2    1    2    0    0  0.19616613317E+03  0.21673952916E+03  0.31097790123E+03  0.10041013029E+04  0.90887567699E+03 0.  0.
         23    2    4    4    0    0 -0.27082868060E+03 -0.15441409166E+03  0.22349584493E+03  0.39440524998E+03  0.91723620579E+02 0.  0.
         23    2    4    4    0    0  0.46699481378E+03  0.37115362082E+03  0.87482056308E+02  0.60969605296E+03  0.90757922397E+02 0.  0.
          4    1    3    3  502    0 -0.99679984520E+01 -0.27854920166E+02  0.14519018847E+03  0.14817371022E+03  0.00000000000E+00 0. -1.
         -3    1    3    3    0  502 -0.18619813472E+03 -0.18888460899E+03  0.58397009171E+03  0.64137992555E+03  0.00000000000E+00 0.  1.
         13    1    5    5    0    0 -0.27314494093E+03 -0.15703788899E+03  0.22784567295E+03  0.38882220618E+03  0.00000000000E+00 0. -1.
        -13    1    5    5    0    0  0.23162603224E+01  0.26237973209E+01 -0.43498280294E+01  0.55830438067E+01  0.00000000000E+00 0.  1.
          3    1    6    6  503    0  0.45571789584E+03  0.34815913500E+03  0.67984449939E+02  0.57750798203E+03  0.00000000000E+00 0. -1.
         -3    1    6    6    0  503  0.11276917938E+02  0.22994485820E+02  0.19497606369E+02  0.32188070934E+02  0.00000000000E+00 0.  1.
<mgrwt>
<rscale>  0 0.14612702E+04</rscale>
<asrwt>0</asrwt>
<pdfrwt beam="1">  1        2 0.57962828E-01 0.14612702E+04</pdfrwt>
<pdfrwt beam="2">  1       -1 0.21798408E+00 0.14612702E+04</pdfrwt>
<totfact> 0.10710129E+01</totfact>
</mgrwt>
</event>
<event>
12    7  0.1675873E-007  0.1707953E+04  0.7818608E-02  0.8756842E-01
          2   -1    0    0  501    0  0.00000000000E+00  0.00000000000E+00  0.31527010445E+04  0.31527010445E+04  0.00000000000E+00 0. -1.
         -1   -1    0    0    0  501 -0.00000000000E+00 -0.00000000000E+00 -0.23131775969E+03  0.23131775969E+03  0.00000000000E+00 0.  1.
         24    2    1    2    0    0 -0.40607559544E+02  0.55549553948E+03  0.15101485559E+04  0.16115367578E+04  0.79232523788E+02 0.  0.
        254    2    1    2    0    0  0.40607559544E+02 -0.55549553948E+03  0.14112347289E+04  0.17724820463E+04  0.91645233164E+03 0.  0.
         23    2    4    4    0    0  0.46090573820E+03 -0.19853271173E+03  0.59750925466E+03  0.78550928181E+03  0.90322673046E+02 0.  0.
         23    2    4    4    0    0 -0.42029817866E+03 -0.35696282775E+03  0.81372547427E+03  0.98697276453E+03  0.88842957375E+02 0.  0.
          4    1    3    3  502    0 -0.20648234366E+02  0.37491413137E+03  0.11174444871E+04  0.11788422868E+04  0.00000000000E+00 0. -1.
         -3    1    3    3    0  502 -0.19959325179E+02  0.18058140811E+03  0.39270406878E+03  0.43269447102E+03  0.00000000000E+00 0.  1.
         13    1    5    5    0    0  0.12531215863E+03 -0.49266367656E+02  0.22612421030E+03  0.26317764071E+03  0.00000000000E+00 0.  1.
        -13    1    5    5    0    0  0.33559357957E+03 -0.14926634407E+03  0.37138504436E+03  0.52233164110E+03  0.00000000000E+00 0. -1.
          1    1    6    6  503    0 -0.29967364727E+03 -0.20337357448E+03  0.55742428061E+03  0.66474576665E+03  0.00000000000E+00 0. -1.
         -1    1    6    6    0  503 -0.12062453139E+03 -0.15358925328E+03  0.25630119365E+03  0.32222699788E+03  0.00000000000E+00 0.  1.
<mgrwt>
<rscale>  0 0.17079529E+04</rscale>
<asrwt>0</asrwt>
<pdfrwt beam="1">  1        2 0.48503090E+00 0.17079529E+04</pdfrwt>
<pdfrwt beam="2">  1       -1 0.35587350E-01 0.17079529E+04</pdfrwt>
<totfact> 0.11418886E+01</totfact>
</mgrwt>
</event>
<event>
12    7  0.1675873E-007  0.1135327E+04  0.7818608E-02  0.9171428E-01
         -1   -1    0    0    0  501 -0.00000000000E+00  0.00000000000E+00  0.18533032452E+03  0.18533032452E+03  0.00000000000E+00 0.  1.
          2   -1    0    0  501    0  0.00000000000E+00 -0.00000000000E+00 -0.17387427523E+04  0.17387427523E+04  0.00000000000E+00 0. -1.
         24    2    1    2    0    0  0.41742647674E+02 -0.20012917052E+03 -0.26761272535E+03  0.34592066407E+03  0.79059480997E+02 0.  0.
        254    2    1    2    0    0 -0.41742647674E+02  0.20012917052E+03 -0.12857997024E+04  0.15781524127E+04  0.89190247761E+03 0.  0.
         23    2    4    4    0    0 -0.16802518535E+03 -0.31812323959E+03 -0.46399018442E+03  0.59419440102E+03  0.91352265913E+02 0.  0.
         23    2    4    4    0    0  0.12628253768E+03  0.51825241011E+03 -0.82180951800E+03  0.98395801171E+03  0.90937588717E+02 0.  0.
          2    1    3    3  502    0  0.25636408608E+02 -0.90695650550E+02 -0.18580812046E+03  0.20834486820E+03  0.00000000000E+00 0. -1.
         -1    1    3    3    0  502  0.16106239066E+02 -0.10943351997E+03 -0.81804604887E+02  0.13757579587E+03  0.00000000000E+00 0.  1.
         13    1    5    5    0    0 -0.66262675487E+02 -0.16036956537E+03 -0.29159490386E+03  0.33931803314E+03  0.00000000000E+00 0.  1.
        -13    1    5    5    0    0 -0.10176250986E+03 -0.15775367422E+03 -0.17239528057E+03  0.25487636788E+03  0.00000000000E+00 0. -1.
          2    1    6    6  503    0  0.10965159415E+03  0.27017621282E+03 -0.47173112105E+03  0.55457092300E+03  0.00000000000E+00 0. -1.
         -2    1    6    6    0  503  0.16630943530E+02  0.24807619729E+03 -0.35007839695E+03  0.42938708871E+03  0.00000000000E+00 0.  1.
<mgrwt>
<rscale>  0 0.11353268E+04</rscale>
<asrwt>0</asrwt>
<pdfrwt beam="1">  1        2 0.26749889E+00 0.11353268E+04</pdfrwt>
<pdfrwt beam="2">  1       -1 0.28512357E-01 0.11353268E+04</pdfrwt>
<totfact> 0.11751283E+02</totfact>
</mgrwt>
</event>
<event>
12    7  0.1695641E-007  0.3018989E+04  0.7818608E-02  0.8238329E-01
          2   -1    0    0  501    0  0.00000000000E+00  0.00000000000E+00  0.17219984095E+04  0.17219984095E+04  0.00000000000E+00 0. -1.
         -1   -1    0    0    0  501 -0.00000000000E+00 -0.00000000000E+00 -0.13232148986E+04  0.13232148986E+04  0.00000000000E+00 0.  1.
         24    2    1    2    0    0  0.21057342222E+03  0.31620931538E+03 -0.11509722019E+04  0.12146348771E+04  0.79192031169E+02 0.  0.
        254    2    1    2    0    0 -0.21057342222E+03 -0.31620931538E+03  0.15497557128E+04  0.18305784310E+04  0.89718734135E+03 0.  0.
         23    2    4    4    0    0 -0.50000412028E+03  0.43813724906E+01  0.10259975962E+04  0.11449410596E+04  0.90529805483E+02 0.  0.
         23    2    4    4    0    0  0.28943069806E+03 -0.32059068787E+03  0.52375811657E+03  0.68563737145E+03  0.96059993397E+02 0.  0.
          2    1    3    3  502    0  0.13728812708E+02  0.17764028732E+02 -0.26687605381E+02  0.34875052633E+02  0.00000000000E+00 0. -1.
         -1    1    3    3    0  502  0.19684460951E+03  0.29844528665E+03 -0.11242845965E+04  0.11797598244E+04  0.00000000000E+00 0.  1.
         13    1    5    5    0    0 -0.40653658925E+03 -0.28974459131E+02  0.85651240929E+03  0.94853836240E+03  0.00000000000E+00 0.  1.
        -13    1    5    5    0    0 -0.93467531030E+02  0.33355831621E+02  0.16948518695E+03  0.19640269717E+03  0.00000000000E+00 0. -1.
          4    1    6    6  503    0  0.76992969983E+02 -0.44870660369E+02  0.67612980252E+02  0.11186066640E+03  0.00000000000E+00 0. -1.
         -4    1    6    6    0  503  0.21243772808E+03 -0.27572002750E+03  0.45614513632E+03  0.57377670505E+03  0.00000000000E+00 0.  1.
<mgrwt>
<rscale>  0 0.30189892E+04</rscale>
<asrwt>0</asrwt>
<pdfrwt beam="1">  1        2 0.26492283E+00 0.30189892E+04</pdfrwt>
<pdfrwt beam="2">  1       -1 0.20357152E+00 0.30189892E+04</pdfrwt>
<totfact> 0.13191007E+00</totfact>
</mgrwt>
</event>
<event>
12    7  0.1675873E-007  0.1194932E+04  0.7818608E-02  0.9117304E-01
         -1   -1    0    0    0  501 -0.00000000000E+00  0.00000000000E+00  0.14919108583E+03  0.14919108583E+03  0.00000000000E+00 0.  1.
          2   -1    0    0  501    0  0.00000000000E+00 -0.00000000000E+00 -0.23926753152E+04  0.23926753152E+04  0.00000000000E+00 0. -1.
         24    2    1    2    0    0  0.11534539836E+03 -0.10916675519E+03 -0.92010388849E+03  0.93708260004E+03  0.79439866041E+02 0.  0.
        254    2    1    2    0    0 -0.11534539836E+03  0.10916675519E+03 -0.13233803408E+04  0.16047838009E+04  0.89374133836E+03 0.  0.
         23    2    4    4    0    0  0.33933837266E+03  0.15826695927E+03 -0.88333335029E+03  0.96371363986E+03  0.90924201207E+02 0.  0.
         23    2    4    4    0    0 -0.45468377102E+03 -0.49100204077E+02 -0.44004699055E+03  0.64107016108E+03  0.90451290026E+02 0.  0.
          2    1    3    3  502    0  0.10957757125E+03 -0.11515793299E+03 -0.91094883177E+03  0.92471420869E+03  0.00000000000E+00 0. -1.
         -1    1    3    3    0  502  0.57678271084E+01  0.59911777989E+01 -0.91550567234E+01  0.12368391350E+02  0.00000000000E+00 0.  1.
         13    1    5    5    0    0  0.11895038444E+03  0.18795863484E+02 -0.21736414946E+03  0.24849477240E+03  0.00000000000E+00 0. -1.
        -13    1    5    5    0    0  0.22038798822E+03  0.13947109579E+03 -0.66596920083E+03  0.71521886746E+03  0.00000000000E+00 0.  1.
          4    1    6    6  503    0 -0.24662550402E+03  0.11984820314E+02 -0.26675872119E+03  0.36349414092E+03  0.00000000000E+00 0. -1.
         -4    1    6    6    0  503 -0.20805826700E+03 -0.61085024391E+02 -0.17328826936E+03  0.27757602016E+03  0.00000000000E+00 0.  1.
<mgrwt>
<rscale>  0 0.11949323E+04</rscale>
<asrwt>0</asrwt>
<pdfrwt beam="1">  1        2 0.36810386E+00 0.11949323E+04</pdfrwt>
<pdfrwt beam="2">  1       -1 0.22952477E-01 0.11949323E+04</pdfrwt>
<totfact> 0.73537105E+01</totfact>
</mgrwt>
</event>
<event>
12    7  0.1675873E-007  0.2706935E+04  0.7818608E-02  0.8332758E-01
         -1   -1    0    0    0  501 -0.00000000000E+00  0.00000000000E+00  0.64108377894E+03  0.64108377894E+03  0.00000000000E+00 0.  1.
          2   -1    0    0  501    0  0.00000000000E+00 -0.00000000000E+00 -0.28574647827E+04  0.28574647827E+04  0.00000000000E+00 0. -1.
         24    2    1    2    0    0 -0.97904278054E+03 -0.26869594786E+03 -0.15501437727E+03  0.10300546430E+04  0.79125418081E+02 0.  0.
        254    2    1    2    0    0  0.97904278054E+03  0.26869594786E+03 -0.20613666265E+04  0.24684939187E+04  0.90194655010E+03 0.  0.
         23    2    4    4    0    0  0.30855405537E+03 -0.27983387137E+03 -0.36395633627E+03  0.56065114073E+03  0.91394125796E+02 0.  0.
         23    2    4    4    0    0  0.67048872517E+03  0.54852981924E+03 -0.16974102902E+04  0.19078427780E+04  0.90676782525E+02 0.  0.
          4    1    3    3  502    0 -0.65750543099E+03 -0.19583563977E+03 -0.13891227864E+03  0.69997257856E+03  0.00000000000E+00 0. -1.
         -1    1    3    3    0  502 -0.32153734956E+03 -0.72860308096E+02 -0.16102098622E+02  0.33008206439E+03  0.00000000000E+00 0.  1.
         13    1    5    5    0    0  0.16963925200E+03 -0.20763578039E+03 -0.20471198247E+03  0.33733824107E+03  0.00000000000E+00 0. -1.
        -13    1    5    5    0    0  0.13891480337E+03 -0.72198090982E+02 -0.15924435380E+03  0.22331289966E+03  0.00000000000E+00 0.  1.
          1    1    6    6  503    0  0.52131681284E+03  0.37804779818E+03 -0.12840150329E+04  0.14364490808E+04  0.00000000000E+00 0. -1.
         -1    1    6    6    0  503  0.14917191233E+03  0.17048202105E+03 -0.41339525729E+03  0.47139369711E+03  0.00000000000E+00 0.  1.
<mgrwt>
<rscale>  0 0.27069350E+04</rscale>
<asrwt>0</asrwt>
<pdfrwt beam="1">  1        2 0.43960996E+00 0.27069350E+04</pdfrwt>
<pdfrwt beam="2">  1       -1 0.98628275E-01 0.27069350E+04</pdfrwt>
<totfact> 0.20911723E+00</totfact>
</mgrwt>
</event>
<event>
12    7  0.1675873E-007  0.1134750E+04  0.7818608E-02  0.9171968E-01
          2   -1    0    0  501    0  0.00000000000E+00  0.00000000000E+00  0.78170353441E+03  0.78170353441E+03  0.00000000000E+00 0. -1.
         -1   -1    0    0    0  501 -0.00000000000E+00 -0.00000000000E+00 -0.41181160252E+03  0.41181160252E+03  0.00000000000E+00 0.  1.
         24    2    1    2    0    0  0.51012125062E+02  0.19416363603E+03  0.11062901026E+03  0.24348383221E+03  0.82120911915E+02 0.  0.
        254    2    1    2    0    0 -0.51012125062E+02 -0.19416363603E+03  0.25926292163E+03  0.95003130473E+03  0.89165041523E+03 0.  0.
         23    2    4    4    0    0 -0.42115783687E+03 -0.18270897498E+03 -0.32593818441E+02  0.46977085775E+03  0.94158423389E+02 0.  0.
         23    2    4    4    0    0  0.37014571181E+03 -0.11454661053E+02  0.29185674007E+03  0.48026044698E+03  0.91272575194E+02 0.  0.
          2    1    3    3  502    0  0.20877919918E+02  0.18376291503E+03  0.96623263232E+02  0.20866420747E+03  0.00000000000E+00 0. -1.
         -1    1    3    3    0  502  0.30134205144E+02  0.10400721000E+02  0.14005747030E+02  0.34819624737E+02  0.00000000000E+00 0.  1.
         13    1    5    5    0    0 -0.34314556893E+03 -0.13293358439E+03  0.94778414588E+01  0.36811689559E+03  0.00000000000E+00 0. -1.
        -13    1    5    5    0    0 -0.78012267939E+02 -0.49775390584E+02 -0.42071659900E+02  0.10165396216E+03  0.00000000000E+00 0.  1.
          1    1    6    6  503    0  0.33622621088E+03 -0.19240698803E+02  0.29157200072E+03  0.44545763095E+03  0.00000000000E+00 0. -1.
         -1    1    6    6    0  503  0.33919500928E+02  0.77860377500E+01  0.28473935262E+00  0.34802816029E+02  0.00000000000E+00 0.  1.
<mgrwt>
<rscale>  0 0.11347503E+04</rscale>
<asrwt>0</asrwt>
<pdfrwt beam="1">  1        2 0.12026208E+00 0.11347503E+04</pdfrwt>
<pdfrwt beam="2">  1       -1 0.63355631E-01 0.11347503E+04</pdfrwt>
<totfact> 0.10153962E+02</totfact>
</mgrwt>
</event>
<event>
12    7  0.1675873E-007  0.1249288E+04  0.7818608E-02  0.9070776E-01
          2   -1    0    0  501    0  0.00000000000E+00  0.00000000000E+00  0.48477157363E+03  0.48477157363E+03  0.00000000000E+00 0. -1.
         -1   -1    0    0    0  501 -0.00000000000E+00 -0.00000000000E+00 -0.80487468002E+03  0.80487468002E+03  0.00000000000E+00 0.  1.
         24    2    1    2    0    0 -0.89055690408E+02 -0.17749232614E+03 -0.30193567326E+03  0.36911623407E+03  0.75147865149E+02 0.  0.
        254    2    1    2    0    0  0.89055690408E+02  0.17749232614E+03 -0.18167433130E+02  0.92053001957E+03  0.89867180855E+03 0.  0.
         23    2    4    4    0    0 -0.20124705696E+02 -0.24268964333E+03  0.28274322374E+03  0.38459294118E+03  0.93084547987E+02 0.  0.
         23    2    4    4    0    0  0.10918039610E+03  0.42018196947E+03 -0.30091065687E+03  0.53593707839E+03  0.90598466955E+02 0.  0.
          2    1    3    3  502    0  0.13079065530E+02 -0.11445676758E+02 -0.24442855724E+02  0.29991976719E+02  0.00000000000E+00 0. -1.
         -1    1    3    3    0  502 -0.10213475594E+03 -0.16604664938E+03 -0.27749281754E+03  0.33912425735E+03  0.00000000000E+00 0.  1.
         13    1    5    5    0    0  0.37003481041E+01  0.47336662282E-01 -0.57348454323E+01  0.68251936956E+01  0.00000000000E+00 0. -1.
        -13    1    5    5    0    0 -0.23825053800E+02 -0.24273698000E+03  0.28847806918E+03  0.37776774749E+03  0.00000000000E+00 0.  1.
          1    1    6    6  503    0  0.12242181592E+02  0.93592969124E+02 -0.11172321320E+03  0.14625864504E+03  0.00000000000E+00 0. -1.
         -1    1    6    6    0  503  0.96938214513E+02  0.32658900034E+03 -0.18918744367E+03  0.38967843335E+03  0.00000000000E+00 0.  1.
<mgrwt>
<rscale>  0 0.12492884E+04</rscale>
<asrwt>0</asrwt>
<pdfrwt beam="1">  1        2 0.74580243E-01 0.12492884E+04</pdfrwt>
<pdfrwt beam="2">  1       -1 0.12382687E+00 0.12492884E+04</pdfrwt>
<totfact> 0.41152285E+01</totfact>
</mgrwt>
</event>
<event>
12    7  0.1675873E-007  0.1205159E+04  0.7818608E-02  0.9108353E-01
          2   -1    0    0  501    0  0.00000000000E+00  0.00000000000E+00  0.92779874506E+03  0.92779874506E+03  0.00000000000E+00 0. -1.
         -1   -1    0    0    0  501 -0.00000000000E+00 -0.00000000000E+00 -0.39135887460E+03  0.39135887460E+03  0.00000000000E+00 0.  1.
         24    2    1    2    0    0  0.18292100856E+03  0.17975795770E+03  0.19186170391E+03  0.33012219216E+03  0.79979557407E+02 0.  0.
        254    2    1    2    0    0 -0.18292100856E+03 -0.17975795770E+03  0.34457816654E+03  0.98903542750E+03  0.89088941247E+03 0.  0.
         23    2    4    4    0    0  0.76459468287E+02  0.22124088403E+03  0.42734925691E+03  0.49588343399E+03  0.92083731822E+02 0.  0.
         23    2    4    4    0    0 -0.25938047684E+03 -0.40099884173E+03 -0.82771090369E+02  0.49315199351E+03  0.90936969708E+02 0.  0.
          4    1    3    3  502    0  0.69872486364E+01  0.37124473130E+02  0.50767917042E+02  0.63280562177E+02  0.00000000000E+00 0. -1.
         -3    1    3    3    0  502  0.17593375992E+03  0.14263348457E+03  0.14109378687E+03  0.26684162999E+03  0.00000000000E+00 0.  1.
         13    1    5    5    0    0  0.43785015624E+02  0.78149688021E+02  0.85397259878E+02  0.12376264915E+03  0.00000000000E+00 0.  1.
        -13    1    5    5    0    0  0.32674452663E+02  0.14309119601E+03  0.34195199704E+03  0.37212078484E+03  0.00000000000E+00 0. -1.
          2    1    6    6  503    0 -0.17191797538E+03 -0.24136013019E+03 -0.82011279447E+01  0.29644183444E+03  0.00000000000E+00 0. -1.
         -2    1    6    6    0  503 -0.87462501460E+02 -0.15963871154E+03 -0.74569962425E+02  0.19671015906E+03  0.00000000000E+00 0.  1.
<mgrwt>
<rscale>  0 0.12051594E+04</rscale>
<asrwt>0</asrwt>
<pdfrwt beam="1">  1        2 0.14273827E+00 0.12051594E+04</pdfrwt>
<pdfrwt beam="2">  1       -1 0.60209058E-01 0.12051594E+04</pdfrwt>
<totfact> 0.88425350E+01</totfact>
</mgrwt>
</event>
<event>
12    7  0.1675873E-007  0.1308225E+04  0.7818608E-02  0.9023068E-01
          2   -1    0    0  501    0  0.00000000000E+00  0.00000000000E+00  0.13511778418E+04  0.13511778418E+04  0.00000000000E+00 0. -1.
         -1   -1    0    0    0  501 -0.00000000000E+00 -0.00000000000E+00 -0.31665925242E+03  0.31665925242E+03  0.00000000000E+00 0.  1.
         24    2    1    2    0    0  0.91781049669E+02 -0.10367482320E+03  0.66882158944E+03  0.68769221065E+03  0.80162510208E+02 0.  0.
        254    2    1    2    0    0 -0.91781049669E+02  0.10367482320E+03  0.36569699993E+03  0.98014488356E+03  0.89876441126E+03 0.  0.
         23    2    4    4    0    0  0.33762485318E+03  0.15127268991E+03  0.37880023740E+03  0.53731014971E+03  0.91315983950E+02 0.  0.
         23    2    4    4    0    0 -0.42940590285E+03 -0.47597866716E+02 -0.13103237461E+02  0.44283473385E+03  0.96311579520E+02 0.  0.
          2    1    3    3  502    0  0.10663604932E+03 -0.88250763796E+02  0.58928613091E+03  0.60532436627E+03  0.00000000000E+00 0. -1.
         -1    1    3    3    0  502 -0.14854999650E+02 -0.15424059403E+02  0.79535458538E+02  0.82367844380E+02  0.00000000000E+00 0.  1.
         13    1    5    5    0    0  0.31779542682E+03  0.15563502952E+03  0.32756317581E+03  0.48219687874E+03  0.00000000000E+00 0. -1.
        -13    1    5    5    0    0  0.19829426365E+02 -0.43623396017E+01  0.51237061583E+02  0.55113270965E+02  0.00000000000E+00 0.  1.
          1    1    6    6  503    0 -0.25955573475E+03 -0.74226843154E+02 -0.20607206834E+02  0.27074611845E+03  0.00000000000E+00 0. -1.
         -1    1    6    6    0  503 -0.16985016811E+03  0.26628976438E+02  0.75039693727E+01  0.17208861540E+03  0.00000000000E+00 0.  1.
<mgrwt>
<rscale>  0 0.13082247E+04</rscale>
<asrwt>0</asrwt>
<pdfrwt beam="1">  1        2 0.20787351E+00 0.13082247E+04</pdfrwt>
<pdfrwt beam="2">  1       -1 0.48716809E-01 0.13082247E+04</pdfrwt>
<totfact> 0.72673872E+01</totfact>
</mgrwt>
</event>
<event>
12    7  0.1675873E-007  0.1218513E+04  0.7818608E-02  0.9096805E-01
          2   -1    0    0  501    0  0.00000000000E+00  0.00000000000E+00  0.60901225555E+03  0.60901225555E+03  0.00000000000E+00 0. -1.
         -1   -1    0    0    0  501 -0.00000000000E+00 -0.00000000000E+00 -0.60950073109E+03  0.60950073109E+03  0.00000000000E+00 0.  1.
         24    2    1    2    0    0 -0.87160929777E+01  0.90128371777E+02 -0.25279413986E+03  0.28026893893E+03  0.80291389990E+02 0.  0.
        254    2    1    2    0    0  0.87160929777E+01 -0.90128371777E+02  0.25230566432E+03  0.93824404772E+03  0.89913550211E+03 0.  0.
         23    2    4    4    0    0 -0.37130013201E+03  0.18260321097E+03  0.96339626966E+02  0.43704221489E+03  0.10255170982E+03 0.  0.
         23    2    4    4    0    0  0.38001622498E+03 -0.27273158275E+03  0.15596603736E+03  0.50120183283E+03  0.89905644673E+02 0.  0.
          4    1    3    3  502    0  0.32625661285E+01  0.87731782529E+01  0.43315211622E+01  0.10313829065E+02  0.00000000000E+00 0. -1.
         -3    1    3    3    0  502 -0.11978659106E+02  0.81355193524E+02 -0.25712566102E+03  0.26995510986E+03  0.00000000000E+00 0.  1.
         13    1    5    5    0    0 -0.30738039577E+03  0.17292302235E+03  0.11288840910E+03  0.37030915769E+03  0.00000000000E+00 0. -1.
        -13    1    5    5    0    0 -0.63919736240E+02  0.96801886220E+01 -0.16548782139E+02  0.66733057198E+02  0.00000000000E+00 0.  1.
          4    1    6    6  503    0 -0.46696509274E+01 -0.52692921385E+01 -0.92807460742E+00  0.71015774235E+01  0.00000000000E+00 0.  1.
         -4    1    6    6    0  503  0.38468587591E+03 -0.26746229061E+03  0.15689411196E+03  0.49410025540E+03  0.00000000000E+00 0. -1.
<mgrwt>
<rscale>  0 0.12185129E+04</rscale>
<asrwt>0</asrwt>
<pdfrwt beam="1">  1        2 0.93694194E-01 0.12185129E+04</pdfrwt>
<pdfrwt beam="2">  1       -1 0.93769343E-01 0.12185129E+04</pdfrwt>
<totfact> 0.60516156E+01</totfact>
</mgrwt>
</event>
<event>
12    7  0.1675873E-007  0.1333558E+04  0.7818608E-02  0.9003369E-01
          2   -1    0    0  501    0  0.00000000000E+00  0.00000000000E+00  0.38868033686E+04  0.38868033686E+04  0.00000000000E+00 0. -1.
         -1   -1    0    0    0  501 -0.00000000000E+00 -0.00000000000E+00 -0.11438559296E+03  0.11438559296E+03  0.00000000000E+00 0.  1.
         24    2    1    2    0    0 -0.82204711038E+02  0.21858721907E+03  0.24048345442E+03  0.34437424457E+03  0.78888158933E+02 0.  0.
        254    2    1    2    0    0  0.82204711038E+02 -0.21858721907E+03  0.35319343212E+04  0.36568147170E+04  0.91825695642E+03 0.  0.
         23    2    4    4    0    0  0.27627006724E+03  0.27885732858E+03  0.16281819850E+04  0.16774781995E+04  0.94180537345E+02 0.  0.
         23    2    4    4    0    0 -0.19406535620E+03 -0.49744454765E+03  0.19037523362E+04  0.19793365175E+04  0.91584122269E+02 0.  0.
          4    1    3    3  502    0 -0.24416911409E+02  0.83588996756E+02  0.39912812831E+02  0.95793207324E+02  0.00000000000E+00 0. -1.
         -3    1    3    3    0  502 -0.57787799629E+02  0.13499822231E+03  0.20057064158E+03  0.24858103725E+03  0.00000000000E+00 0.  1.
         13    1    5    5    0    0  0.85000189348E+01  0.44156809505E+02  0.25185774675E+03  0.25584057290E+03  0.00000000000E+00 0. -1.
        -13    1    5    5    0    0  0.26777004831E+03  0.23470051908E+03  0.13763242383E+04  0.14216376266E+04  0.00000000000E+00 0.  1.
          1    1    6    6  503    0 -0.12907421387E+03 -0.20737107543E+03  0.88757981801E+03  0.92057636780E+03  0.00000000000E+00 0. -1.
         -1    1    6    6    0  503 -0.64991142333E+02 -0.29007347222E+03  0.10161725182E+04  0.10587601497E+04  0.00000000000E+00 0.  1.
<mgrwt>
<rscale>  0 0.13335581E+04</rscale>
<asrwt>0</asrwt>
<pdfrwt beam="1">  1        2 0.59796965E+00 0.13335581E+04</pdfrwt>
<pdfrwt beam="2">  1       -1 0.17597787E-01 0.13335581E+04</pdfrwt>
<totfact> 0.12212135E+01</totfact>
</mgrwt>
</event>
<event>
12    7  0.1675873E-007  0.1276630E+04  0.7818608E-02  0.9048306E-01
          4   -1    0    0  501    0  0.00000000000E+00  0.00000000000E+00  0.64213301124E+03  0.64213301124E+03  0.00000000000E+00 0. -1.
         -3   -1    0    0    0  501 -0.00000000000E+00 -0.00000000000E+00 -0.63451944773E+03  0.63451944773E+03  0.00000000000E+00 0.  1.
         24    2    1    2    0    0  0.14178201515E+03  0.26528390525E+03 -0.73681911042E+02  0.32025767468E+03  0.81598186091E+02 0.  0.
        254    2    1    2    0    0 -0.14178201515E+03 -0.26528390525E+03  0.81295474547E+02  0.95639478429E+03  0.90421476378E+03 0.  0.
         23    2    4    4    0    0  0.20271606826E+03 -0.46499674800E+03 -0.70496664306E+02  0.52029269365E+03  0.91754713257E+02 0.  0.
         23    2    4    4    0    0 -0.34449808340E+03  0.19971284275E+03  0.15179213885E+03  0.43610209064E+03  0.92628456826E+02 0.  0.
          4    1    3    3  502    0  0.53398972106E+01 -0.34814416570E+01  0.57141061906E+01  0.85607212189E+01  0.00000000000E+00 0. -1.
         -3    1    3    3    0  502  0.13644211793E+03  0.26876534691E+03 -0.79396017233E+02  0.31169695346E+03  0.00000000000E+00 0.  1.
         13    1    5    5    0    0 -0.22952873866E+01 -0.71815959631E+02 -0.15150635567E+02  0.73432568796E+02  0.00000000000E+00 0. -1.
        -13    1    5    5    0    0  0.20501135564E+03 -0.39318078837E+03 -0.55346028739E+02  0.44686012486E+03  0.00000000000E+00 0.  1.
          4    1    6    6  503    0 -0.31077200924E+03  0.14131294379E+03  0.12628115869E+03  0.36399934183E+03  0.00000000000E+00 0.  1.
         -4    1    6    6    0  503 -0.33726074159E+02  0.58399898964E+02  0.25510980163E+02  0.72102748810E+02  0.00000000000E+00 0. -1.
<mgrwt>
<rscale>  0 0.12766298E+04</rscale>
<asrwt>0</asrwt>
<pdfrwt beam="1">  1        4 0.98789694E-01 0.12766298E+04</pdfrwt>
<pdfrwt beam="2">  1       -3 0.97618377E-01 0.12766298E+04</pdfrwt>
<totfact> 0.17637087E+00</totfact>
</mgrwt>
</event>
<event>
12    7  0.1675873E-007  0.2131465E+04  0.7818608E-02  0.8547508E-01
          2   -1    0    0  501    0  0.00000000000E+00  0.00000000000E+00  0.54471321299E+03  0.54471321299E+03  0.00000000000E+00 0. -1.
         -1   -1    0    0    0  501 -0.00000000000E+00 -0.00000000000E+00 -0.20851085027E+04  0.20851085027E+04  0.00000000000E+00 0.  1.
         24    2    1    2    0    0 -0.58282585839E+03  0.55139045922E+03 -0.21796631298E+03  0.83539750601E+03  0.81622666765E+02 0.  0.
        254    2    1    2    0    0  0.58282585839E+03 -0.55139045922E+03 -0.13224289767E+04  0.17944242097E+04  0.90962763043E+03 0.  0.
         23    2    4    4    0    0  0.33882381116E+03  0.27161493846E+02 -0.10438023974E+04  0.11015794683E+04  0.91730902481E+02 0.  0.
         23    2    4    4    0    0  0.24400204723E+03 -0.57855195307E+03 -0.27862657937E+03  0.69284474138E+03  0.90231388517E+02 0.  0.
          2    1    3    3  502    0 -0.15939028920E+03  0.19641889794E+03 -0.87517036878E+02  0.26766561135E+03  0.00000000000E+00 0. -1.
         -1    1    3    3    0  502 -0.42343556919E+03  0.35497156129E+03 -0.13044927610E+03  0.56773189466E+03  0.00000000000E+00 0.  1.
         13    1    5    5    0    0  0.33579910051E+03  0.37852030180E+02 -0.10290273333E+04  0.10830932854E+04  0.00000000000E+00 0. -1.
        -13    1    5    5    0    0  0.30247106507E+01 -0.10690536334E+02 -0.14775064034E+02  0.18486182917E+02  0.00000000000E+00 0.  1.
          4    1    6    6  503    0  0.22395504778E+03 -0.51977056833E+03 -0.27841302333E+03  0.63073855019E+03  0.00000000000E+00 0. -1.
         -4    1    6    6    0  503  0.20046999446E+02 -0.58781384738E+02 -0.21355604245E+00  0.62106191195E+02  0.00000000000E+00 0.  1.
<mgrwt>
<rscale>  0 0.21314654E+04</rscale>
<asrwt>0</asrwt>
<pdfrwt beam="1">  1        2 0.83802033E-01 0.21314654E+04</pdfrwt>
<pdfrwt beam="2">  1       -1 0.32078592E+00 0.21314654E+04</pdfrwt>
<totfact> 0.14148414E+00</totfact>
</mgrwt>
</event>
<event>
12    7  0.1675873E-007  0.2398538E+04  0.7818608E-02  0.8440051E-01
         -1   -1    0    0    0  501 -0.00000000000E+00  0.00000000000E+00  0.86347555364E+03  0.86347555364E+03  0.00000000000E+00 0.  1.
          2   -1    0    0  501    0  0.00000000000E+00 -0.00000000000E+00 -0.16656483713E+04  0.16656483713E+04  0.00000000000E+00 0. -1.
         24    2    1    2    0    0 -0.77464259867E+03  0.62705308281E+03 -0.77611287216E+02  0.10028756105E+04  0.80431672790E+02 0.  0.
        254    2    1    2    0    0  0.77464259867E+03 -0.62705308281E+03 -0.72456153045E+03  0.15262483144E+04  0.90065408534E+03 0.  0.
         23    2    4    4    0    0  0.41593732405E+02 -0.44144282613E+03 -0.60534265130E+03  0.75535231408E+03  0.86692477056E+02 0.  0.
         23    2    4    4    0    0  0.73304886627E+03 -0.18561025668E+03 -0.11921887915E+03  0.77089600032E+03  0.90860852108E+02 0.  0.
          4    1    3    3  502    0 -0.98876899831E+01  0.23533122588E+02  0.57593572655E+00  0.25532449430E+02  0.00000000000E+00 0. -1.
         -3    1    3    3    0  502 -0.76475490869E+03  0.60351996022E+03 -0.78187222942E+02  0.97734316112E+03  0.00000000000E+00 0.  1.
         13    1    5    5    0    0  0.36261688275E+02 -0.41834623424E+03 -0.52893531337E+03  0.67535253569E+03  0.00000000000E+00 0. -1.
        -13    1    5    5    0    0  0.53320441302E+01 -0.23096591894E+02 -0.76407337929E+02  0.79999778381E+02  0.00000000000E+00 0.  1.
          2    1    6    6  503    0  0.18334683550E+03 -0.13560190089E+02 -0.64355496810E+01  0.18396020533E+03  0.00000000000E+00 0. -1.
         -2    1    6    6    0  503  0.54970203076E+03 -0.17205006659E+03 -0.11278332947E+03  0.58693579499E+03  0.00000000000E+00 0.  1.
<mgrwt>
<rscale>  0 0.23985384E+04</rscale>
<asrwt>0</asrwt>
<pdfrwt beam="1">  1        2 0.25625359E+00 0.23985384E+04</pdfrwt>
<pdfrwt beam="2">  1       -1 0.13284239E+00 0.23985384E+04</pdfrwt>
<totfact> 0.50381446E+00</totfact>
</mgrwt>
</event>
<event>
12    7  0.1675873E-007  0.1237282E+04  0.7818608E-02  0.9080835E-01
         -1   -1    0    0    0  501 -0.00000000000E+00  0.00000000000E+00  0.47492692753E+03  0.47492692753E+03  0.00000000000E+00 0.  1.
          2   -1    0    0  501    0  0.00000000000E+00 -0.00000000000E+00 -0.80584381158E+03  0.80584381158E+03  0.00000000000E+00 0. -1.
         24    2    1    2    0    0 -0.27756747065E+03 -0.12225228616E+02 -0.26421656338E+02  0.29024965199E+03  0.79709469809E+02 0.  0.
        254    2    1    2    0    0  0.27756747065E+03  0.12225228616E+02 -0.30449522771E+03  0.99052108712E+03  0.90067836843E+03 0.  0.
         23    2    4    4    0    0 -0.14648063362E+03  0.21958576951E+03  0.15949596139E+03  0.32227975747E+03  0.93545679658E+02 0.  0.
         23    2    4    4    0    0  0.42404810427E+03 -0.20736054089E+03 -0.46399118910E+03  0.66824132965E+03  0.91888315028E+02 0.  0.
          2    1    3    3  502    0 -0.64967856726E+02 -0.36844231829E+02 -0.72003206163E+00  0.74691621169E+02  0.00000000000E+00 0. -1.
         -1    1    3    3    0  502 -0.21259961393E+03  0.24619003213E+02 -0.25701624276E+02  0.21555803082E+03  0.00000000000E+00 0.  1.
         13    1    5    5    0    0 -0.31951459362E+02  0.79787808723E+02  0.77463606681E+01  0.86295980670E+02  0.00000000000E+00 0.  1.
        -13    1    5    5    0    0 -0.11452917425E+03  0.13979796078E+03  0.15174960073E+03  0.23598377680E+03  0.00000000000E+00 0. -1.
          3    1    6    6  503    0  0.17469889254E+03 -0.13639984599E+03 -0.21266259167E+03  0.30716444934E+03  0.00000000000E+00 0. -1.
         -3    1    6    6    0  503  0.24934921172E+03 -0.70960694896E+02 -0.25132859744E+03  0.36107688031E+03  0.00000000000E+00 0.  1.
<mgrwt>
<rscale>  0 0.12372824E+04</rscale>
<asrwt>0</asrwt>
<pdfrwt beam="1">  1        2 0.12397597E+00 0.12372824E+04</pdfrwt>
<pdfrwt beam="2">  1       -1 0.73065681E-01 0.12372824E+04</pdfrwt>
<totfact> 0.72405931E+01</totfact>
</mgrwt>
</event>
<event>
12    7  0.1675873E-007  0.1393345E+04  0.7818608E-02  0.8958650E-01
         -1   -1    0    0    0  501 -0.00000000000E+00  0.00000000000E+00  0.20013000882E+03  0.20013000882E+03  0.00000000000E+00 0.  1.
          2   -1    0    0  501    0  0.00000000000E+00 -0.00000000000E+00 -0.24251854773E+04  0.24251854773E+04  0.00000000000E+00 0. -1.
         24    2    1    2    0    0 -0.34489983542E+03 -0.68366228547E+02 -0.29806734761E+03  0.46896632783E+03  0.86344862325E+02 0.  0.
        254    2    1    2    0    0  0.34489983542E+03  0.68366228547E+02 -0.19269881208E+04  0.21563491583E+04  0.90162555243E+03 0.  0.
         23    2    4    4    0    0  0.15680635792E+03  0.15309598949E+03 -0.22012110619E+02  0.23838145736E+03  0.91184265735E+02 0.  0.
         23    2    4    4    0    0  0.18809347750E+03 -0.84729760948E+02 -0.19049760102E+04  0.19179677009E+04  0.84310221801E+02 0.  0.
          2    1    3    3  502    0 -0.64634993574E+02  0.20567948646E+02 -0.61923016669E+02  0.91843251789E+02  0.00000000000E+00 0. -1.
         -3    1    3    3    0  502 -0.28026484185E+03 -0.88934177193E+02 -0.23614433094E+03  0.37712307604E+03  0.00000000000E+00 0.  1.
         13    1    5    5    0    0  0.26996156978E+02  0.64267811893E+02 -0.39496723676E+02  0.80119506478E+02  0.00000000000E+00 0.  1.
        -13    1    5    5    0    0  0.12981020094E+03  0.88828177602E+02  0.17484613058E+02  0.15826195088E+03  0.00000000000E+00 0. -1.
          1    1    6    6  503    0  0.13855512730E+03 -0.55503787648E+02 -0.16422800692E+04  0.16490488227E+04  0.00000000000E+00 0. -1.
         -1    1    6    6    0  503  0.49538350209E+02 -0.29225973299E+02 -0.26269594098E+03  0.26891887822E+03  0.00000000000E+00 0.  1.
<mgrwt>
<rscale>  0 0.13933447E+04</rscale>
<asrwt>0</asrwt>
<pdfrwt beam="1">  1        2 0.37310548E+00 0.13933447E+04</pdfrwt>
<pdfrwt beam="2">  1       -1 0.30789230E-01 0.13933447E+04</pdfrwt>
<totfact> 0.41700842E+01</totfact>
</mgrwt>
</event>
<event>
12    7  0.1675873E-007  0.1558704E+04  0.7818608E-02  0.8846327E-01
          2   -1    0    0  501    0  0.00000000000E+00  0.00000000000E+00  0.87390053193E+03  0.87390053193E+03  0.00000000000E+00 0. -1.
         -1   -1    0    0    0  501 -0.00000000000E+00 -0.00000000000E+00 -0.69503239242E+03  0.69503239242E+03  0.00000000000E+00 0.  1.
         24    2    1    2    0    0 -0.45041999024E+03 -0.43900646080E+02  0.31381745655E+03  0.55588767157E+03  0.75658925647E+02 0.  0.
        254    2    1    2    0    0  0.45041999024E+03  0.43900646080E+02 -0.13494931704E+03  0.10130452528E+04  0.89623876934E+03 0.  0.
         23    2    4    4    0    0  0.66540098706E+03 -0.14818305550E+03 -0.16573254894E+02  0.68795765180E+03  0.91073412075E+02 0.  0.
         23    2    4    4    0    0 -0.21498099682E+03  0.19208370158E+03 -0.11837606215E+03  0.32508760097E+03  0.92499074651E+02 0.  0.
          4    1    3    3  502    0 -0.43675189258E+03 -0.41465356446E+02  0.31746779257E+03  0.54153244666E+03  0.00000000000E+00 0. -1.
         -3    1    3    3    0  502 -0.13668097656E+02 -0.24352896337E+01 -0.36503360227E+01  0.14355224910E+02  0.00000000000E+00 0.  1.
         13    1    5    5    0    0  0.21027245817E+02 -0.10134015128E+00 -0.16595939385E+02  0.26787693826E+02  0.00000000000E+00 0.  1.
        -13    1    5    5    0    0  0.64437374124E+03 -0.14808171535E+03  0.22684491119E-01  0.66116995798E+03  0.00000000000E+00 0. -1.
          4    1    6    6  503    0 -0.12321955057E+03  0.57469342846E+02 -0.28111803612E+02  0.13883823866E+03  0.00000000000E+00 0.  1.
         -4    1    6    6    0  503 -0.91761446242E+02  0.13461435874E+03 -0.90264258537E+02  0.18624936232E+03  0.00000000000E+00 0. -1.
<mgrwt>
<rscale>  0 0.15587035E+04</rscale>
<asrwt>0</asrwt>
<pdfrwt beam="1">  1        2 0.13444624E+00 0.15587035E+04</pdfrwt>
<pdfrwt beam="2">  1       -1 0.10692806E+00 0.15587035E+04</pdfrwt>
<totfact> 0.27374555E+01</totfact>
</mgrwt>
</event>
<event>
12    7  0.1675873E-007  0.1762608E+04  0.7818608E-02  0.8726441E-01
         -1   -1    0    0    0  501 -0.00000000000E+00  0.00000000000E+00  0.17716294047E+04  0.17716294047E+04  0.00000000000E+00 0.  1.
          2   -1    0    0  501    0  0.00000000000E+00 -0.00000000000E+00 -0.43840826529E+03  0.43840826529E+03  0.00000000000E+00 0. -1.
         24    2    1    2    0    0  0.34980496166E+03 -0.55465888280E+03  0.53574502229E+03  0.85061841444E+03  0.80740142410E+02 0.  0.
        254    2    1    2    0    0 -0.34980496166E+03  0.55465888280E+03  0.79747611712E+03  0.13594192556E+04  0.88433170672E+03 0.  0.
         23    2    4    4    0    0 -0.32179000069E+03  0.10091973952E+03 -0.88344171416E+02  0.35953407959E+03  0.87900303743E+02 0.  0.
         23    2    4    4    0    0 -0.28014960972E+02  0.45373914328E+03  0.88582028854E+03  0.99988517596E+03  0.91808133226E+02 0.  0.
          2    1    3    3  502    0  0.30776877848E+03 -0.52701575683E+03  0.49112286989E+03  0.78337022045E+03  0.00000000000E+00 0. -1.
         -1    1    3    3    0  502  0.42036183182E+02 -0.27643125970E+02  0.44622152404E+02  0.67248193991E+02  0.00000000000E+00 0.  1.
         13    1    5    5    0    0 -0.70196986818E+02  0.60937277757E+02 -0.12902293927E+02  0.93847951322E+02  0.00000000000E+00 0.  1.
        -13    1    5    5    0    0 -0.25159301387E+03  0.39982461764E+02 -0.75441877488E+02  0.26568612827E+03  0.00000000000E+00 0. -1.
          2    1    6    6  503    0  0.99311625863E+01  0.12440680127E+03  0.16869639089E+03  0.20984316165E+03  0.00000000000E+00 0. -1.
         -2    1    6    6    0  503 -0.37946123559E+02  0.32933234201E+03  0.71712389765E+03  0.79004201430E+03  0.00000000000E+00 0.  1.
<mgrwt>
<rscale>  0 0.17626083E+04</rscale>
<asrwt>0</asrwt>
<pdfrwt beam="1">  1        2 0.67447427E-01 0.17626083E+04</pdfrwt>
<pdfrwt beam="2">  1       -1 0.27255837E+00 0.17626083E+04</pdfrwt>
<totfact> 0.38597247E+00</totfact>
</mgrwt>
</event>
<event>
12    7  0.1675873E-007  0.1381534E+04  0.7818608E-02  0.8967295E-01
          2   -1    0    0  501    0  0.00000000000E+00  0.00000000000E+00  0.15289468430E+04  0.15289468430E+04  0.00000000000E+00 0. -1.
         -1   -1    0    0    0  501 -0.00000000000E+00 -0.00000000000E+00 -0.31208354504E+03  0.31208354504E+03  0.00000000000E+00 0.  1.
         24    2    1    2    0    0  0.36108718380E+02 -0.34921440070E+03  0.58167309378E+03  0.68301660313E+03  0.70096754028E+02 0.  0.
        254    2    1    2    0    0 -0.36108718380E+02  0.34921440070E+03  0.63519020415E+03  0.11580137849E+04  0.90237176005E+03 0.  0.
         23    2    4    4    0    0 -0.53322070425E+01  0.63618405340E+03  0.30829315818E+03  0.71268235963E+03  0.90071594333E+02 0.  0.
         23    2    4    4    0    0 -0.30776511337E+02 -0.28696965270E+03  0.32689704597E+03  0.44533142526E+03  0.90330639529E+02 0.  0.
          4    1    3    3  502    0  0.52371770099E+01 -0.22766425535E+03  0.42663102851E+03  0.48360363489E+03  0.00000000000E+00 0. -1.
         -3    1    3    3    0  502  0.30871541370E+02 -0.12155014534E+03  0.15504206526E+03  0.19941296824E+03  0.00000000000E+00 0.  1.
         13    1    5    5    0    0 -0.23794436284E+02  0.60608117888E+03  0.29859305763E+03  0.67606093265E+03  0.00000000000E+00 0. -1.
        -13    1    5    5    0    0  0.18462229242E+02  0.30102874526E+02  0.97001005492E+01  0.36621426979E+02  0.00000000000E+00 0.  1.
          3    1    6    6  503    0 -0.47439398086E+01 -0.26364891634E+03  0.30848400017E+03  0.40582709916E+03  0.00000000000E+00 0. -1.
         -3    1    6    6    0  503 -0.26032571529E+02 -0.23320736363E+02  0.18413045799E+02  0.39504326098E+02  0.00000000000E+00 0.  1.
<mgrwt>
<rscale>  0 0.13815341E+04</rscale>
<asrwt>0</asrwt>
<pdfrwt beam="1">  1        2 0.23522259E+00 0.13815341E+04</pdfrwt>
<pdfrwt beam="2">  1       -1 0.48012854E-01 0.13815341E+04</pdfrwt>
<totfact> 0.58847480E+01</totfact>
</mgrwt>
</event>
<event>
12    7  0.1675873E-007  0.1442823E+04  0.7818608E-02  0.8923391E-01
          4   -1    0    0  501    0  0.00000000000E+00  0.00000000000E+00  0.54277885752E+03  0.54277885752E+03  0.00000000000E+00 0. -1.
         -3   -1    0    0    0  501 -0.00000000000E+00 -0.00000000000E+00 -0.95883322987E+03  0.95883322987E+03  0.00000000000E+00 0.  1.
         24    2    1    2    0    0  0.22339235399E+03 -0.39716037767E+02 -0.51282135847E+03  0.56637136336E+03  0.79430901144E+02 0.  0.
        254    2    1    2    0    0 -0.22339235399E+03  0.39716037767E+02  0.96766986126E+02  0.93524072403E+03  0.90212518799E+03 0.  0.
         23    2    4    4    0    0 -0.13754563973E+03 -0.41591173239E+03 -0.19502630315E+02  0.44789233061E+03  0.91245904452E+02 0.  0.
         23    2    4    4    0    0 -0.85846714252E+02  0.45562777016E+03  0.11626961644E+03  0.48734839342E+03  0.94992155334E+02 0.  0.
          4    1    3    3  502    0  0.13202456463E+03  0.15602746146E+02 -0.26361247655E+03  0.29523798730E+03  0.00000000000E+00 0. -1.
         -3    1    3    3    0  502  0.91367789358E+02 -0.55318783913E+02 -0.24920888193E+03  0.27113337606E+03  0.00000000000E+00 0.  1.
         13    1    5    5    0    0 -0.86750627041E+02 -0.30483156654E+03  0.24940162610E+02  0.31791503104E+03  0.00000000000E+00 0.  1.
        -13    1    5    5    0    0 -0.50795012693E+02 -0.11108016585E+03 -0.44442792925E+02  0.12997729957E+03  0.00000000000E+00 0. -1.
          1    1    6    6  503    0  0.10226211894E+02  0.41882412044E+01 -0.11128651600E+01  0.11106540548E+02  0.00000000000E+00 0. -1.
         -1    1    6    6    0  503 -0.96072926146E+02  0.45143952895E+03  0.11738248160E+03  0.47624185287E+03  0.00000000000E+00 0.  1.
<mgrwt>
<rscale>  0 0.14428228E+04</rscale>
<asrwt>0</asrwt>
<pdfrwt beam="1">  1        4 0.83504442E-01 0.14428228E+04</pdfrwt>
<pdfrwt beam="2">  1       -3 0.14751280E+00 0.14428228E+04</pdfrwt>
<totfact> 0.94094475E-01</totfact>
</mgrwt>
</event>
<event>
12    7  0.1675873E-007  0.1150850E+04  0.7818608E-02  0.9157000E-01
          2   -1    0    0  501    0  0.00000000000E+00  0.00000000000E+00  0.19756461604E+04  0.19756461604E+04  0.00000000000E+00 0. -1.
         -1   -1    0    0    0  501 -0.00000000000E+00 -0.00000000000E+00 -0.16759776764E+03  0.16759776764E+03  0.00000000000E+00 0.  1.
         24    2    1    2    0    0 -0.13303808889E+03 -0.53224119669E+02  0.63742492754E+03  0.65815854498E+03  0.79562504199E+02 0.  0.
        254    2    1    2    0    0  0.13303808889E+03  0.53224119669E+02  0.11706234652E+04  0.14850853831E+04  0.90254493386E+03 0.  0.
         23    2    4    4    0    0 -0.90161739371E+02 -0.38005268008E+03  0.39171443176E+03  0.56179259604E+03  0.97987478923E+02 0.  0.
         23    2    4    4    0    0  0.22319982826E+03  0.43327679975E+03  0.77890903345E+03  0.92329278701E+03  0.90682631302E+02 0.  0.
          2    1    3    3  502    0 -0.10585450786E+03 -0.37149689572E+02  0.59378969171E+03  0.60429419511E+03  0.00000000000E+00 0. -1.
         -1    1    3    3    0  502 -0.27183581034E+02 -0.16074430097E+02  0.43635235833E+02  0.53864349871E+02  0.00000000000E+00 0.  1.
         13    1    5    5    0    0 -0.42702608230E+02 -0.26659579473E+03  0.32275955227E+03  0.42079752744E+03  0.00000000000E+00 0. -1.
        -13    1    5    5    0    0 -0.47459131141E+02 -0.11345688535E+03  0.68954879490E+02  0.14099506860E+03  0.00000000000E+00 0.  1.
          2    1    6    6  503    0  0.16642634859E+03  0.35820843578E+03  0.68253406149E+03  0.78858338689E+03  0.00000000000E+00 0. -1.
         -2    1    6    6    0  503  0.56773479677E+02  0.75068363968E+02  0.96374971957E+02  0.13470940013E+03  0.00000000000E+00 0.  1.
<mgrwt>
<rscale>  0 0.11508499E+04</rscale>
<asrwt>0</asrwt>
<pdfrwt beam="1">  1        2 0.30394555E+00 0.11508499E+04</pdfrwt>
<pdfrwt beam="2">  1       -1 0.25784273E-01 0.11508499E+04</pdfrwt>
<totfact> 0.10338738E+02</totfact>
</mgrwt>
</event>
<event>
12    7  0.1675873E-007  0.1492636E+04  0.7818608E-02  0.8889365E-01
         -1   -1    0    0    0  501 -0.00000000000E+00  0.00000000000E+00  0.23900662945E+03  0.23900662945E+03  0.00000000000E+00 0.  1.
          2   -1    0    0  501    0  0.00000000000E+00 -0.00000000000E+00 -0.23304390217E+04  0.23304390217E+04  0.00000000000E+00 0. -1.
         24    2    1    2    0    0 -0.11181124210E+03  0.42914723880E+03 -0.96036412104E+03  0.10608236835E+04  0.79865737484E+02 0.  0.
        254    2    1    2    0    0  0.11181124210E+03 -0.42914723880E+03 -0.11310682712E+04  0.15086219677E+04  0.89440242665E+03 0.  0.
         23    2    4    4    0    0  0.22832831291E+03 -0.63782461012E+03 -0.56404552997E+03  0.88634848445E+03  0.92261716073E+02 0.  0.
         23    2    4    4    0    0 -0.11651707081E+03  0.20867737132E+03 -0.56702274126E+03  0.62227348324E+03  0.92666206087E+02 0.  0.
          2    1    3    3  502    0 -0.33095816190E+02  0.36186303067E+02 -0.12581119906E+03  0.13503051281E+03  0.00000000000E+00 0. -1.
         -1    1    3    3    0  502 -0.78715425913E+02  0.39296093574E+03 -0.83455292198E+03  0.92579317068E+03  0.00000000000E+00 0.  1.
         13    1    5    5    0    0  0.76596652392E+02 -0.19785000331E+03 -0.12340366795E+03  0.24543866083E+03  0.00000000000E+00 0.  1.
        -13    1    5    5    0    0  0.15173166052E+03 -0.43997460681E+03 -0.44064186203E+03  0.64090982362E+03  0.00000000000E+00 0. -1.
          1    1    6    6  503    0 -0.72070622987E+02  0.19610973871E+03 -0.48604067529E+03  0.52904512317E+03  0.00000000000E+00 0. -1.
         -1    1    6    6    0  503 -0.44446447819E+02  0.12567632615E+02 -0.80982065973E+02  0.93228360076E+02  0.00000000000E+00 0.  1.
<mgrwt>
<rscale>  0 0.14926358E+04</rscale>
<asrwt>0</asrwt>
<pdfrwt beam="1">  1        2 0.35852907E+00 0.14926358E+04</pdfrwt>
<pdfrwt beam="2">  1       -1 0.36770251E-01 0.14926358E+04</pdfrwt>
<totfact> 0.34115033E+01</totfact>
</mgrwt>
</event>
<event>
12    7  0.1675873E-007  0.1540333E+04  0.7818608E-02  0.8858066E-01
         -1   -1    0    0    0  501 -0.00000000000E+00  0.00000000000E+00  0.38301783460E+03  0.38301783460E+03  0.00000000000E+00 0.  1.
          2   -1    0    0  501    0  0.00000000000E+00 -0.00000000000E+00 -0.15486385411E+04  0.15486385411E+04  0.00000000000E+00 0. -1.
         24    2    1    2    0    0  0.38920609074E+03  0.27781274671E+03 -0.74936773259E+03  0.89262771923E+03  0.81061354439E+02 0.  0.
        254    2    1    2    0    0 -0.38920609074E+03 -0.27781274671E+03 -0.41625297390E+03  0.10390286565E+04  0.82319663956E+03 0.  0.
         23    2    4    4    0    0 -0.54003435904E+03 -0.34418975833E+03 -0.76784738358E+02  0.65153183768E+03  0.92163663001E+02 0.  0.
         23    2    4    4    0    0  0.15082826831E+03  0.66377011618E+02 -0.33946823554E+03  0.38749681879E+03  0.88091017936E+02 0.  0.
          4    1    3    3  502    0  0.27102727618E+02  0.42337338608E+02 -0.11110742100E+03  0.12195026480E+03  0.00000000000E+00 0. -1.
         -3    1    3    3    0  502  0.36210336312E+03  0.23547540810E+03 -0.63826031159E+03  0.77067745442E+03  0.00000000000E+00 0.  1.
         13    1    5    5    0    0 -0.15329604441E+02 -0.20634904564E+02 -0.19824013538E+02  0.32462094379E+02  0.00000000000E+00 0. -1.
        -13    1    5    5    0    0 -0.52470475460E+03 -0.32355485376E+03 -0.56960724820E+02  0.61906974330E+03  0.00000000000E+00 0.  1.
          3    1    6    6  503    0  0.69485804103E+02  0.26897437126E+02 -0.66240923826E+02  0.99697588161E+02  0.00000000000E+00 0. -1.
         -3    1    6    6    0  503  0.81342464203E+02  0.39479574492E+02 -0.27322731172E+03  0.28779923063E+03  0.00000000000E+00 0.  1.
<mgrwt>
<rscale>  0 0.15403327E+04</rscale>
<asrwt>0</asrwt>
<pdfrwt beam="1">  1        2 0.23825208E+00 0.15403327E+04</pdfrwt>
<pdfrwt beam="2">  1       -1 0.58925821E-01 0.15403327E+04</pdfrwt>
<totfact> 0.38178412E+01</totfact>
</mgrwt>
</event>
<event>
12    7  0.1675873E-007  0.2445866E+04  0.7818608E-02  0.8422529E-01
          2   -1    0    0  501    0  0.00000000000E+00  0.00000000000E+00  0.10519255702E+04  0.10519255702E+04  0.00000000000E+00 0. -1.
         -1   -1    0    0    0  501 -0.00000000000E+00 -0.00000000000E+00 -0.14217407549E+04  0.14217407549E+04  0.00000000000E+00 0.  1.
         24    2    1    2    0    0 -0.75285712560E+03 -0.34857487707E+03  0.47868286173E+03  0.96117343098E+03  0.80117325384E+02 0.  0.
        254    2    1    2    0    0  0.75285712560E+03  0.34857487707E+03 -0.84849804642E+03  0.15124928942E+04  0.93775664420E+03 0.  0.
         23    2    4    4    0    0  0.36047385584E+03  0.38424906894E+03  0.40312394373E+02  0.53602196918E+03  0.90031742099E+02 0.  0.
         23    2    4    4    0    0  0.39238326976E+03 -0.35674191874E+02 -0.88881044079E+03  0.97647092501E+03  0.90962571306E+02 0.  0.
          2    1    3    3  502    0 -0.72341351882E+03 -0.34218471318E+03  0.44380790530E+03  0.91508630957E+03  0.00000000000E+00 0. -1.
         -1    1    3    3    0  502 -0.29443606775E+02 -0.63901638895E+01  0.34874956430E+02  0.46087121416E+02  0.00000000000E+00 0.  1.
         13    1    5    5    0    0  0.25437283120E+03  0.32315346312E+03  0.18611573505E+02  0.41167959465E+03  0.00000000000E+00 0. -1.
        -13    1    5    5    0    0  0.10610102463E+03  0.61095605816E+02  0.21700820868E+02  0.12434237453E+03  0.00000000000E+00 0.  1.
          4    1    6    6  503    0  0.30905232450E+03 -0.29686865095E+02 -0.59660289036E+03  0.67255457624E+03  0.00000000000E+00 0. -1.
         -4    1    6    6    0  503  0.83330945261E+02 -0.59873267787E+01 -0.29220755043E+03  0.30391634877E+03  0.00000000000E+00 0.  1.
<mgrwt>
<rscale>  0 0.24458663E+04</rscale>
<asrwt>0</asrwt>
<pdfrwt beam="1">  1        2 0.16183470E+00 0.24458663E+04</pdfrwt>
<pdfrwt beam="2">  1       -1 0.21872935E+00 0.24458663E+04</pdfrwt>
<totfact> 0.26756394E+00</totfact>
</mgrwt>
</event>
<event>
12    7  0.1675873E-007  0.1612690E+04  0.7818608E-02  0.8812790E-01
          2   -1    0    0  501    0  0.00000000000E+00  0.00000000000E+00  0.21084974660E+04  0.21084974660E+04  0.00000000000E+00 0. -1.
         -1   -1    0    0    0  501 -0.00000000000E+00 -0.00000000000E+00 -0.30836744823E+03  0.30836744823E+03  0.00000000000E+00 0.  1.
         24    2    1    2    0    0 -0.16320711955E+02 -0.27149710536E+03 -0.10659190082E+03  0.30290431731E+03  0.80075890655E+02 0.  0.
        254    2    1    2    0    0  0.16320711955E+02  0.27149710536E+03  0.19067219186E+04  0.21139605969E+04  0.87135749644E+03 0.  0.
         23    2    4    4    0    0  0.20465759483E+03 -0.25818342350E+03  0.65250759336E+03  0.73667244698E+03  0.91524441789E+02 0.  0.
         23    2    4    4    0    0 -0.18833688287E+03  0.52968052887E+03  0.12542143252E+04  0.13772881500E+04  0.88525873237E+02 0.  0.
          4    1    3    3  502    0 -0.43439291329E+02 -0.95946477902E+02 -0.30408252112E+02  0.10962372211E+03  0.00000000000E+00 0. -1.
         -3    1    3    3    0  502  0.27118579373E+02 -0.17555062746E+03 -0.76183648712E+02  0.19328059520E+03  0.00000000000E+00 0.  1.
         13    1    5    5    0    0  0.51887015820E+01 -0.44120928688E+02  0.50051751389E+02  0.66923514474E+02  0.00000000000E+00 0.  1.
        -13    1    5    5    0    0  0.19946889325E+03 -0.21406249481E+03  0.60245584198E+03  0.66974893250E+03  0.00000000000E+00 0. -1.
          1    1    6    6  503    0 -0.15227793145E+03  0.40896529903E+03  0.10535194210E+04  0.11403264246E+04  0.00000000000E+00 0. -1.
         -1    1    6    6    0  503 -0.36058951429E+02  0.12071522984E+03  0.20069490429E+03  0.23696172539E+03  0.00000000000E+00 0.  1.
<mgrwt>
<rscale>  0 0.16126897E+04</rscale>
<asrwt>0</asrwt>
<pdfrwt beam="1">  1        2 0.32438422E+00 0.16126897E+04</pdfrwt>
<pdfrwt beam="2">  1       -1 0.47441147E-01 0.16126897E+04</pdfrwt>
<totfact> 0.28135025E+01</totfact>
</mgrwt>
</event>
<event>
12    7  0.1675873E-007  0.1202476E+04  0.7818608E-02  0.9110692E-01
          2   -1    0    0  501    0  0.00000000000E+00  0.00000000000E+00  0.10354433110E+04  0.10354433110E+04  0.00000000000E+00 0. -1.
         -1   -1    0    0    0  501 -0.00000000000E+00 -0.00000000000E+00 -0.34911329453E+03  0.34911329453E+03  0.00000000000E+00 0.  1.
         24    2    1    2    0    0  0.17811842033E+03 -0.38433630735E+02 -0.53640240815E+02  0.20723505201E+03  0.82859976564E+02 0.  0.
        254    2    1    2    0    0 -0.17811842033E+03  0.38433630735E+02  0.73997025725E+03  0.11773215535E+04  0.89739999057E+03 0.  0.
         23    2    4    4    0    0 -0.23663535685E+03  0.49701873793E+02 -0.13759964573E+03  0.29302851064E+03  0.92008027763E+02 0.  0.
         23    2    4    4    0    0  0.58516936528E+02 -0.11268243058E+02  0.87756990298E+03  0.88429304285E+03  0.91071652272E+02 0.  0.
          4    1    3    3  502    0  0.22451145355E+02  0.22816035714E+02 -0.16244466272E+01  0.32050963173E+02  0.00000000000E+00 0. -1.
         -3    1    3    3    0  502  0.15566727497E+03 -0.61249666449E+02 -0.52015794188E+02  0.17518408884E+03  0.00000000000E+00 0.  1.
         13    1    5    5    0    0 -0.70951235558E+02 -0.21217771355E+02 -0.16424926800E+02  0.75855453785E+02  0.00000000000E+00 0.  1.
        -13    1    5    5    0    0 -0.16568412130E+03  0.70919645148E+02 -0.12117471893E+03  0.21717305686E+03  0.00000000000E+00 0. -1.
          4    1    6    6  503    0  0.49287071535E+02 -0.49231105880E+02  0.58057643288E+03  0.58474089272E+03  0.00000000000E+00 0. -1.
         -4    1    6    6    0  503  0.92298649928E+01  0.37962862822E+02  0.29699347011E+03  0.29955215013E+03  0.00000000000E+00 0.  1.
<mgrwt>
<rscale>  0 0.12024758E+04</rscale>
<asrwt>0</asrwt>
<pdfrwt beam="1">  1        2 0.15929897E+00 0.12024758E+04</pdfrwt>
<pdfrwt beam="2">  1       -1 0.53709738E-01 0.12024758E+04</pdfrwt>
<totfact> 0.94105878E+01</totfact>
</mgrwt>
</event>
<event>
12    7  0.1675873E-007  0.1521135E+04  0.7818608E-02  0.8870519E-01
          2   -1    0    0  501    0  0.00000000000E+00  0.00000000000E+00  0.64191637326E+03  0.64191637326E+03  0.00000000000E+00 0. -1.
         -1   -1    0    0    0  501 -0.00000000000E+00 -0.00000000000E+00 -0.90115037600E+03  0.90115037600E+03  0.00000000000E+00 0.  1.
         24    2    1    2    0    0  0.33315634376E+02 -0.40225788794E+03  0.20085502451E+03  0.45778899812E+03  0.79414646173E+02 0.  0.
        254    2    1    2    0    0 -0.33315634376E+02  0.40225788794E+03 -0.46008902726E+03  0.10852777511E+04  0.89622795326E+03 0.  0.
         23    2    4    4    0    0 -0.15424000137E+03 -0.18270575296E+03 -0.40071399588E+03  0.47684463434E+03  0.98171933977E+02 0.  0.
         23    2    4    4    0    0  0.12092436700E+03  0.58496364090E+03 -0.59375031381E+02  0.60843311680E+03  0.99299041051E+02 0.  0.
          2    1    3    3  502    0  0.37768749698E+02 -0.25253634987E+03  0.16419449009E+03  0.30358016575E+03  0.00000000000E+00 0. -1.
         -1    1    3    3    0  502 -0.44531153228E+01 -0.14972153807E+03  0.36660534419E+02  0.15420883237E+03  0.00000000000E+00 0.  1.
         13    1    5    5    0    0 -0.47933760732E+02 -0.51008545931E+02 -0.21246741223E+03  0.22370051058E+03  0.00000000000E+00 0.  1.
        -13    1    5    5    0    0 -0.10630624064E+03 -0.13169720703E+03 -0.18824658365E+03  0.25314412376E+03  0.00000000000E+00 0. -1.
          2    1    6    6  503    0  0.77651991004E+02  0.51500861419E+03 -0.69923346073E+02  0.52550259630E+03  0.00000000000E+00 0.  1.
         -2    1    6    6    0  503  0.43272375994E+02  0.69955026713E+02  0.10548314692E+02  0.82930520494E+02  0.00000000000E+00 0. -1.
<mgrwt>
<rscale>  0 0.15211353E+04</rscale>
<asrwt>0</asrwt>
<pdfrwt beam="1">  1        2 0.98756366E-01 0.15211353E+04</pdfrwt>
<pdfrwt beam="2">  1       -1 0.13863852E+00 0.15211353E+04</pdfrwt>
<totfact> 0.21643299E+01</totfact>
</mgrwt>
</event>
<event>
12    7  0.1675873E-007  0.1724467E+04  0.7818608E-02  0.8747532E-01
         -1   -1    0    0    0  501 -0.00000000000E+00  0.00000000000E+00  0.40536782451E+03  0.40536782451E+03  0.00000000000E+00 0.  1.
          2   -1    0    0  501    0  0.00000000000E+00 -0.00000000000E+00 -0.18340053246E+04  0.18340053246E+04  0.00000000000E+00 0. -1.
         24    2    1    2    0    0  0.38124695963E+03  0.24967256495E+03 -0.11267315643E+04  0.12180351577E+04  0.79999960012E+02 0.  0.
        254    2    1    2    0    0 -0.38124695963E+03 -0.24967256495E+03 -0.30190593581E+03  0.10213379914E+04  0.86272734085E+03 0.  0.
         23    2    4    4    0    0 -0.51740751393E+03 -0.10107082885E+03  0.11641717939E+03  0.54774965419E+03  0.92470947255E+02 0.  0.
         23    2    4    4    0    0  0.13616055430E+03 -0.14860173610E+03 -0.41832311520E+03  0.47358833719E+03  0.93110213710E+02 0.  0.
          4    1    3    3  502    0  0.23750030661E+03  0.12027284066E+03 -0.72055141937E+03  0.76815773106E+03  0.00000000000E+00 0. -1.
         -3    1    3    3    0  502  0.14374665303E+03  0.12939972429E+03 -0.40618014490E+03  0.44987742666E+03  0.00000000000E+00 0.  1.
         13    1    5    5    0    0 -0.19977789917E+03 -0.66338971423E+02  0.91539569264E+01  0.21070325829E+03  0.00000000000E+00 0.  1.
        -13    1    5    5    0    0 -0.31762961477E+03 -0.34731857431E+02  0.10726322246E+03  0.33704639590E+03  0.00000000000E+00 0. -1.
          1    1    6    6  503    0  0.11798309678E+03 -0.16129799018E+03 -0.37588909689E+03  0.42571077731E+03  0.00000000000E+00 0. -1.
         -1    1    6    6    0  503  0.18177457522E+02  0.12696254088E+02 -0.42434018312E+02  0.47877559879E+02  0.00000000000E+00 0.  1.
<mgrwt>
<rscale>  0 0.17244672E+04</rscale>
<asrwt>0</asrwt>
<pdfrwt beam="1">  1        2 0.28215467E+00 0.17244672E+04</pdfrwt>
<pdfrwt beam="2">  1       -1 0.62364280E-01 0.17244672E+04</pdfrwt>
<totfact> 0.23306744E+01</totfact>
</mgrwt>
</event>
<event>
12    7  0.1675873E-007  0.2930527E+04  0.7818608E-02  0.8263852E-01
         -1   -1    0    0    0  501 -0.00000000000E+00  0.00000000000E+00  0.83708528696E+03  0.83708528696E+03  0.00000000000E+00 0.  1.
          2   -1    0    0  501    0  0.00000000000E+00 -0.00000000000E+00 -0.25648491438E+04  0.25648491438E+04  0.00000000000E+00 0. -1.
         24    2    1    2    0    0 -0.67458222339E+03 -0.10620213766E+04 -0.32475250696E+03  0.13018703014E+04  0.80321294812E+02 0.  0.
        254    2    1    2    0    0  0.67458222339E+03  0.10620213766E+04 -0.14030113499E+04  0.21000641293E+04  0.92675666649E+03 0.  0.
         23    2    4    4    0    0  0.43428739693E+03  0.67728868270E+03 -0.23592455095E+03  0.84447181145E+03  0.10073104668E+03 0.  0.
         23    2    4    4    0    0  0.24029482646E+03  0.38473269395E+03 -0.11670867989E+04  0.12555923179E+04  0.93057095806E+02 0.  0.
          2    1    3    3  502    0 -0.46735378262E+03 -0.70926980810E+03 -0.18300313404E+03  0.86889203350E+03  0.00000000000E+00 0. -1.
         -1    1    3    3    0  502 -0.20722844077E+03 -0.35275156854E+03 -0.14174937292E+03  0.43297826792E+03  0.00000000000E+00 0.  1.
         13    1    5    5    0    0  0.32898645451E+03  0.51722607388E+03 -0.13404042311E+03  0.62747249643E+03  0.00000000000E+00 0.  1.
        -13    1    5    5    0    0  0.10530094242E+03  0.16006260882E+03 -0.10188412784E+03  0.21699931502E+03  0.00000000000E+00 0. -1.
          1    1    6    6  503    0  0.48045774623E+02  0.12908136992E+03 -0.26840649920E+03  0.30168268981E+03  0.00000000000E+00 0. -1.
         -1    1    6    6    0  503  0.19224905184E+03  0.25565132403E+03 -0.89868029971E+03  0.95390962806E+03  0.00000000000E+00 0.  1.
<mgrwt>
<rscale>  0 0.29305272E+04</rscale>
<asrwt>0</asrwt>
<pdfrwt beam="1">  1        2 0.39459217E+00 0.29305272E+04</pdfrwt>
<pdfrwt beam="2">  1       -1 0.12878235E+00 0.29305272E+04</pdfrwt>
<totfact> 0.16212356E+00</totfact>
</mgrwt>
</event>
<event>
12    7  0.1675873E-007  0.1902372E+04  0.7818608E-02  0.8653677E-01
         -1   -1    0    0    0  501 -0.00000000000E+00  0.00000000000E+00  0.76027926693E+03  0.76027926693E+03  0.00000000000E+00 0.  1.
          2   -1    0    0  501    0  0.00000000000E+00 -0.00000000000E+00 -0.11900291369E+04  0.11900291369E+04  0.00000000000E+00 0. -1.
         24    2    1    2    0    0 -0.33712378188E+03 -0.33407960298E+03  0.40951623422E+03  0.63187883887E+03  0.79408409448E+02 0.  0.
        254    2    1    2    0    0  0.33712378188E+03  0.33407960298E+03 -0.83926610421E+03  0.13184295650E+04  0.89923706478E+03 0.  0.
         23    2    4    4    0    0  0.37181955164E+02  0.59003157753E+03 -0.39205328776E+03  0.71515499668E+03  0.90670439290E+02 0.  0.
         23    2    4    4    0    0  0.29994182671E+03 -0.25595197455E+03 -0.44721281644E+03  0.60327456829E+03  0.92002113356E+02 0.  0.
          2    1    3    3  502    0 -0.86121172069E+02 -0.41148227504E+02  0.82638487079E+02  0.12625035625E+03  0.00000000000E+00 0. -1.
         -1    1    3    3    0  502 -0.25100260981E+03 -0.29293137547E+03  0.32687774714E+03  0.50562848263E+03  0.00000000000E+00 0.  1.
         13    1    5    5    0    0  0.36076694473E+02  0.47713063516E+03 -0.35678861525E+03  0.59686957274E+03  0.00000000000E+00 0.  1.
        -13    1    5    5    0    0  0.11052606909E+01  0.11290094237E+03 -0.35264672509E+02  0.11828542394E+03  0.00000000000E+00 0. -1.
          3    1    6    6  503    0  0.11477153141E+01 -0.24899100701E+02 -0.14240961951E+02  0.28706923615E+02  0.00000000000E+00 0. -1.
         -3    1    6    6    0  503  0.29879411140E+03 -0.23105287385E+03 -0.43297185449E+03  0.57456764467E+03  0.00000000000E+00 0.  1.
<mgrwt>
<rscale>  0 0.19023717E+04</rscale>
<asrwt>0</asrwt>
<pdfrwt beam="1">  1        2 0.18308140E+00 0.19023717E+04</pdfrwt>
<pdfrwt beam="2">  1       -1 0.11696604E+00 0.19023717E+04</pdfrwt>
<totfact> 0.13511691E+01</totfact>
</mgrwt>
</event>
<event>
12    7  0.1675873E-007  0.1117808E+04  0.7818608E-02  0.9188007E-01
         -1   -1    0    0    0  501 -0.00000000000E+00  0.00000000000E+00  0.10398827074E+04  0.10398827074E+04  0.00000000000E+00 0.  1.
          2   -1    0    0  501    0  0.00000000000E+00 -0.00000000000E+00 -0.30039306588E+03  0.30039306588E+03  0.00000000000E+00 0. -1.
         24    2    1    2    0    0  0.12592455139E+03 -0.30265546163E+02 -0.23978166847E+02  0.15460917292E+03  0.80969425947E+02 0.  0.
        254    2    1    2    0    0 -0.12592455139E+03  0.30265546163E+02  0.76346780837E+03  0.11856666004E+04  0.89785811622E+03 0.  0.
         23    2    4    4    0    0  0.20943882577E+02 -0.10176276872E+03 -0.17570994737E+03  0.22149511821E+03  0.85975545778E+02 0.  0.
         23    2    4    4    0    0 -0.14686843397E+03  0.13202831489E+03  0.93917775574E+03  0.96417148215E+03  0.92574171813E+02 0.  0.
          4    1    3    3  502    0  0.12708903134E+03 -0.47846729415E+01 -0.18462541505E+02  0.12851218005E+03  0.00000000000E+00 0. -1.
         -3    1    3    3    0  502 -0.11644799553E+01 -0.25480873222E+02 -0.55156253421E+01  0.26096992866E+02  0.00000000000E+00 0.  1.
         13    1    5    5    0    0 -0.15113802512E+02 -0.36490339732E+02 -0.11484043629E+02  0.41132167195E+02  0.00000000000E+00 0.  1.
        -13    1    5    5    0    0  0.36057685090E+02 -0.65272428991E+02 -0.16422590374E+03  0.18036295102E+03  0.00000000000E+00 0. -1.
          4    1    6    6  503    0 -0.93721414095E+02  0.28709911336E+02  0.34070121556E+03  0.35452119930E+03  0.00000000000E+00 0. -1.
         -4    1    6    6    0  503 -0.53147019871E+02  0.10331840355E+03  0.59847654018E+03  0.60965028285E+03  0.00000000000E+00 0.  1.
<mgrwt>
<rscale>  0 0.11178078E+04</rscale>
<asrwt>0</asrwt>
<pdfrwt beam="1">  1        2 0.46214318E-01 0.11178078E+04</pdfrwt>
<pdfrwt beam="2">  1       -1 0.15998195E+00 0.11178078E+04</pdfrwt>
<totfact> 0.36428559E+01</totfact>
</mgrwt>
</event>
<event>
12    7  0.1675873E-007  0.1208864E+04  0.7818608E-02  0.9105133E-01
         -1   -1    0    0    0  501 -0.00000000000E+00  0.00000000000E+00  0.20810681414E+03  0.20810681414E+03  0.00000000000E+00 0.  1.
          2   -1    0    0  501    0  0.00000000000E+00 -0.00000000000E+00 -0.17555327380E+04  0.17555327380E+04  0.00000000000E+00 0. -1.
         24    2    1    2    0    0 -0.11103260133E+03 -0.22991519370E+03 -0.31075811925E+03  0.40995545941E+03  0.79395435427E+02 0.  0.
        254    2    1    2    0    0  0.11103260133E+03  0.22991519370E+03 -0.12366678046E+04  0.15536840927E+04  0.90520592475E+03 0.  0.
         23    2    4    4    0    0 -0.22034510575E+03  0.45971030366E+03 -0.78655972983E+03  0.94201181009E+03  0.93938878208E+02 0.  0.
         23    2    4    4    0    0  0.33137770708E+03 -0.22979510997E+03 -0.45010807477E+03  0.61167228263E+03  0.94491931177E+02 0.  0.
          4    1    3    3  502    0 -0.31465598292E+02 -0.14809981768E+02 -0.21814709047E+02  0.41052417306E+02  0.00000000000E+00 0. -1.
         -3    1    3    3    0  502 -0.79567003035E+02 -0.21510521193E+03 -0.28894341020E+03  0.36890304210E+03  0.00000000000E+00 0.  1.
         13    1    5    5    0    0 -0.24944299080E+01  0.36980855471E+02 -0.26990295697E+02  0.45850647910E+02  0.00000000000E+00 0. -1.
        -13    1    5    5    0    0 -0.21785067584E+03  0.42272944819E+03 -0.75956943413E+03  0.89616116218E+03  0.00000000000E+00 0.  1.
          3    1    6    6  503    0  0.66804362666E+02 -0.27324902061E+02 -0.13509841428E+03  0.15317001888E+03  0.00000000000E+00 0. -1.
         -3    1    6    6    0  503  0.26457334441E+03 -0.20247020791E+03 -0.31500966049E+03  0.45850226375E+03  0.00000000000E+00 0.  1.
<mgrwt>
<rscale>  0 0.12088645E+04</rscale>
<asrwt>0</asrwt>
<pdfrwt beam="1">  1        2 0.27008197E+00 0.12088645E+04</pdfrwt>
<pdfrwt beam="2">  1       -1 0.32016432E-01 0.12088645E+04</pdfrwt>
<totfact> 0.93354278E+01</totfact>
</mgrwt>
</event>
<event>
12    7  0.1675873E-007  0.1757770E+04  0.7818608E-02  0.8729085E-01
          2   -1    0    0  501    0  0.00000000000E+00  0.00000000000E+00  0.13353865556E+04  0.13353865556E+04  0.00000000000E+00 0. -1.
         -1   -1    0    0    0  501 -0.00000000000E+00 -0.00000000000E+00 -0.57843810348E+03  0.57843810348E+03  0.00000000000E+00 0.  1.
         24    2    1    2    0    0  0.40810329822E+03 -0.49260303773E+03  0.30619851073E+03  0.71371483317E+03  0.80157846259E+02 0.  0.
        254    2    1    2    0    0 -0.40810329822E+03  0.49260303773E+03  0.45074994143E+03  0.12001098259E+04  0.90988022828E+03 0.  0.
         23    2    4    4    0    0 -0.64487224063E+02  0.27431772180E+03 -0.24811908438E+03  0.38673184938E+03  0.92680249968E+02 0.  0.
         23    2    4    4    0    0 -0.34361607416E+03  0.21828531593E+03  0.69886902581E+03  0.81337797656E+03  0.86286336933E+02 0.  0.
          2    1    3    3  502    0  0.25579659100E+03 -0.35665143047E+03  0.23238551307E+03  0.49662376656E+03  0.00000000000E+00 0. -1.
         -1    1    3    3    0  502  0.15230670722E+03 -0.13595160726E+03  0.73812997655E+02  0.21709106661E+03  0.00000000000E+00 0.  1.
         13    1    5    5    0    0 -0.33095220111E+02  0.17912513188E+02 -0.23149704565E+02  0.44182129242E+02  0.00000000000E+00 0.  1.
        -13    1    5    5    0    0 -0.31392003952E+02  0.25640520861E+03 -0.22496937982E+03  0.34254972014E+03  0.00000000000E+00 0. -1.
          4    1    6    6  503    0 -0.25252347789E+03  0.11359130128E+03  0.48333720573E+03  0.55703316333E+03  0.00000000000E+00 0. -1.
         -4    1    6    6    0  503 -0.91092596269E+02  0.10469401466E+03  0.21553182008E+03  0.25634481322E+03  0.00000000000E+00 0.  1.
<mgrwt>
<rscale>  0 0.17577696E+04</rscale>
<asrwt>0</asrwt>
<pdfrwt beam="1">  1        2 0.20544408E+00 0.17577696E+04</pdfrwt>
<pdfrwt beam="2">  1       -1 0.88990478E-01 0.17577696E+04</pdfrwt>
<totfact> 0.21082610E+01</totfact>
</mgrwt>
</event>
<event>
12    7  0.1675873E-007  0.1298720E+04  0.7818608E-02  0.9030580E-01
         -1   -1    0    0    0  501 -0.00000000000E+00  0.00000000000E+00  0.12505025426E+03  0.12505025426E+03  0.00000000000E+00 0.  1.
          2   -1    0    0  501    0  0.00000000000E+00 -0.00000000000E+00 -0.33719940070E+04  0.33719940070E+04  0.00000000000E+00 0. -1.
         24    2    1    2    0    0  0.22483883555E+02 -0.28819745280E+03 -0.13016063054E+04  0.13357149923E+04  0.79951669875E+02 0.  0.
        254    2    1    2    0    0 -0.22483883555E+02  0.28819745280E+03 -0.19453374473E+04  0.21613292690E+04  0.89634989157E+03 0.  0.
         23    2    4    4    0    0 -0.17803467302E+03 -0.26610041938E+03 -0.95575327059E+03  0.10120276167E+04  0.90718271636E+02 0.  0.
         23    2    4    4    0    0  0.15555078946E+03  0.55429787218E+03 -0.98958417673E+03  0.11493016522E+04  0.10087252237E+03 0.  0.
          2    1    3    3  502    0  0.19758576238E+02 -0.28888107332E+03 -0.12136383537E+04  0.12477021798E+04  0.00000000000E+00 0. -1.
         -1    1    3    3    0  502  0.27253073167E+01  0.68362052651E+00 -0.87967951689E+02  0.88012812484E+02  0.00000000000E+00 0.  1.
         13    1    5    5    0    0 -0.76339222600E+01 -0.71559565766E+02 -0.16364356159E+03  0.17876874299E+03  0.00000000000E+00 0.  1.
        -13    1    5    5    0    0 -0.17040075076E+03 -0.19454085361E+03 -0.79210970900E+03  0.83325887374E+03  0.00000000000E+00 0. -1.
          3    1    6    6  503    0  0.15470035113E+03  0.52769735677E+03 -0.88964945749E+03  0.10458837680E+04  0.00000000000E+00 0. -1.
         -3    1    6    6    0  503  0.85043833098E+00  0.26600515410E+02 -0.99934719233E+02  0.10341788421E+03  0.00000000000E+00 0.  1.
<mgrwt>
<rscale>  0 0.12987205E+04</rscale>
<asrwt>0</asrwt>
<pdfrwt beam="1">  1        2 0.51876830E+00 0.12987205E+04</pdfrwt>
<pdfrwt beam="2">  1       -1 0.19238501E-01 0.12987205E+04</pdfrwt>
<totfact> 0.24723174E+01</totfact>
</mgrwt>
</event>
<event>
12    7  0.1675873E-007  0.1614331E+04  0.7818608E-02  0.8811792E-01
         -1   -1    0    0    0  501 -0.00000000000E+00  0.00000000000E+00  0.59616522432E+03  0.59616522432E+03  0.00000000000E+00 0.  1.
          2   -1    0    0  501    0  0.00000000000E+00 -0.00000000000E+00 -0.10928442638E+04  0.10928442638E+04  0.00000000000E+00 0. -1.
         24    2    1    2    0    0 -0.38529119793E+03 -0.23363123713E+03  0.15534987017E+03  0.48331276001E+03  0.80154723261E+02 0.  0.
        254    2    1    2    0    0  0.38529119793E+03  0.23363123713E+03 -0.65202890960E+03  0.12056967281E+04  0.90858683621E+03 0.  0.
         23    2    4    4    0    0  0.56697584574E+03  0.41182550274E+03 -0.60768118462E+03  0.93207520948E+03  0.91792808101E+02 0.  0.
         23    2    4    4    0    0 -0.18168464781E+03 -0.17819426561E+03 -0.44347724979E+02  0.27362151859E+03  0.90219217343E+02 0.  0.
          2    1    3    3  502    0 -0.15631314706E+03 -0.12801893728E+03  0.39758382704E+02  0.20592080333E+03  0.00000000000E+00 0. -1.
         -1    1    3    3    0  502 -0.22897805087E+03 -0.10561229985E+03  0.11559148747E+03  0.27739195669E+03  0.00000000000E+00 0.  1.
         13    1    5    5    0    0  0.40385076264E+03  0.33006335992E+03 -0.41333615957E+03  0.66549533496E+03  0.00000000000E+00 0.  1.
        -13    1    5    5    0    0  0.16312508310E+03  0.81762142822E+02 -0.19434502506E+03  0.26657987452E+03  0.00000000000E+00 0. -1.
          3    1    6    6  503    0 -0.60108558962E+01 -0.21694178674E+02  0.19560827324E+02  0.29822705151E+02  0.00000000000E+00 0. -1.
         -3    1    6    6    0  503 -0.17567379191E+03 -0.15650008693E+03 -0.63908552302E+02  0.24379881344E+03  0.00000000000E+00 0.  1.
<mgrwt>
<rscale>  0 0.16143305E+04</rscale>
<asrwt>0</asrwt>
<pdfrwt beam="1">  1        2 0.16812989E+00 0.16143305E+04</pdfrwt>
<pdfrwt beam="2">  1       -1 0.91717727E-01 0.16143305E+04</pdfrwt>
<totfact> 0.27859846E+01</totfact>
</mgrwt>
</event>
<event>
12    7  0.1675873E-007  0.3463041E+04  0.7818608E-02  0.8122605E-01
         -1   -1    0    0    0  501 -0.00000000000E+00  0.00000000000E+00  0.13931002131E+04  0.13931002131E+04  0.00000000000E+00 0.  1.
          2   -1    0    0  501    0  0.00000000000E+00 -0.00000000000E+00 -0.21521515491E+04  0.21521515491E+04  0.00000000000E+00 0. -1.
         24    2    1    2    0    0  0.28027356881E+03  0.10602493791E+04  0.85778563870E+03  0.13945745261E+04  0.79748904829E+02 0.  0.
        254    2    1    2    0    0 -0.28027356881E+03 -0.10602493791E+04 -0.16168369747E+04  0.21506772361E+04  0.89920451048E+03 0.  0.
         23    2    4    4    0    0 -0.50520187805E+03 -0.10567187435E+04 -0.13116660619E+04  0.17608583729E+04  0.90944547879E+02 0.  0.
         23    2    4    4    0    0  0.22492830924E+03 -0.35306355429E+01 -0.30517091281E+03  0.38981886319E+03  0.90687652931E+02 0.  0.
          2    1    3    3  502    0  0.94262727221E+02  0.25806095766E+03  0.24510104277E+03  0.36817854470E+03  0.00000000000E+00 0. -1.
         -1    1    3    3    0  502  0.18601084158E+03  0.80218842142E+03  0.61268459593E+03  0.10263959814E+04  0.00000000000E+00 0.  1.
         13    1    5    5    0    0 -0.48689234323E+03 -0.10439883730E+04 -0.12935905311E+04  0.17321525161E+04  0.00000000000E+00 0.  1.
        -13    1    5    5    0    0 -0.18309534817E+02 -0.12730370570E+02 -0.18075530824E+02  0.28705856800E+02  0.00000000000E+00 0. -1.
          3    1    6    6  503    0  0.39605617417E+02 -0.23575816591E+02 -0.11327123970E+03  0.12228981071E+03  0.00000000000E+00 0. -1.
         -3    1    6    6    0  503  0.18532269182E+03  0.20045181048E+02 -0.19189967310E+03  0.26752905249E+03  0.00000000000E+00 0.  1.
<mgrwt>
<rscale>  0 0.34630407E+04</rscale>
<asrwt>0</asrwt>
<pdfrwt beam="1">  1        2 0.33110024E+00 0.34630407E+04</pdfrwt>
<pdfrwt beam="2">  1       -1 0.21432311E+00 0.34630407E+04</pdfrwt>
<totfact> 0.61873753E-01</totfact>
</mgrwt>
</event>
<event>
12    7  0.1675873E-007  0.2218509E+04  0.7818608E-02  0.8510764E-01
          4   -1    0    0  501    0  0.00000000000E+00  0.00000000000E+00  0.61507722840E+03  0.61507722840E+03  0.00000000000E+00 0. -1.
         -1   -1    0    0    0  501 -0.00000000000E+00 -0.00000000000E+00 -0.20004728478E+04  0.20004728478E+04  0.00000000000E+00 0.  1.
         24    2    1    2    0    0 -0.26151089330E+03 -0.85942977417E+03 -0.36947716171E+03  0.97485705357E+03  0.82616086959E+02 0.  0.
        254    2    1    2    0    0  0.26151089330E+03  0.85942977417E+03 -0.10159184577E+04  0.16406930227E+04  0.92345860644E+03 0.  0.
         23    2    4    4    0    0  0.29946548247E+03  0.10350535933E+04 -0.78046631722E+03  0.13336035634E+04  0.91407197349E+02 0.  0.
         23    2    4    4    0    0 -0.37954589167E+02 -0.17562381916E+03 -0.23545214050E+03  0.30708945927E+03  0.81129210701E+02 0.  0.
          4    1    3    3  502    0 -0.17839057842E+03 -0.60409810360E+03 -0.29894784897E+03  0.69722846589E+03  0.00000000000E+00 0. -1.
         -3    1    3    3    0  502 -0.83120314881E+02 -0.25533167057E+03 -0.70529312740E+02  0.27762858768E+03  0.00000000000E+00 0.  1.
         13    1    5    5    0    0  0.24285907091E+02  0.20972426738E+03 -0.16396504247E+03  0.26731743071E+03  0.00000000000E+00 0. -1.
        -13    1    5    5    0    0  0.27517957537E+03  0.82532932595E+03 -0.61650127475E+03  0.10662861327E+04  0.00000000000E+00 0.  1.
          3    1    6    6  503    0 -0.31074707022E+01 -0.44567493119E+02 -0.12319240812E+03  0.13104307397E+03  0.00000000000E+00 0. -1.
         -3    1    6    6    0  503 -0.34847118464E+02 -0.13105632604E+03 -0.11225973238E+03  0.17604638529E+03  0.00000000000E+00 0.  1.
<mgrwt>
<rscale>  0 0.22185088E+04</rscale>
<asrwt>0</asrwt>
<pdfrwt beam="1">  1        4 0.94627266E-01 0.22185088E+04</pdfrwt>
<pdfrwt beam="2">  1       -1 0.30776505E+00 0.22185088E+04</pdfrwt>
<totfact> 0.10579017E-01</totfact>
</mgrwt>
</event>
<event>
12    7  0.1675873E-007  0.1252114E+04  0.7818608E-02  0.9068425E-01
          2   -1    0    0  501    0  0.00000000000E+00  0.00000000000E+00  0.17989222354E+04  0.17989222354E+04  0.00000000000E+00 0. -1.
         -1   -1    0    0    0  501 -0.00000000000E+00 -0.00000000000E+00 -0.21787914416E+03  0.21787914416E+03  0.00000000000E+00 0.  1.
         24    2    1    2    0    0 -0.17058392069E+03  0.22001517372E+03  0.22383534480E+03  0.36563321345E+03  0.77973293689E+02 0.  0.
        254    2    1    2    0    0  0.17058392069E+03 -0.22001517372E+03  0.13572077464E+04  0.16511681661E+04  0.89824155722E+03 0.  0.
         23    2    4    4    0    0  0.44712576327E+03 -0.22512502301E+03  0.38932918732E+03  0.64074363486E+03  0.91501176712E+02 0.  0.
         23    2    4    4    0    0 -0.27654184259E+03  0.51098492900E+01  0.96787855910E+03  0.10104245312E+04  0.87563273725E+02 0.  0.
          4    1    3    3  502    0 -0.24489733877E+01  0.49684897594E+02  0.40523390911E+02  0.64161762215E+02  0.00000000000E+00 0. -1.
         -3    1    3    3    0  502 -0.16813494730E+03  0.17033027613E+03  0.18331195389E+03  0.30147145123E+03  0.00000000000E+00 0.  1.
         13    1    5    5    0    0  0.43393676968E+02 -0.47687669847E+02  0.26666529781E+02  0.69772694279E+02  0.00000000000E+00 0.  1.
        -13    1    5    5    0    0  0.40373208631E+03 -0.17743735317E+03  0.36266265754E+03  0.57097094058E+03  0.00000000000E+00 0. -1.
          2    1    6    6  503    0 -0.91285152684E+02 -0.39248014260E+02  0.31174471258E+03  0.32719741983E+03  0.00000000000E+00 0. -1.
         -2    1    6    6    0  503 -0.18525668990E+03  0.44357863550E+02  0.65613384652E+03  0.68322711141E+03  0.00000000000E+00 0.  1.
<mgrwt>
<rscale>  0 0.12521144E+04</rscale>
<asrwt>0</asrwt>
<pdfrwt beam="1">  1        2 0.27675726E+00 0.12521144E+04</pdfrwt>
<pdfrwt beam="2">  1       -1 0.33519870E-01 0.12521144E+04</pdfrwt>
<totfact> 0.81166551E+01</totfact>
</mgrwt>
</event>
<event>
12    7  0.1675873E-007  0.1475057E+04  0.7818608E-02  0.8901211E-01
          2   -1    0    0  501    0  0.00000000000E+00  0.00000000000E+00  0.27629511085E+04  0.27629511085E+04  0.00000000000E+00 0. -1.
         -1   -1    0    0    0  501 -0.00000000000E+00 -0.00000000000E+00 -0.19687220224E+03  0.19687220224E+03  0.00000000000E+00 0.  1.
         24    2    1    2    0    0  0.25748315729E+03 -0.32530750109E+02  0.48669105234E+02  0.27667651657E+03  0.82615900553E+02 0.  0.
        254    2    1    2    0    0 -0.25748315729E+03  0.32530750109E+02  0.25174098011E+04  0.26831467942E+04  0.89138587988E+03 0.  0.
         23    2    4    4    0    0 -0.54882353458E+03 -0.11035157993E+03  0.18581398358E+04  0.19426910993E+04  0.89332606770E+02 0.  0.
         23    2    4    4    0    0  0.29134037728E+03  0.14288233004E+03  0.65926996526E+03  0.74045569491E+03  0.91340973048E+02 0.  0.
          2    1    3    3  502    0  0.11335234433E+03 -0.51554156455E+02  0.40062878200E+01  0.12458986859E+03  0.00000000000E+00 0. -1.
         -1    1    3    3    0  502  0.14413081296E+03  0.19023406347E+02  0.44662817414E+02  0.15208664798E+03  0.00000000000E+00 0.  1.
         13    1    5    5    0    0 -0.48832707088E+03 -0.10036348488E+03  0.17338677630E+04  0.18041157327E+04  0.00000000000E+00 0.  1.
        -13    1    5    5    0    0 -0.60496463698E+02 -0.99880950537E+01  0.12427207276E+03  0.13857536661E+03  0.00000000000E+00 0. -1.
          4    1    6    6  503    0  0.26039012715E+03  0.14339347928E+03  0.63495321400E+03  0.70109221375E+03  0.00000000000E+00 0. -1.
         -4    1    6    6    0  503  0.30950250137E+02 -0.51114923721E+00  0.24316751261E+02  0.39363481160E+02  0.00000000000E+00 0.  1.
<mgrwt>
<rscale>  0 0.14750570E+04</rscale>
<asrwt>0</asrwt>
<pdfrwt beam="1">  1        2 0.42506937E+00 0.14750570E+04</pdfrwt>
<pdfrwt beam="2">  1       -1 0.30288033E-01 0.14750570E+04</pdfrwt>
<totfact> 0.27070165E+01</totfact>
</mgrwt>
</event>
<event>
12    7  0.1675873E-007  0.3193622E+04  0.7818608E-02  0.8190504E-01
         -1   -1    0    0    0  501 -0.00000000000E+00  0.00000000000E+00  0.88083113631E+03  0.88083113631E+03  0.00000000000E+00 0.  1.
          2   -1    0    0  501    0  0.00000000000E+00 -0.00000000000E+00 -0.28947720057E+04  0.28947720057E+04  0.00000000000E+00 0. -1.
         24    2    1    2    0    0 -0.12846417822E+04  0.60667630526E+03 -0.50188876042E+03  0.15084835435E+04  0.72592183716E+02 0.  0.
        254    2    1    2    0    0  0.12846417822E+04 -0.60667630526E+03 -0.15120521090E+04  0.22671195985E+04  0.91387583716E+03 0.  0.
         23    2    4    4    0    0  0.87751367482E+03 -0.20143469140E+03 -0.35493123747E+03  0.97202536559E+03  0.90834704895E+02 0.  0.
         23    2    4    4    0    0  0.40712810742E+03 -0.40524161386E+03 -0.11571208715E+04  0.12950942330E+04  0.91467477644E+02 0.  0.
          4    1    3    3  502    0 -0.11408711313E+04  0.51985269028E+03 -0.42540039154E+03  0.13239332502E+04  0.00000000000E+00 0. -1.
         -3    1    3    3    0  502 -0.14377065097E+03  0.86823614975E+02 -0.76488368881E+02  0.18455029334E+03  0.00000000000E+00 0.  1.
         13    1    5    5    0    0  0.73147029645E+03 -0.14126909166E+03 -0.26795518406E+03  0.79171063622E+03  0.00000000000E+00 0. -1.
        -13    1    5    5    0    0  0.14604337838E+03 -0.60165599741E+02 -0.86976053405E+02  0.18031472936E+03  0.00000000000E+00 0.  1.
          3    1    6    6  503    0  0.30727357519E+03 -0.26436762583E+03 -0.87490004129E+03  0.96423927210E+03  0.00000000000E+00 0. -1.
         -3    1    6    6    0  503  0.99854532224E+02 -0.14087398803E+03 -0.28222083023E+03  0.33085496086E+03  0.00000000000E+00 0.  1.
<mgrwt>
<rscale>  0 0.31936220E+04</rscale>
<asrwt>0</asrwt>
<pdfrwt beam="1">  1        2 0.44534954E+00 0.31936220E+04</pdfrwt>
<pdfrwt beam="2">  1       -1 0.13551248E+00 0.31936220E+04</pdfrwt>
<totfact> 0.88314775E-01</totfact>
</mgrwt>
</event>
<event>
12    7  0.1675873E-007  0.1446376E+04  0.7818608E-02  0.8920917E-01
         -1   -1    0    0    0  501 -0.00000000000E+00  0.00000000000E+00  0.40059575354E+04  0.40059575354E+04  0.00000000000E+00 0.  1.
          2   -1    0    0  501    0  0.00000000000E+00 -0.00000000000E+00 -0.13055574912E+03  0.13055574912E+03  0.00000000000E+00 0. -1.
         24    2    1    2    0    0  0.13821887508E+03 -0.41730139426E+03  0.11249419948E+04  0.12104229137E+04  0.79901359857E+02 0.  0.
        254    2    1    2    0    0 -0.13821887508E+03  0.41730139426E+03  0.27504597915E+04  0.29260903708E+04  0.89651039172E+03 0.  0.
         23    2    4    4    0    0  0.99154648166E+02 -0.24923767274E+03  0.86914208630E+03  0.91424007750E+03  0.92064604324E+02 0.  0.
         23    2    4    4    0    0 -0.23737352324E+03  0.66653906699E+03  0.18813177052E+04  0.20118502933E+04  0.86975729089E+02 0.  0.
          2    1    3    3  502    0  0.58267123910E+02 -0.19999237563E+03  0.42754526916E+03  0.47559117446E+03  0.00000000000E+00 0. -1.
         -1    1    3    3    0  502  0.79951751167E+02 -0.21730901863E+03  0.69739672564E+03  0.73483173926E+03  0.00000000000E+00 0.  1.
         13    1    5    5    0    0  0.34371603832E+02 -0.13947095236E+02  0.16124381311E+03  0.16545541962E+03  0.00000000000E+00 0. -1.
        -13    1    5    5    0    0  0.64783044334E+02 -0.23529057750E+03  0.70789827318E+03  0.74878465788E+03  0.00000000000E+00 0.  1.
          4    1    6    6  503    0 -0.30762603211E+02  0.13067405484E+03  0.45035544870E+03  0.46993837526E+03  0.00000000000E+00 0. -1.
         -4    1    6    6    0  503 -0.20661092003E+03  0.53586501215E+03  0.14309622565E+04  0.15419119180E+04  0.00000000000E+00 0.  1.
<mgrwt>
<rscale>  0 0.14463759E+04</rscale>
<asrwt>0</asrwt>
<pdfrwt beam="1">  1        2 0.20085503E-01 0.14463759E+04</pdfrwt>
<pdfrwt beam="2">  1       -1 0.61630106E+00 0.14463759E+04</pdfrwt>
<totfact> 0.11770153E-01</totfact>
</mgrwt>
</event>
<event>
12    7  0.1675873E-007  0.1950583E+04  0.7818608E-02  0.8630080E-01
         -3   -1    0    0    0  501 -0.00000000000E+00  0.00000000000E+00  0.12560698178E+04  0.12560698178E+04  0.00000000000E+00 0.  1.
          2   -1    0    0  501    0  0.00000000000E+00 -0.00000000000E+00 -0.75727768523E+03  0.75727768523E+03  0.00000000000E+00 0. -1.
         24    2    1    2    0    0 -0.59814693677E+03  0.45138813510E+03  0.35710822792E+03  0.83402648940E+03  0.80888145604E+02 0.  0.
        254    2    1    2    0    0  0.59814693677E+03 -0.45138813510E+03  0.14168390464E+03  0.11793210136E+04  0.89955139812E+03 0.  0.
         23    2    4    4    0    0  0.52900597039E+03 -0.69203146056E+03 -0.30629255602E+01  0.87587713097E+03  0.91632461081E+02 0.  0.
         23    2    4    4    0    0  0.69140966379E+02  0.24064332546E+03  0.14474683020E+03  0.30344388265E+03  0.91852391078E+02 0.  0.
          4    1    3    3  502    0 -0.21177105052E+02  0.48036464827E+01  0.11707570803E-01  0.21715085424E+02  0.00000000000E+00 0. -1.
         -3    1    3    3    0  502 -0.57696983171E+03  0.44658448862E+03  0.35709652035E+03  0.81231140398E+03  0.00000000000E+00 0.  1.
         13    1    5    5    0    0  0.16982465521E+03 -0.22920750944E+03  0.41811624075E+02  0.28831355814E+03  0.00000000000E+00 0. -1.
        -13    1    5    5    0    0  0.35918131518E+03 -0.46282395113E+03 -0.44874549635E+02  0.58756357283E+03  0.00000000000E+00 0.  1.
          2    1    6    6  503    0  0.59987649121E+02  0.72335471074E+02  0.26803363601E+02  0.97720820315E+02  0.00000000000E+00 0. -1.
         -2    1    6    6    0  503  0.91533172581E+01  0.16830785439E+03  0.11794346660E+03  0.20572306234E+03  0.00000000000E+00 0.  1.
<mgrwt>
<rscale>  0 0.19505831E+04</rscale>
<asrwt>0</asrwt>
<pdfrwt beam="1">  1        2 0.11650426E+00 0.19505831E+04</pdfrwt>
<pdfrwt beam="2">  1       -3 0.19324151E+00 0.19505831E+04</pdfrwt>
<totfact> 0.35098099E+00</totfact>
</mgrwt>
</event>
<event>
12    7  0.1675873E-007  0.2323697E+04  0.7818608E-02  0.8468636E-01
         -1   -1    0    0    0  501 -0.00000000000E+00  0.00000000000E+00  0.42552137076E+03  0.42552137076E+03  0.00000000000E+00 0.  1.
          2   -1    0    0  501    0  0.00000000000E+00 -0.00000000000E+00 -0.31723249412E+04  0.31723249412E+04  0.00000000000E+00 0. -1.
         24    2    1    2    0    0  0.51244035214E+03 -0.80485346534E+03 -0.78047215375E+03  0.12350255657E+04  0.75941754328E+02 0.  0.
        254    2    1    2    0    0 -0.51244035214E+03  0.80485346534E+03 -0.19663314167E+04  0.23628207462E+04  0.89781870293E+03 0.  0.
         23    2    4    4    0    0 -0.27577940603E+02 -0.13407088189E+03 -0.48742166821E+02  0.17153230291E+03  0.91170104404E+02 0.  0.
         23    2    4    4    0    0 -0.48486241153E+03  0.93892434723E+03 -0.19175892499E+04  0.21912884433E+04  0.89028212604E+02 0.  0.
          2    1    3    3  502    0 -0.19097790754E+01 -0.10796441407E+02 -0.70663323934E+01  0.13043904962E+02  0.00000000000E+00 0. -1.
         -1    1    3    3    0  502  0.51435013121E+03 -0.79405702393E+03 -0.77340582135E+03  0.12219816608E+04  0.00000000000E+00 0.  1.
         13    1    5    5    0    0 -0.54467840098E+02 -0.12453612195E+03 -0.40771979899E+02  0.14190963893E+03  0.00000000000E+00 0.  1.
        -13    1    5    5    0    0  0.26889899495E+02 -0.95347599384E+01 -0.79701869217E+01  0.29622663984E+02  0.00000000000E+00 0. -1.
          3    1    6    6  503    0 -0.67125662282E+02  0.20667265932E+03 -0.40758094395E+03  0.46188923837E+03  0.00000000000E+00 0. -1.
         -3    1    6    6    0  503 -0.41773674925E+03  0.73225168791E+03 -0.15100083059E+04  0.17293992049E+04  0.00000000000E+00 0.  1.
<mgrwt>
<rscale>  0 0.23236971E+04</rscale>
<asrwt>0</asrwt>
<pdfrwt beam="1">  1        2 0.48804997E+00 0.23236971E+04</pdfrwt>
<pdfrwt beam="2">  1       -1 0.65464829E-01 0.23236971E+04</pdfrwt>
<totfact> 0.32952252E+00</totfact>
</mgrwt>
</event>
<event>
12    7  0.1675873E-007  0.1306077E+04  0.7818608E-02  0.9024760E-01
          2   -1    0    0  501    0  0.00000000000E+00  0.00000000000E+00  0.18487595141E+04  0.18487595141E+04  0.00000000000E+00 0. -1.
         -1   -1    0    0    0  501 -0.00000000000E+00 -0.00000000000E+00 -0.23067329770E+03  0.23067329770E+03  0.00000000000E+00 0.  1.
         24    2    1    2    0    0  0.14984465600E+02  0.98443116094E+02  0.91885497999E+03  0.92752787799E+03  0.78089108596E+02 0.  0.
        254    2    1    2    0    0 -0.14984465600E+02 -0.98443116094E+02  0.69923123636E+03  0.11519049338E+04  0.90996981995E+03 0.  0.
         23    2    4    4    0    0 -0.39383720780E+02  0.11935580345E+03 -0.17956085365E+03  0.24166382810E+03  0.10179597423E+03 0.  0.
         23    2    4    4    0    0  0.24399255179E+02 -0.21779891955E+03  0.87879209001E+03  0.91024110566E+03  0.90728385647E+02 0.  0.
          4    1    3    3  502    0  0.38809292988E+02  0.60845024126E+02  0.72718755170E+03  0.73075988774E+03  0.00000000000E+00 0. -1.
         -3    1    3    3    0  502 -0.23824827387E+02  0.37598091967E+02  0.19166742829E+03  0.19676799025E+03  0.00000000000E+00 0.  1.
         13    1    5    5    0    0 -0.42938317141E+02  0.12011489029E+03 -0.19099016240E+03  0.22967047717E+03  0.00000000000E+00 0. -1.
        -13    1    5    5    0    0  0.35545963618E+01 -0.75908684164E+00  0.11429308750E+02  0.11993350934E+02  0.00000000000E+00 0.  1.
          1    1    6    6  503    0  0.53783652119E+02 -0.10598761939E+03  0.51428124768E+03  0.52783639360E+03  0.00000000000E+00 0. -1.
         -1    1    6    6    0  503 -0.29384396940E+02 -0.11181130016E+03  0.36451084234E+03  0.38240471206E+03  0.00000000000E+00 0.  1.
<mgrwt>
<rscale>  0 0.13060773E+04</rscale>
<asrwt>0</asrwt>
<pdfrwt beam="1">  1        2 0.28442453E+00 0.13060773E+04</pdfrwt>
<pdfrwt beam="2">  1       -1 0.35488201E-01 0.13060773E+04</pdfrwt>
<totfact> 0.68510859E+01</totfact>
</mgrwt>
</event>
<event>
12    7  0.1675873E-007  0.1154083E+04  0.7818608E-02  0.9154025E-01
          2   -1    0    0  501    0  0.00000000000E+00  0.00000000000E+00  0.11717743195E+04  0.11717743195E+04  0.00000000000E+00 0. -1.
         -1   -1    0    0    0  501 -0.00000000000E+00 -0.00000000000E+00 -0.28416466929E+03  0.28416466929E+03  0.00000000000E+00 0.  1.
         24    2    1    2    0    0 -0.73136955537E+02 -0.32391047743E+02  0.48186610760E+03  0.49498936469E+03  0.80133209497E+02 0.  0.
        254    2    1    2    0    0  0.73136955537E+02  0.32391047743E+02  0.40574354264E+03  0.96094962413E+03  0.86740887907E+03 0.  0.
         23    2    4    4    0    0  0.20152484386E+03  0.15226846828E+03 -0.19356273207E+03  0.33011510283E+03  0.87815150993E+02 0.  0.
         23    2    4    4    0    0 -0.12838788832E+03 -0.11987742054E+03  0.59930627471E+03  0.63083452130E+03  0.89051314092E+02 0.  0.
          4    1    3    3  502    0 -0.88987242371E+02 -0.19922238288E+02  0.35472202731E+03  0.36625584165E+03  0.00000000000E+00 0. -1.
         -3    1    3    3    0  502  0.15850286834E+02 -0.12468809456E+02  0.12714408028E+03  0.12873352303E+03  0.00000000000E+00 0.  1.
         13    1    5    5    0    0  0.11493630746E+03  0.12403962644E+03 -0.87783664668E+02  0.19053124542E+03  0.00000000000E+00 0.  1.
        -13    1    5    5    0    0  0.86588536401E+02  0.28228841838E+02 -0.10577906740E+03  0.13958385741E+03  0.00000000000E+00 0. -1.
          4    1    6    6  503    0 -0.69335755320E+02 -0.16879563760E+02  0.31014138858E+03  0.31824526320E+03  0.00000000000E+00 0. -1.
         -4    1    6    6    0  503 -0.59052133003E+02 -0.10299785678E+03  0.28916488613E+03  0.31258925811E+03  0.00000000000E+00 0.  1.
<mgrwt>
<rscale>  0 0.11540829E+04</rscale>
<asrwt>0</asrwt>
<pdfrwt beam="1">  1        2 0.18027297E+00 0.11540829E+04</pdfrwt>
<pdfrwt beam="2">  1       -1 0.43717642E-01 0.11540829E+04</pdfrwt>
<totfact> 0.11478563E+02</totfact>
</mgrwt>
</event>
<event>
12    7  0.1675873E-007  0.1752380E+04  0.7818608E-02  0.8732041E-01
         -1   -1    0    0    0  501 -0.00000000000E+00  0.00000000000E+00  0.27006271827E+03  0.27006271827E+03  0.00000000000E+00 0.  1.
          2   -1    0    0  501    0  0.00000000000E+00 -0.00000000000E+00 -0.28427057141E+04  0.28427057141E+04  0.00000000000E+00 0. -1.
         24    2    1    2    0    0 -0.26494664085E+03 -0.35094294719E+03 -0.11025735412E+03  0.46018364434E+03  0.79086204208E+02 0.  0.
        254    2    1    2    0    0  0.26494664085E+03  0.35094294719E+03 -0.24623856417E+04  0.26525847881E+04  0.88289599306E+03 0.  0.
         23    2    4    4    0    0  0.28965296267E+03 -0.23977536539E+03 -0.10254672081E+04  0.10959827003E+04  0.90576043434E+02 0.  0.
         23    2    4    4    0    0 -0.24706321825E+02  0.59071831258E+03 -0.14369184336E+04  0.15566020878E+04  0.93364596157E+02 0.  0.
          4    1    3    3  502    0 -0.89474663717E+02 -0.15514478090E+03 -0.77806974431E+02  0.19526787693E+03  0.00000000000E+00 0. -1.
         -3    1    3    3    0  502 -0.17547197713E+03 -0.19579816629E+03 -0.32450379686E+02  0.26491576741E+03  0.00000000000E+00 0.  1.
         13    1    5    5    0    0  0.26947939359E+03 -0.18442055756E+03 -0.89892079117E+03  0.95639357716E+03  0.00000000000E+00 0. -1.
        -13    1    5    5    0    0  0.20173569083E+02 -0.55354807827E+02 -0.12654641697E+03  0.13958912309E+03  0.00000000000E+00 0.  1.
          1    1    6    6  503    0 -0.57055798222E+02  0.41667668616E+03 -0.96977270008E+03  0.10570401670E+04  0.00000000000E+00 0. -1.
         -1    1    6    6    0  503  0.32349476398E+02  0.17404162643E+03 -0.46714573352E+03  0.49956192079E+03  0.00000000000E+00 0.  1.
<mgrwt>
<rscale>  0 0.17523799E+04</rscale>
<asrwt>0</asrwt>
<pdfrwt beam="1">  1        2 0.43733932E+00 0.17523799E+04</pdfrwt>
<pdfrwt beam="2">  1       -1 0.41548112E-01 0.17523799E+04</pdfrwt>
<totfact> 0.13392527E+01</totfact>
</mgrwt>
</event>
<event>
12    7  0.1675873E-007  0.1270840E+04  0.7818608E-02  0.9053014E-01
          4   -1    0    0  501    0  0.00000000000E+00  0.00000000000E+00  0.96706823974E+03  0.96706823974E+03  0.00000000000E+00 0. -1.
         -3   -1    0    0    0  501 -0.00000000000E+00 -0.00000000000E+00 -0.41750785438E+03  0.41750785438E+03  0.00000000000E+00 0.  1.
         24    2    1    2    0    0 -0.21278884375E+03  0.16018831942E+03 -0.36452668566E+02  0.28019010688E+03  0.78982968062E+02 0.  0.
        254    2    1    2    0    0  0.21278884375E+03 -0.16018831942E+03  0.58601305393E+03  0.11043859872E+04  0.89739496308E+03 0.  0.
         23    2    4    4    0    0  0.19249231552E+03 -0.50104150182E+03  0.50331510393E+03  0.74147160465E+03  0.91423020016E+02 0.  0.
         23    2    4    4    0    0  0.20296528226E+02  0.34085318240E+03  0.82697950000E+02  0.36291438259E+03  0.90967341118E+02 0.  0.
          4    1    3    3  502    0 -0.15275300910E+03  0.10556176302E+03  0.11288914484E+02  0.18602206103E+03  0.00000000000E+00 0. -1.
         -3    1    3    3    0  502 -0.60035834653E+02  0.54626556396E+02 -0.47741583049E+02  0.94168045845E+02  0.00000000000E+00 0.  1.
         13    1    5    5    0    0  0.18398604971E+03 -0.49351657519E+03  0.50536197370E+03  0.72993164127E+03  0.00000000000E+00 0. -1.
        -13    1    5    5    0    0  0.85062658178E+01 -0.75249266278E+01 -0.20468697732E+01  0.11539963379E+02  0.00000000000E+00 0.  1.
          3    1    6    6  503    0  0.21932018128E+02  0.33564028626E+03  0.62657216491E+02  0.34214228321E+03  0.00000000000E+00 0. -1.
         -3    1    6    6    0  503 -0.16354899022E+01  0.52128961396E+01  0.20040733509E+02  0.20772099388E+02  0.00000000000E+00 0.  1.
<mgrwt>
<rscale>  0 0.12708400E+04</rscale>
<asrwt>0</asrwt>
<pdfrwt beam="1">  1        4 0.14877973E+00 0.12708400E+04</pdfrwt>
<pdfrwt beam="2">  1       -3 0.64231978E-01 0.12708400E+04</pdfrwt>
<totfact> 0.16047179E+00</totfact>
</mgrwt>
</event>
<event>
12    7  0.1675873E-007  0.2444064E+04  0.7818608E-02  0.8423189E-01
          2   -1    0    0  501    0  0.00000000000E+00  0.00000000000E+00  0.17016119046E+04  0.17016119046E+04  0.00000000000E+00 0. -1.
         -1   -1    0    0    0  501 -0.00000000000E+00 -0.00000000000E+00 -0.87761607602E+03  0.87761607602E+03  0.00000000000E+00 0.  1.
         24    2    1    2    0    0 -0.18205363984E+03 -0.30981984412E+03  0.14023700377E+04  0.14499015304E+04  0.80254979975E+02 0.  0.
        254    2    1    2    0    0  0.18205363984E+03  0.30981984412E+03 -0.57837420907E+03  0.11293264502E+04  0.90096039971E+03 0.  0.
         23    2    4    4    0    0 -0.33287843596E+03  0.20091960663E+03 -0.39810516086E+03  0.56596191841E+03  0.10319124248E+03 0.  0.
         23    2    4    4    0    0  0.51493207580E+03  0.10890023749E+03 -0.18026904820E+03  0.56336453180E+03  0.88703785381E+02 0.  0.
          4    1    3    3  502    0 -0.59195045260E+02 -0.17703231013E+03  0.75451696906E+03  0.77726465815E+03  0.00000000000E+00 0. -1.
         -3    1    3    3    0  502 -0.12285859458E+03 -0.13278753399E+03  0.64785306863E+03  0.67263687230E+03  0.00000000000E+00 0.  1.
         13    1    5    5    0    0 -0.32029544125E+03  0.16085597930E+03 -0.33810141174E+03  0.49272343194E+03  0.00000000000E+00 0.  1.
        -13    1    5    5    0    0 -0.12582994709E+02  0.40063627337E+02 -0.60003749121E+02  0.73238486466E+02  0.00000000000E+00 0. -1.
          3    1    6    6  503    0  0.23328150606E+03  0.31424445171E+02 -0.12338189508E+03  0.26576464937E+03  0.00000000000E+00 0. -1.
         -3    1    6    6    0  503  0.28165056975E+03  0.77475792315E+02 -0.56887153120E+02  0.29759988243E+03  0.00000000000E+00 0.  1.
<mgrwt>
<rscale>  0 0.24440638E+04</rscale>
<asrwt>0</asrwt>
<pdfrwt beam="1">  1        2 0.26178645E+00 0.24440638E+04</pdfrwt>
<pdfrwt beam="2">  1       -1 0.13501786E+00 0.24440638E+04</pdfrwt>
<totfact> 0.45974040E+00</totfact>
</mgrwt>
</event>
<event>
12    7  0.1675873E-007  0.1391466E+04  0.7818608E-02  0.8960019E-01
         -1   -1    0    0    0  501 -0.00000000000E+00  0.00000000000E+00  0.38803259383E+03  0.38803259383E+03  0.00000000000E+00 0.  1.
          2   -1    0    0  501    0  0.00000000000E+00 -0.00000000000E+00 -0.12474327917E+04  0.12474327917E+04  0.00000000000E+00 0. -1.
         24    2    1    2    0    0 -0.21351202254E+03  0.24069542308E+03  0.19516384981E+02  0.33853371202E+03  0.10345295760E+03 0.  0.
        254    2    1    2    0    0  0.21351202254E+03 -0.24069542308E+03 -0.87891658287E+03  0.12969316735E+04  0.89778379117E+03 0.  0.
         23    2    4    4    0    0 -0.71798144983E+02  0.17229182357E+03 -0.73738372235E+03  0.76729496024E+03  0.10083330761E+03 0.  0.
         23    2    4    4    0    0  0.28531016752E+03 -0.41298724664E+03 -0.14153286051E+03  0.52963671329E+03  0.92320852876E+02 0.  0.
          2    1    3    3  502    0  0.24079316669E+01  0.18889940073E+02  0.21843024817E+02  0.28978366138E+02  0.00000000000E+00 0. -1.
         -1    1    3    3    0  502 -0.21591995420E+03  0.22180548300E+03 -0.23266398359E+01  0.30955534589E+03  0.00000000000E+00 0.  1.
         13    1    5    5    0    0 -0.60636136246E+02  0.51633758409E+02 -0.42169177881E+03  0.42914652782E+03  0.00000000000E+00 0.  1.
        -13    1    5    5    0    0 -0.11162008737E+02  0.12065806516E+03 -0.31569194354E+03  0.33814843241E+03  0.00000000000E+00 0. -1.
          2    1    6    6  503    0  0.34093041791E+02 -0.22646915355E+02 -0.33858120306E+02  0.53118646296E+02  0.00000000000E+00 0. -1.
         -2    1    6    6    0  503  0.25121712573E+03 -0.39034033129E+03 -0.10767474021E+03  0.47651806699E+03  0.00000000000E+00 0.  1.
<mgrwt>
<rscale>  0 0.13914663E+04</rscale>
<asrwt>0</asrwt>
<pdfrwt beam="1">  1        2 0.19191274E+00 0.13914663E+04</pdfrwt>
<pdfrwt beam="2">  1       -1 0.59697322E-01 0.13914663E+04</pdfrwt>
<totfact> 0.56063544E+01</totfact>
</mgrwt>
</event>
<event>
12    7  0.1675873E-007  0.2237188E+04  0.7818608E-02  0.8503107E-01
          2   -1    0    0  501    0  0.00000000000E+00  0.00000000000E+00  0.32270951541E+04  0.32270951541E+04  0.00000000000E+00 0. -1.
         -1   -1    0    0    0  501 -0.00000000000E+00 -0.00000000000E+00 -0.38773351273E+03  0.38773351273E+03  0.00000000000E+00 0.  1.
         24    2    1    2    0    0 -0.86436802167E+03 -0.29799673311E+02  0.17551830522E+04  0.19583654308E+04  0.80669178390E+02 0.  0.
        254    2    1    2    0    0  0.86436802167E+03  0.29799673311E+02  0.10841785892E+04  0.16564632360E+04  0.90576329233E+03 0.  0.
         23    2    4    4    0    0  0.25880786319E+03 -0.31992343289E+03  0.79856535213E+02  0.42929259503E+03  0.92642069140E+02 0.  0.
         23    2    4    4    0    0  0.60556015848E+03  0.34972310620E+03  0.10043220539E+04  0.12271706410E+04  0.90970531269E+02 0.  0.
          4    1    3    3  502    0 -0.19128015653E+02  0.49711814701E+01  0.70442463105E+02  0.73162382659E+02  0.00000000000E+00 0. -1.
         -3    1    3    3    0  502 -0.84524000602E+03 -0.34770854781E+02  0.16847405891E+04  0.18852030481E+04  0.00000000000E+00 0.  1.
         13    1    5    5    0    0  0.25259531250E+03 -0.30995727912E+03  0.57394290585E+02  0.40394555495E+03  0.00000000000E+00 0.  1.
        -13    1    5    5    0    0  0.62125506883E+01 -0.99661537700E+01  0.22462244628E+02  0.25347040079E+02  0.00000000000E+00 0. -1.
          3    1    6    6  503    0  0.67503715612E+01  0.10331217367E+02  0.43715448424E+02  0.45424024474E+02  0.00000000000E+00 0. -1.
         -3    1    6    6    0  503  0.59880978692E+03  0.33939188883E+03  0.96060660552E+03  0.11817466165E+04  0.00000000000E+00 0.  1.
<mgrwt>
<rscale>  0 0.22371884E+04</rscale>
<asrwt>0</asrwt>
<pdfrwt beam="1">  1        2 0.49647616E+00 0.22371884E+04</pdfrwt>
<pdfrwt beam="2">  1       -1 0.59651312E-01 0.22371884E+04</pdfrwt>
<totfact> 0.36843227E+00</totfact>
</mgrwt>
</event>
<event>
12    7  0.1675873E-007  0.3000234E+04  0.7818608E-02  0.8243664E-01
         -1   -1    0    0    0  501 -0.00000000000E+00  0.00000000000E+00  0.84324545994E+03  0.84324545994E+03  0.00000000000E+00 0.  1.
          2   -1    0    0  501    0  0.00000000000E+00 -0.00000000000E+00 -0.26686777416E+04  0.26686777416E+04  0.00000000000E+00 0. -1.
         24    2    1    2    0    0  0.16580625808E+03  0.81575599598E+03  0.42924296792E+03  0.93992640258E+03  0.79136316382E+02 0.  0.
        254    2    1    2    0    0 -0.16580625808E+03 -0.81575599598E+03 -0.22546752496E+04  0.25719967990E+04  0.91578244825E+03 0.  0.
         23    2    4    4    0    0 -0.33140439411E+03 -0.78523197364E+03 -0.22155480513E+04  0.23756212705E+04  0.92223254836E+02 0.  0.
         23    2    4    4    0    0  0.16559813603E+03 -0.30524022341E+02 -0.39127198333E+02  0.19637552842E+03  0.93155525426E+02 0.  0.
          2    1    3    3  502    0  0.54991526410E+02  0.18683790503E+03  0.13377072774E+03  0.23627754513E+03  0.00000000000E+00 0. -1.
         -1    1    3    3    0  502  0.11081473167E+03  0.62891809095E+03  0.29547224018E+03  0.70364885745E+03  0.00000000000E+00 0.  1.
         13    1    5    5    0    0 -0.18896872981E+02 -0.12911868006E+03 -0.34621326901E+03  0.36998966606E+03  0.00000000000E+00 0. -1.
        -13    1    5    5    0    0 -0.31250752113E+03 -0.65611329357E+03 -0.18693347822E+04  0.20056316045E+04  0.00000000000E+00 0.  1.
          4    1    6    6  503    0  0.42551059555E+02 -0.21708217346E+02  0.28568301878E+02  0.55659565591E+02  0.00000000000E+00 0. -1.
         -4    1    6    6    0  503  0.12304707647E+03 -0.88158049948E+01 -0.67695500212E+02  0.14071596283E+03  0.00000000000E+00 0.  1.
<mgrwt>
<rscale>  0 0.30002336E+04</rscale>
<asrwt>0</asrwt>
<pdfrwt beam="1">  1        2 0.41056580E+00 0.30002336E+04</pdfrwt>
<pdfrwt beam="2">  1       -1 0.12973007E+00 0.30002336E+04</pdfrwt>
<totfact> 0.13742145E+00</totfact>
</mgrwt>
</event>
<event>
12    7  0.1675873E-007  0.1761866E+04  0.7818608E-02  0.8726846E-01
          2   -1    0    0  501    0  0.00000000000E+00  0.00000000000E+00  0.91559314807E+03  0.91559314807E+03  0.00000000000E+00 0. -1.
         -1   -1    0    0    0  501 -0.00000000000E+00 -0.00000000000E+00 -0.84758459081E+03  0.84758459081E+03  0.00000000000E+00 0.  1.
         24    2    1    2    0    0  0.85626495391E+02  0.36593496654E+03 -0.50192881863E+03  0.63211943680E+03  0.80013417370E+02 0.  0.
        254    2    1    2    0    0 -0.85626495391E+02 -0.36593496654E+03  0.56993737590E+03  0.11310583021E+04  0.90178931787E+03 0.  0.
         23    2    4    4    0    0  0.19945861282E+03  0.15562742487E+02 -0.14831655016E+03  0.26524745259E+03  0.91282390805E+02 0.  0.
         23    2    4    4    0    0 -0.28508510821E+03 -0.38149770903E+03  0.71825392606E+03  0.86581084950E+03  0.83220814071E+02 0.  0.
          2    1    3    3  502    0 -0.10884310602E+02  0.42682561814E+02 -0.36025343607E+02  0.56904258911E+02  0.00000000000E+00 0. -1.
         -1    1    3    3    0  502  0.96510805993E+02  0.32325240473E+03 -0.46590347502E+03  0.57521517789E+03  0.00000000000E+00 0.  1.
         13    1    5    5    0    0  0.14439599551E+03  0.41601095635E+02 -0.13689718693E+03  0.20327738307E+03  0.00000000000E+00 0. -1.
        -13    1    5    5    0    0  0.55062617308E+02 -0.26038353148E+02 -0.11419363229E+02  0.61970069518E+02  0.00000000000E+00 0.  1.
          2    1    6    6  503    0 -0.21310547107E+03 -0.33362941291E+03  0.61128020891E+03  0.72827606082E+03  0.00000000000E+00 0. -1.
         -2    1    6    6    0  503 -0.71979637141E+02 -0.47868296116E+02  0.10697371714E+03  0.13753478867E+03  0.00000000000E+00 0.  1.
<mgrwt>
<rscale>  0 0.17618657E+04</rscale>
<asrwt>0</asrwt>
<pdfrwt beam="1">  1        2 0.14086048E+00 0.17618657E+04</pdfrwt>
<pdfrwt beam="2">  1       -1 0.13039763E+00 0.17618657E+04</pdfrwt>
<totfact> 0.15565471E+01</totfact>
</mgrwt>
</event>
<event>
12    7  0.1675873E-007  0.1071789E+04  0.7818608E-02  0.9233133E-01
          2   -1    0    0  501    0  0.00000000000E+00  0.00000000000E+00  0.12003267803E+04  0.12003267803E+04  0.00000000000E+00 0. -1.
         -1   -1    0    0    0  501 -0.00000000000E+00 -0.00000000000E+00 -0.23925396575E+03  0.23925396575E+03  0.00000000000E+00 0.  1.
         24    2    1    2    0    0 -0.44272197530E+02  0.15605277246E+02  0.28641061858E+03  0.30073076538E+03  0.78768005309E+02 0.  0.
        254    2    1    2    0    0  0.44272197530E+02 -0.15605277246E+02  0.67466219597E+03  0.11388499807E+04  0.91630052256E+03 0.  0.
         23    2    4    4    0    0  0.23297389376E+03 -0.16983253411E+02  0.83696429689E+03  0.87358525606E+03  0.89870458236E+02 0.  0.
         23    2    4    4    0    0 -0.18870169623E+03  0.13779761645E+01 -0.16230210092E+03  0.26526472461E+03  0.91723351348E+02 0.  0.
          4    1    3    3  502    0 -0.54787909054E+02  0.26935548239E+02  0.13071181994E+03  0.14426648470E+03  0.00000000000E+00 0. -1.
         -3    1    3    3    0  502  0.10515711525E+02 -0.11330270993E+02  0.15569879864E+03  0.15646428068E+03  0.00000000000E+00 0.  1.
         13    1    5    5    0    0  0.12017644483E+03 -0.44451909206E+02  0.53351877845E+03  0.54868992800E+03  0.00000000000E+00 0.  1.
        -13    1    5    5    0    0  0.11279744893E+03  0.27468655795E+02  0.30344551844E+03  0.32489532806E+03  0.00000000000E+00 0. -1.
          3    1    6    6  503    0 -0.16384134217E+03 -0.20253830235E+02 -0.16341744048E+03  0.23229176244E+03  0.00000000000E+00 0. -1.
         -3    1    6    6    0  503 -0.24860354060E+02  0.21631806399E+02  0.11153395647E+01  0.32972962172E+02  0.00000000000E+00 0.  1.
<mgrwt>
<rscale>  0 0.10717891E+04</rscale>
<asrwt>0</asrwt>
<pdfrwt beam="1">  1        2 0.18466565E+00 0.10717891E+04</pdfrwt>
<pdfrwt beam="2">  1       -1 0.36808303E-01 0.10717891E+04</pdfrwt>
<totfact> 0.15192634E+02</totfact>
</mgrwt>
</event>
<event>
12    7  0.1675873E-007  0.1530685E+04  0.7818608E-02  0.8864300E-01
         -1   -1    0    0    0  501 -0.00000000000E+00  0.00000000000E+00  0.62617940898E+03  0.62617940898E+03  0.00000000000E+00 0.  1.
          2   -1    0    0  501    0  0.00000000000E+00 -0.00000000000E+00 -0.93543376642E+03  0.93543376642E+03  0.00000000000E+00 0. -1.
         24    2    1    2    0    0 -0.49528907923E+02 -0.72905809173E+02 -0.58653484709E+03  0.59826744053E+03  0.78309857685E+02 0.  0.
        254    2    1    2    0    0  0.49528907923E+02  0.72905809173E+02  0.27728048965E+03  0.96334573487E+03  0.91835840782E+03 0.  0.
         23    2    4    4    0    0 -0.14616406492E+03  0.13423714295E+03 -0.28407331925E+03  0.35834534437E+03  0.91269878403E+02 0.  0.
         23    2    4    4    0    0  0.19569297284E+03 -0.61331333773E+02  0.56135380890E+03  0.60500039050E+03  0.94074978726E+02 0.  0.
          2    1    3    3  502    0 -0.36893006240E+02 -0.78917673856E+02 -0.56994444469E+03  0.57656375466E+03  0.00000000000E+00 0. -1.
         -1    1    3    3    0  502 -0.12635901684E+02  0.60118646839E+01 -0.16590402405E+02  0.21703685869E+02  0.00000000000E+00 0.  1.
         13    1    5    5    0    0 -0.51675975134E+02  0.10726654411E+03 -0.17343385854E+03  0.21037067567E+03  0.00000000000E+00 0.  1.
        -13    1    5    5    0    0 -0.94488089782E+02  0.26970598831E+02 -0.11063946071E+03  0.14797466870E+03  0.00000000000E+00 0. -1.
          4    1    6    6  503    0  0.84886201572E+02 -0.44678365944E+02  0.14520062715E+03  0.17402599152E+03  0.00000000000E+00 0. -1.
         -4    1    6    6    0  503  0.11080677127E+03 -0.16652967829E+02  0.41615318175E+03  0.43097439898E+03  0.00000000000E+00 0.  1.
<mgrwt>
<rscale>  0 0.15306853E+04</rscale>
<asrwt>0</asrwt>
<pdfrwt beam="1">  1        2 0.14391289E+00 0.15306853E+04</pdfrwt>
<pdfrwt beam="2">  1       -1 0.96335294E-01 0.15306853E+04</pdfrwt>
<totfact> 0.31693405E+01</totfact>
</mgrwt>
</event>
<event>
12    7  0.1675873E-007  0.1298848E+04  0.7818608E-02  0.9030479E-01
         -1   -1    0    0    0  501 -0.00000000000E+00  0.00000000000E+00  0.65973030880E+03  0.65973030880E+03  0.00000000000E+00 0.  1.
          2   -1    0    0  501    0  0.00000000000E+00 -0.00000000000E+00 -0.63927917488E+03  0.63927917488E+03  0.00000000000E+00 0. -1.
         24    2    1    2    0    0  0.12748263193E+03 -0.29641842154E+03 -0.10742725267E+03  0.34944976406E+03  0.80366789857E+02 0.  0.
        254    2    1    2    0    0 -0.12748263193E+03  0.29641842154E+03  0.12787838658E+03  0.94955971963E+03  0.88385240697E+03 0.  0.
         23    2    4    4    0    0  0.27112709631E+03  0.57271558063E+02 -0.21689930143E+03  0.36367706730E+03  0.91791985511E+02 0.  0.
         23    2    4    4    0    0 -0.39860972824E+03  0.23914686348E+03  0.34477768801E+03  0.58588265233E+03  0.91136657800E+02 0.  0.
          4    1    3    3  502    0  0.13691906041E+03 -0.25548598131E+03 -0.86338274014E+02  0.30244704215E+03  0.00000000000E+00 0. -1.
         -3    1    3    3    0  502 -0.94364284765E+01 -0.40932440232E+02 -0.21088978652E+02  0.47002721904E+02  0.00000000000E+00 0.  1.
         13    1    5    5    0    0  0.48200362087E+02 -0.49698448451E+01 -0.30446085380E+01  0.48551456253E+02  0.00000000000E+00 0. -1.
        -13    1    5    5    0    0  0.22292673422E+03  0.62241402908E+02 -0.21385469289E+03  0.31512561104E+03  0.00000000000E+00 0.  1.
          2    1    6    6  503    0 -0.22512254736E+02  0.41014702557E+02  0.50650891391E+02  0.68953029214E+02  0.00000000000E+00 0. -1.
         -2    1    6    6    0  503 -0.37609747350E+03  0.19813216092E+03  0.29412679662E+03  0.51692962312E+03  0.00000000000E+00 0.  1.
<mgrwt>
<rscale>  0 0.12988485E+04</rscale>
<asrwt>0</asrwt>
<pdfrwt beam="1">  1        2 0.98350642E-01 0.12988485E+04</pdfrwt>
<pdfrwt beam="2">  1       -1 0.10149697E+00 0.12988485E+04</pdfrwt>
<totfact> 0.47372409E+01</totfact>
</mgrwt>
</event>
<event>
12    7  0.1675873E-007  0.2282427E+04  0.7818608E-02  0.8484882E-01
          2   -1    0    0  501    0  0.00000000000E+00  0.00000000000E+00  0.29461254298E+04  0.29461254298E+04  0.00000000000E+00 0. -1.
         -1   -1    0    0    0  501 -0.00000000000E+00 -0.00000000000E+00 -0.44206133912E+03  0.44206133912E+03  0.00000000000E+00 0.  1.
         24    2    1    2    0    0  0.93289089611E+03  0.69884677465E+02  0.13777777057E+04  0.16672975770E+04  0.80252799002E+02 0.  0.
        254    2    1    2    0    0 -0.93289089611E+03 -0.69884677465E+02  0.11262863850E+04  0.17208891920E+04  0.90430597573E+03 0.  0.
         23    2    4    4    0    0 -0.68362541060E+03  0.42141497301E+01  0.12428632088E+04  0.14214043568E+04  0.91213643649E+02 0.  0.
         23    2    4    4    0    0 -0.24926548551E+03 -0.74098827195E+02 -0.11657682376E+03  0.29948483514E+03  0.92071125648E+02 0.  0.
          2    1    3    3  502    0  0.59461576088E+03  0.45727753393E+02  0.80843371618E+03  0.10046014155E+04  0.00000000000E+00 0. -1.
         -3    1    3    3    0  502  0.33827513524E+03  0.24156924072E+02  0.56934398950E+03  0.66269616151E+03  0.00000000000E+00 0.  1.
         13    1    5    5    0    0 -0.42739814426E+03  0.46043089307E+02  0.75793743736E+03  0.87135429003E+03  0.00000000000E+00 0.  1.
        -13    1    5    5    0    0 -0.25622726634E+03 -0.41828939576E+02  0.48492577143E+03  0.55005006681E+03  0.00000000000E+00 0. -1.
          1    1    6    6  503    0 -0.14448219449E+03 -0.15413154287E+02 -0.10409213112E+03  0.17873959162E+03  0.00000000000E+00 0. -1.
         -1    1    6    6    0  503 -0.10478329102E+03 -0.58685672908E+02 -0.12484692640E+02  0.12074524352E+03  0.00000000000E+00 0.  1.
<mgrwt>
<rscale>  0 0.22824269E+04</rscale>
<asrwt>0</asrwt>
<pdfrwt beam="1">  1        2 0.45325005E+00 0.22824269E+04</pdfrwt>
<pdfrwt beam="2">  1       -1 0.68009439E-01 0.22824269E+04</pdfrwt>
<totfact> 0.42568800E+00</totfact>
</mgrwt>
</event>
<event>
12    7  0.1675873E-007  0.1532207E+04  0.7818608E-02  0.8863314E-01
         -1   -1    0    0    0  501 -0.00000000000E+00  0.00000000000E+00  0.48854817617E+03  0.48854817617E+03  0.00000000000E+00 0.  1.
          2   -1    0    0  501    0  0.00000000000E+00 -0.00000000000E+00 -0.12013440908E+04  0.12013440908E+04  0.00000000000E+00 0. -1.
         24    2    1    2    0    0 -0.43715804299E+03  0.13805284563E+03 -0.41571590529E+03  0.62403332655E+03  0.80200598494E+02 0.  0.
        254    2    1    2    0    0  0.43715804299E+03 -0.13805284563E+03 -0.29708000932E+03  0.10658589404E+04  0.91522292703E+03 0.  0.
         23    2    4    4    0    0  0.64040013308E+03 -0.32990878727E+03 -0.25940648499E+03  0.77104867122E+03  0.90951583678E+02 0.  0.
         23    2    4    4    0    0 -0.20324209009E+03  0.19185594164E+03 -0.37673524328E+02  0.29481026918E+03  0.85893834755E+02 0.  0.
          2    1    3    3  502    0 -0.25482403637E+03  0.11320313662E+03 -0.28186969405E+03  0.39648551559E+03  0.00000000000E+00 0. -1.
         -1    1    3    3    0  502 -0.18233400662E+03  0.24849709009E+02 -0.13384621124E+03  0.22754781096E+03  0.00000000000E+00 0.  1.
         13    1    5    5    0    0  0.61300792696E+03 -0.29967083744E+03 -0.26013792910E+03  0.73024178974E+03  0.00000000000E+00 0.  1.
        -13    1    5    5    0    0  0.27392206120E+02 -0.30237949827E+02  0.73144410517E+00  0.40806881483E+02  0.00000000000E+00 0. -1.
          3    1    6    6  503    0 -0.76433441733E+02  0.20506587324E+02 -0.69968283046E+01  0.79445243691E+02  0.00000000000E+00 0. -1.
         -3    1    6    6    0  503 -0.12680864836E+03  0.17134935432E+03 -0.30676696024E+02  0.21536502548E+03  0.00000000000E+00 0.  1.
<mgrwt>
<rscale>  0 0.15322069E+04</rscale>
<asrwt>0</asrwt>
<pdfrwt beam="1">  1        2 0.18482217E+00 0.15322069E+04</pdfrwt>
<pdfrwt beam="2">  1       -1 0.75161259E-01 0.15322069E+04</pdfrwt>
<totfact> 0.36986491E+01</totfact>
</mgrwt>
</event>
<event>
12    7  0.1675873E-007  0.1474341E+04  0.7818608E-02  0.8901697E-01
         -1   -1    0    0    0  501 -0.00000000000E+00  0.00000000000E+00  0.31065294169E+03  0.31065294169E+03  0.00000000000E+00 0.  1.
          2   -1    0    0  501    0  0.00000000000E+00 -0.00000000000E+00 -0.17492855285E+04  0.17492855285E+04  0.00000000000E+00 0. -1.
         24    2    1    2    0    0  0.35500484270E+03  0.12267645710E+03 -0.82414122518E+03  0.90912453263E+03  0.78871448071E+02 0.  0.
        254    2    1    2    0    0 -0.35500484270E+03 -0.12267645710E+03 -0.61449136160E+03  0.11508139375E+04  0.89760522161E+03 0.  0.
         23    2    4    4    0    0 -0.20200619099E+03 -0.25278080825E+03 -0.79688578447E+03  0.86488203643E+03  0.91045841422E+02 0.  0.
         23    2    4    4    0    0 -0.15299865171E+03  0.13010435115E+03  0.18239442287E+03  0.28593190109E+03  0.90297269914E+02 0.  0.
          4    1    3    3  502    0  0.30738426536E+03  0.99442527902E+02 -0.76073458696E+03  0.82649320309E+03  0.00000000000E+00 0. -1.
         -3    1    3    3    0  502  0.47620577335E+02  0.23233929197E+02 -0.63406638213E+02  0.82631329537E+02  0.00000000000E+00 0.  1.
         13    1    5    5    0    0 -0.16947258738E+03 -0.25059836044E+03 -0.69739704513E+03  0.76018625000E+03  0.00000000000E+00 0.  1.
        -13    1    5    5    0    0 -0.32533603606E+02 -0.21824478067E+01 -0.99488739341E+02  0.10469578644E+03  0.00000000000E+00 0. -1.
          4    1    6    6  503    0 -0.25056547902E+02  0.26271291878E+02  0.89942621457E+02  0.96993229270E+02  0.00000000000E+00 0. -1.
         -4    1    6    6    0  503 -0.12794210381E+03  0.10383305927E+03  0.92451801412E+02  0.18893867182E+03  0.00000000000E+00 0.  1.
<mgrwt>
<rscale>  0 0.14743415E+04</rscale>
<asrwt>0</asrwt>
<pdfrwt beam="1">  1        2 0.26912085E+00 0.14743415E+04</pdfrwt>
<pdfrwt beam="2">  1       -1 0.47792760E-01 0.14743415E+04</pdfrwt>
<totfact> 0.44402944E+01</totfact>
</mgrwt>
</event>
<event>
12    7  0.1675873E-007  0.1343580E+04  0.7818608E-02  0.8995702E-01
          2   -1    0    0  501    0  0.00000000000E+00  0.00000000000E+00  0.78263992553E+03  0.78263992553E+03  0.00000000000E+00 0. -1.
         -1   -1    0    0    0  501 -0.00000000000E+00 -0.00000000000E+00 -0.57664060533E+03  0.57664060533E+03  0.00000000000E+00 0.  1.
         24    2    1    2    0    0 -0.20311168865E+03 -0.63267257348E+02 -0.25685107529E+03  0.34306114937E+03  0.80382668603E+02 0.  0.
        254    2    1    2    0    0  0.20311168865E+03  0.63267257348E+02  0.46285039549E+03  0.10162193815E+04  0.87932601394E+03 0.  0.
         23    2    4    4    0    0  0.22405020250E+03  0.44758030591E+03  0.24167333025E+03  0.56309148116E+03  0.90218590806E+02 0.  0.
         23    2    4    4    0    0 -0.20938513851E+02 -0.38431304856E+03  0.22117706524E+03  0.45312790032E+03  0.90943164697E+02 0.  0.
          4    1    3    3  502    0 -0.70916273727E+01  0.14096254203E+02 -0.10906316512E+02  0.19181848222E+02  0.00000000000E+00 0. -1.
         -3    1    3    3    0  502 -0.19602006128E+03 -0.77363511551E+02 -0.24594475878E+03  0.32387930115E+03  0.00000000000E+00 0.  1.
         13    1    5    5    0    0  0.20861203342E+03  0.33609285228E+03  0.17797737623E+03  0.43376644901E+03  0.00000000000E+00 0. -1.
        -13    1    5    5    0    0  0.15438169075E+02  0.11148745363E+03  0.63695954019E+02  0.12932503215E+03  0.00000000000E+00 0.  1.
          4    1    6    6  503    0  0.24911453811E+02 -0.17755235221E+03  0.67990575874E+02  0.19175019352E+03  0.00000000000E+00 0.  1.
         -4    1    6    6    0  503 -0.45849967662E+02 -0.20676069635E+03  0.15318648936E+03  0.26137770681E+03  0.00000000000E+00 0. -1.
<mgrwt>
<rscale>  0 0.13435802E+04</rscale>
<asrwt>0</asrwt>
<pdfrwt beam="1">  1        2 0.12040614E+00 0.13435802E+04</pdfrwt>
<pdfrwt beam="2">  1       -1 0.88713939E-01 0.13435802E+04</pdfrwt>
<totfact> 0.49361733E+01</totfact>
</mgrwt>
</event>
<event>
12    7  0.1675873E-007  0.1097522E+04  0.7818608E-02  0.9207611E-01
          2   -1    0    0  501    0  0.00000000000E+00  0.00000000000E+00  0.25615061279E+04  0.25615061279E+04  0.00000000000E+00 0. -1.
         -1   -1    0    0    0  501 -0.00000000000E+00 -0.00000000000E+00 -0.11756300781E+03  0.11756300781E+03  0.00000000000E+00 0.  1.
         24    2    1    2    0    0 -0.44166044568E+02  0.16972349355E+03  0.49741274299E+03  0.53347366616E+03  0.80112494882E+02 0.  0.
        254    2    1    2    0    0  0.44166044568E+02 -0.16972349355E+03  0.19465303771E+04  0.21455954696E+04  0.88534891782E+03 0.  0.
         23    2    4    4    0    0 -0.10934106372E+02 -0.87033095514E+02 -0.57350226615E+02  0.13721452945E+03  0.88568979906E+02 0.  0.
         23    2    4    4    0    0  0.55100150941E+02 -0.82690398038E+02  0.20038806037E+04  0.20083809401E+04  0.90458819950E+02 0.  0.
          4    1    3    3  502    0  0.55174818057E+01  0.26074932231E+02  0.17512271247E+03  0.17713923653E+03  0.00000000000E+00 0. -1.
         -3    1    3    3    0  502 -0.49683526374E+02  0.14364856132E+03  0.32229003052E+03  0.35633442963E+03  0.00000000000E+00 0.  1.
         13    1    5    5    0    0 -0.41578709753E+02 -0.73914963065E+02 -0.59830957278E+02  0.10378802589E+03  0.00000000000E+00 0.  1.
        -13    1    5    5    0    0  0.30644603381E+02 -0.13118132450E+02  0.24807306630E+01  0.33426503556E+02  0.00000000000E+00 0. -1.
          4    1    6    6  503    0  0.20088633164E+02 -0.45751770072E+02  0.33325017141E+03  0.33697545073E+03  0.00000000000E+00 0. -1.
         -4    1    6    6    0  503  0.35011517776E+02 -0.36938627966E+02  0.16706304323E+04  0.16714054894E+04  0.00000000000E+00 0.  1.
<mgrwt>
<rscale>  0 0.10975215E+04</rscale>
<asrwt>0</asrwt>
<pdfrwt beam="1">  1        2 0.39407782E+00 0.10975215E+04</pdfrwt>
<pdfrwt beam="2">  1       -1 0.18086619E-01 0.10975215E+04</pdfrwt>
<totfact> 0.88580596E+01</totfact>
</mgrwt>
</event>
<event>
12    7  0.1675873E-007  0.1142764E+04  0.7818608E-02  0.9164485E-01
          2   -1    0    0  501    0  0.00000000000E+00  0.00000000000E+00  0.51759719958E+03  0.51759719958E+03  0.00000000000E+00 0. -1.
         -1   -1    0    0    0  501 -0.00000000000E+00 -0.00000000000E+00 -0.63075595298E+03  0.63075595298E+03  0.00000000000E+00 0.  1.
         24    2    1    2    0    0  0.19320969569E+02  0.60262263175E+02  0.18207149435E+03  0.20851247246E+03  0.79514664616E+02 0.  0.
        254    2    1    2    0    0 -0.19320969569E+02 -0.60262263175E+02 -0.29523024776E+03  0.93984068010E+03  0.89001953044E+03 0.  0.
         23    2    4    4    0    0  0.44726275173E+02 -0.84127685225E+02  0.30326043394E+03  0.33058749807E+03  0.90792598693E+02 0.  0.
         23    2    4    4    0    0 -0.64047244742E+02  0.23865422050E+02 -0.59849068170E+03  0.60925318203E+03  0.91250949617E+02 0.  0.
          4    1    3    3  502    0  0.26824120331E+02  0.76977669762E+02  0.13142017437E+03  0.15464914259E+03  0.00000000000E+00 0. -1.
         -3    1    3    3    0  502 -0.75031507616E+01 -0.16715406587E+02  0.50651319979E+02  0.53863329867E+02  0.00000000000E+00 0.  1.
         13    1    5    5    0    0 -0.42494815675E+01 -0.25113271288E+02  0.98306897910E+01  0.27301592447E+02  0.00000000000E+00 0.  1.
        -13    1    5    5    0    0  0.48975756740E+02 -0.59014413937E+02  0.29342974415E+03  0.30328590563E+03  0.00000000000E+00 0. -1.
          1    1    6    6  503    0 -0.85808418767E+02  0.20756624877E+02 -0.53054629465E+03  0.53784132695E+03  0.00000000000E+00 0. -1.
         -1    1    6    6    0  503  0.21761174025E+02  0.31087971734E+01 -0.67944387046E+02  0.71411855080E+02  0.00000000000E+00 0.  1.
<mgrwt>
<rscale>  0 0.11427642E+04</rscale>
<asrwt>0</asrwt>
<pdfrwt beam="1">  1        2 0.79630339E-01 0.11427642E+04</pdfrwt>
<pdfrwt beam="2">  1       -1 0.97039377E-01 0.11427642E+04</pdfrwt>
<totfact> 0.68391102E+01</totfact>
</mgrwt>
</event>
<event>
12    7  0.1675873E-007  0.1251221E+04  0.7818608E-02  0.9069167E-01
          2   -1    0    0  501    0  0.00000000000E+00  0.00000000000E+00  0.10484493102E+04  0.10484493102E+04  0.00000000000E+00 0. -1.
         -1   -1    0    0    0  501 -0.00000000000E+00 -0.00000000000E+00 -0.37330251804E+03  0.37330251804E+03  0.00000000000E+00 0.  1.
         24    2    1    2    0    0  0.11726543579E+03  0.26326692316E+03  0.10483727514E+03  0.31738852748E+03  0.81755537161E+02 0.  0.
        254    2    1    2    0    0 -0.11726543579E+03 -0.26326692316E+03  0.57030951699E+03  0.11043633007E+04  0.90072454144E+03 0.  0.
         23    2    4    4    0    0 -0.27253296792E+03  0.11238959189E+03  0.61221727983E+03  0.68589412301E+03  0.93461817291E+02 0.  0.
         23    2    4    4    0    0  0.15526753213E+03 -0.37565651505E+03 -0.41907762841E+02  0.41846917771E+03  0.90190732774E+02 0.  0.
          2    1    3    3  502    0  0.11044639840E+03  0.21264037289E+03  0.54628584300E+02  0.24576130152E+03  0.00000000000E+00 0. -1.
         -3    1    3    3    0  502  0.68190373989E+01  0.50626550263E+02  0.50208690840E+02  0.71627225958E+02  0.00000000000E+00 0.  1.
         13    1    5    5    0    0 -0.18954632534E+02  0.10999309193E+02  0.89150225122E+01  0.23658836058E+02  0.00000000000E+00 0.  1.
        -13    1    5    5    0    0 -0.25357833539E+03  0.10139028270E+03  0.60330225732E+03  0.66223528696E+03  0.00000000000E+00 0. -1.
          3    1    6    6  503    0  0.16175281674E+03 -0.36211140314E+03 -0.52550502698E+02  0.40006274175E+03  0.00000000000E+00 0. -1.
         -3    1    6    6    0  503 -0.64852846064E+01 -0.13545111905E+02  0.10642739858E+02  0.18406435957E+02  0.00000000000E+00 0.  1.
<mgrwt>
<rscale>  0 0.12512214E+04</rscale>
<asrwt>0</asrwt>
<pdfrwt beam="1">  1        2 0.16129989E+00 0.12512214E+04</pdfrwt>
<pdfrwt beam="2">  1       -1 0.57431157E-01 0.12512214E+04</pdfrwt>
<totfact> 0.80795737E+01</totfact>
</mgrwt>
</event>
<event>
12    7  0.1675873E-007  0.2103813E+04  0.7818608E-02  0.8559566E-01
         -1   -1    0    0    0  501 -0.00000000000E+00  0.00000000000E+00  0.11180042402E+04  0.11180042402E+04  0.00000000000E+00 0.  1.
          2   -1    0    0  501    0  0.00000000000E+00 -0.00000000000E+00 -0.98971649914E+03  0.98971649914E+03  0.00000000000E+00 0. -1.
         24    2    1    2    0    0 -0.26146510922E+03  0.75830591452E+03  0.34112845046E+03  0.87639541179E+03  0.91150615773E+02 0.  0.
        254    2    1    2    0    0  0.26146510922E+03 -0.75830591452E+03 -0.21284070937E+03  0.12313253276E+04  0.90965324791E+03 0.  0.
         23    2    4    4    0    0  0.38138751068E+03 -0.24337310848E+03  0.24759883799E+03  0.52439494434E+03  0.94857629322E+02 0.  0.
         23    2    4    4    0    0 -0.11992240145E+03 -0.51493280604E+03 -0.46043954736E+03  0.70693038324E+03  0.90602499214E+02 0.  0.
          2    1    3    3  502    0 -0.38719863519E+02  0.19848301795E+03  0.11645669399E+03  0.23336001761E+03  0.00000000000E+00 0. -1.
         -1    1    3    3    0  502 -0.22274524570E+03  0.55982289657E+03  0.22467175647E+03  0.64303539418E+03  0.00000000000E+00 0.  1.
         13    1    5    5    0    0  0.22902377860E+03 -0.98301713403E+02  0.10620803416E+03  0.27091560410E+03  0.00000000000E+00 0.  1.
        -13    1    5    5    0    0  0.15236373208E+03 -0.14507139507E+03  0.14139080383E+03  0.25347934024E+03  0.00000000000E+00 0. -1.
          1    1    6    6  503    0 -0.10824549740E+02 -0.13336233000E+03 -0.16354580832E+03  0.21130526107E+03  0.00000000000E+00 0. -1.
         -1    1    6    6    0  503 -0.10909785171E+03 -0.38157047605E+03 -0.29689373904E+03  0.49562512216E+03  0.00000000000E+00 0.  1.
<mgrwt>
<rscale>  0 0.21038130E+04</rscale>
<asrwt>0</asrwt>
<pdfrwt beam="1">  1        2 0.15226408E+00 0.21038130E+04</pdfrwt>
<pdfrwt beam="2">  1       -1 0.17200065E+00 0.21038130E+04</pdfrwt>
<totfact> 0.63932840E+00</totfact>
</mgrwt>
</event>
<event>
12    7  0.1675873E-007  0.1423181E+04  0.7818608E-02  0.8937208E-01
          2   -1    0    0  501    0  0.00000000000E+00  0.00000000000E+00  0.20773117768E+04  0.20773117768E+04  0.00000000000E+00 0. -1.
         -1   -1    0    0    0  501 -0.00000000000E+00 -0.00000000000E+00 -0.24375789563E+03  0.24375789563E+03  0.00000000000E+00 0.  1.
         24    2    1    2    0    0  0.29287882028E+03 -0.26442233016E+02  0.10558094976E+04  0.10989095407E+04  0.79945534231E+02 0.  0.
        254    2    1    2    0    0 -0.29287882028E+03  0.26442233016E+02  0.77774438356E+03  0.12221601317E+04  0.89571863120E+03 0.  0.
         23    2    4    4    0    0 -0.35413536480E+03  0.35867483225E+02  0.94947982068E+03  0.10180671401E+04  0.90831927133E+02 0.  0.
         23    2    4    4    0    0  0.61256544524E+02 -0.94252502096E+01 -0.17173543712E+03  0.20409299156E+03  0.91212330600E+02 0.  0.
          2    1    3    3  502    0  0.18587522653E+03 -0.50089418421E+02  0.73989784092E+03  0.76453081342E+03  0.00000000000E+00 0. -1.
         -1    1    3    3    0  502  0.10700359375E+03  0.23647185406E+02  0.31591165666E+03  0.33437872729E+03  0.00000000000E+00 0.  1.
         13    1    5    5    0    0 -0.11601474638E+03 -0.17612046471E+02  0.22794751355E+03  0.25637799144E+03  0.00000000000E+00 0.  1.
        -13    1    5    5    0    0 -0.23812061842E+03  0.53479529696E+02  0.72153230713E+03  0.76168914870E+03  0.00000000000E+00 0. -1.
          2    1    6    6  503    0  0.35824125943E+02 -0.26420029763E+02 -0.16737838242E+03  0.17319615721E+03  0.00000000000E+00 0. -1.
         -2    1    6    6    0  503  0.25432418581E+02  0.16994779553E+02 -0.43570546968E+01  0.30896834345E+02  0.00000000000E+00 0.  1.
<mgrwt>
<rscale>  0 0.14231812E+04</rscale>
<asrwt>0</asrwt>
<pdfrwt beam="1">  1        2 0.31958642E+00 0.14231812E+04</pdfrwt>
<pdfrwt beam="2">  1       -1 0.37501216E-01 0.14231812E+04</pdfrwt>
<totfact> 0.45914634E+01</totfact>
</mgrwt>
</event>
<event>
12    7  0.1675873E-007  0.3342441E+04  0.7818608E-02  0.8152179E-01
         -1   -1    0    0    0  501 -0.00000000000E+00  0.00000000000E+00  0.18928675645E+04  0.18928675645E+04  0.00000000000E+00 0.  1.
          2   -1    0    0  501    0  0.00000000000E+00 -0.00000000000E+00 -0.14755277849E+04  0.14755277849E+04  0.00000000000E+00 0. -1.
         24    2    1    2    0    0  0.10913039150E+04  0.64435906399E+03  0.10882104140E+04  0.16722882024E+04  0.78759688422E+02 0.  0.
        254    2    1    2    0    0 -0.10913039150E+04 -0.64435906399E+03 -0.67087063443E+03  0.16961071471E+04  0.90585275178E+03 0.  0.
         23    2    4    4    0    0  0.22393866420E+01 -0.92475238889E+02  0.16559906939E+03  0.20998227732E+03  0.90071195981E+02 0.  0.
         23    2    4    4    0    0 -0.10935433016E+04 -0.55188382510E+03 -0.83646970382E+03  0.14861248697E+04  0.92048107337E+02 0.  0.
          4    1    3    3  502    0  0.11476900661E+03  0.87547914038E+02  0.14882730220E+03  0.20733096250E+03  0.00000000000E+00 0. -1.
         -3    1    3    3    0  502  0.97653490839E+03  0.55681114995E+03  0.93938311179E+03  0.14649572399E+04  0.00000000000E+00 0.  1.
         13    1    5    5    0    0  0.79651078632E+01 -0.39028719774E+02  0.14823688706E+03  0.15349546767E+03  0.00000000000E+00 0.  1.
        -13    1    5    5    0    0 -0.57257212212E+01 -0.53446519115E+02  0.17362182330E+02  0.56486809649E+02  0.00000000000E+00 0. -1.
          3    1    6    6  503    0 -0.60145924855E+03 -0.27474941614E+03 -0.40504213421E+03  0.77543510355E+03  0.00000000000E+00 0. -1.
         -3    1    6    6    0  503 -0.49208405309E+03 -0.27713440896E+03 -0.43142756961E+03  0.71068976618E+03  0.00000000000E+00 0.  1.
<mgrwt>
<rscale>  0 0.33424414E+04</rscale>
<asrwt>0</asrwt>
<pdfrwt beam="1">  1        2 0.22700427E+00 0.33424414E+04</pdfrwt>
<pdfrwt beam="2">  1       -1 0.29121039E+00 0.33424414E+04</pdfrwt>
<totfact> 0.46759887E-01</totfact>
</mgrwt>
</event>
<event>
12    7  0.1675873E-007  0.3294865E+04  0.7818608E-02  0.8164203E-01
         -1   -1    0    0    0  501 -0.00000000000E+00  0.00000000000E+00  0.79849616287E+03  0.79849616287E+03  0.00000000000E+00 0.  1.
          2   -1    0    0  501    0  0.00000000000E+00 -0.00000000000E+00 -0.33989319803E+04  0.33989319803E+04  0.00000000000E+00 0. -1.
         24    2    1    2    0    0 -0.51652780147E+03 -0.13896805718E+04 -0.16349642808E+04  0.22084846716E+04  0.79267168058E+02 0.  0.
        254    2    1    2    0    0  0.51652780147E+03  0.13896805718E+04 -0.96547153660E+03  0.19889434715E+04  0.90870665438E+03 0.  0.
         23    2    4    4    0    0  0.76983691978E+02 -0.26328860681E+02  0.10196482164E+03  0.15978771640E+03  0.92279963836E+02 0.  0.
         23    2    4    4    0    0  0.43954410949E+03  0.14160094325E+04 -0.10674363582E+04  0.18291557551E+04  0.90048101844E+02 0.  0.
          4    1    3    3  502    0 -0.39340584259E+03 -0.10605639180E+04 -0.11960701426E+04  0.16462526438E+04  0.00000000000E+00 0. -1.
         -3    1    3    3    0  502 -0.12312195888E+03 -0.32911665375E+03 -0.43889413821E+03  0.56223202781E+03  0.00000000000E+00 0.  1.
         13    1    5    5    0    0  0.88748086060E+02  0.22563603066E+01  0.90622281176E+02  0.12686099395E+03  0.00000000000E+00 0. -1.
        -13    1    5    5    0    0 -0.11764394082E+02 -0.28585220988E+02  0.11342540463E+02  0.32926722448E+02  0.00000000000E+00 0.  1.
          1    1    6    6  503    0  0.20711460141E+03  0.74616856423E+03 -0.60447395423E+03  0.98237098171E+03  0.00000000000E+00 0. -1.
         -1    1    6    6    0  503  0.23242950808E+03  0.66984086824E+03 -0.46296240401E+03  0.84678477343E+03  0.00000000000E+00 0.  1.
<mgrwt>
<rscale>  0 0.32948652E+04</rscale>
<asrwt>0</asrwt>
<pdfrwt beam="1">  1        2 0.52291262E+00 0.32948652E+04</pdfrwt>
<pdfrwt beam="2">  1       -1 0.12284556E+00 0.32948652E+04</pdfrwt>
<totfact> 0.52877202E-01</totfact>
</mgrwt>
</event>
<event>
12    7  0.1675873E-007  0.2859607E+04  0.7818608E-02  0.8284998E-01
          2   -1    0    0  501    0  0.00000000000E+00  0.00000000000E+00  0.22264787481E+04  0.22264787481E+04  0.00000000000E+00 0. -1.
         -1   -1    0    0    0  501 -0.00000000000E+00 -0.00000000000E+00 -0.91819326017E+03  0.91819326017E+03  0.00000000000E+00 0.  1.
         24    2    1    2    0    0  0.12191082197E+03 -0.87080983618E+03 -0.44367202586E+03  0.98822017652E+03  0.81007601109E+02 0.  0.
        254    2    1    2    0    0 -0.12191082197E+03  0.87080983618E+03  0.17519575138E+04  0.21564518317E+04  0.89875322152E+03 0.  0.
         23    2    4    4    0    0  0.64116362459E+00  0.10209509349E+04  0.15870497052E+04  0.18892547154E+04  0.90638791571E+02 0.  0.
         23    2    4    4    0    0 -0.12255198560E+03 -0.15014109868E+03  0.16490780858E+03  0.26719711630E+03  0.81476223170E+02 0.  0.
          2    1    3    3  502    0  0.37175558746E+02 -0.17752085997E+03 -0.58306613461E+02  0.19051335666E+03  0.00000000000E+00 0. -1.
         -1    1    3    3    0  502  0.84735263224E+02 -0.69328897621E+03 -0.38536541240E+03  0.79770681986E+03  0.00000000000E+00 0.  1.
         13    1    5    5    0    0 -0.31902698457E+02  0.86723777516E+03  0.13481774133E+04  0.16033407244E+04  0.00000000000E+00 0. -1.
        -13    1    5    5    0    0  0.32543862082E+02  0.15371315970E+03  0.23887229194E+03  0.28591399105E+03  0.00000000000E+00 0.  1.
          2    1    6    6  503    0 -0.10053422596E+03 -0.13747441856E+03  0.17071223266E+03  0.24114106395E+03  0.00000000000E+00 0. -1.
         -2    1    6    6    0  503 -0.22017759637E+02 -0.12666680121E+02 -0.58044240802E+01  0.26056052342E+02  0.00000000000E+00 0.  1.
<mgrwt>
<rscale>  0 0.28596068E+04</rscale>
<asrwt>0</asrwt>
<pdfrwt beam="1">  1        2 0.34253519E+00 0.28596068E+04</pdfrwt>
<pdfrwt beam="2">  1       -1 0.14126050E+00 0.28596068E+04</pdfrwt>
<totfact> 0.20112673E+00</totfact>
</mgrwt>
</event>
<event>
12    7  0.1675873E-007  0.1487083E+04  0.7818608E-02  0.8893088E-01
         -3   -1    0    0    0  501 -0.00000000000E+00  0.00000000000E+00  0.21783757979E+03  0.21783757979E+03  0.00000000000E+00 0.  1.
          2   -1    0    0  501    0  0.00000000000E+00 -0.00000000000E+00 -0.25379193686E+04  0.25379193686E+04  0.00000000000E+00 0. -1.
         24    2    1    2    0    0  0.35337053676E+03 -0.52333647228E+02 -0.18058762903E+03  0.40831802138E+03  0.80636021375E+02 0.  0.
        254    2    1    2    0    0 -0.35337053676E+03  0.52333647228E+02 -0.21394941597E+04  0.23474389270E+04  0.89745457235E+03 0.  0.
         23    2    4    4    0    0 -0.49711983654E+03  0.15553905931E+03 -0.62220010943E+03  0.81719765315E+03  0.96739326541E+02 0.  0.
         23    2    4    4    0    0  0.14374929978E+03 -0.10320541208E+03 -0.15172940503E+04  0.15302412738E+04  0.90232492637E+02 0.  0.
          4    1    3    3  502    0  0.35566825278E+02 -0.44893461027E+01  0.65157892058E+01  0.36436366418E+02  0.00000000000E+00 0. -1.
         -3    1    3    3    0  502  0.31780371148E+03 -0.47844301125E+02 -0.18710341824E+03  0.37188165496E+03  0.00000000000E+00 0.  1.
         13    1    5    5    0    0 -0.16553950797E+03  0.38297547588E+02 -0.13881090997E+03  0.21940487592E+03  0.00000000000E+00 0. -1.
        -13    1    5    5    0    0 -0.33158032857E+03  0.11724151172E+03 -0.48338919946E+03  0.59779277724E+03  0.00000000000E+00 0.  1.
          4    1    6    6  503    0  0.14647295081E+03 -0.66567898698E+02 -0.11702634317E+04  0.11812713955E+04  0.00000000000E+00 0. -1.
         -4    1    6    6    0  503 -0.27236510314E+01 -0.36637513382E+02 -0.34703061865E+03  0.34896987828E+03  0.00000000000E+00 0.  1.
<mgrwt>
<rscale>  0 0.14870833E+04</rscale>
<asrwt>0</asrwt>
<pdfrwt beam="1">  1        2 0.39044914E+00 0.14870833E+04</pdfrwt>
<pdfrwt beam="2">  1       -3 0.33513473E-01 0.14870833E+04</pdfrwt>
<totfact> 0.18245573E+01</totfact>
</mgrwt>
</event>
<event>
12    7  0.1724674E-007  0.1410335E+04  0.7818608E-02  0.8946371E-01
         -1   -1    0    0    0  501 -0.00000000000E+00  0.00000000000E+00  0.24162618147E+03  0.24162618147E+03  0.00000000000E+00 0.  1.
          2   -1    0    0  501    0  0.00000000000E+00 -0.00000000000E+00 -0.20579776037E+04  0.20579776037E+04  0.00000000000E+00 0. -1.
         24    2    1    2    0    0  0.30999200038E+03 -0.19705651363E+03 -0.80937250380E+03  0.89204569507E+03  0.75732174945E+02 0.  0.
        254    2    1    2    0    0 -0.30999200038E+03  0.19705651363E+03 -0.10069789184E+04  0.14075580901E+04  0.91229760766E+03 0.  0.
         23    2    4    4    0    0  0.19288230001E+03  0.62576307340E+02  0.47560805072E+02  0.22794733719E+03  0.92620637312E+02 0.  0.
         23    2    4    4    0    0 -0.50287430040E+03  0.13448020629E+03 -0.10545397235E+04  0.11796107529E+04  0.91978323731E+02 0.  0.
          2    1    3    3  502    0  0.29995588819E+03 -0.19219236943E+03 -0.73435664280E+03  0.81620531765E+03  0.00000000000E+00 0. -1.
         -1    1    3    3    0  502  0.10036112192E+02 -0.48641442053E+01 -0.75015860995E+02  0.75840377422E+02  0.00000000000E+00 0.  1.
         13    1    5    5    0    0  0.28504386275E+02  0.34670641428E+01 -0.25688901991E+02  0.38528434385E+02  0.00000000000E+00 0. -1.
        -13    1    5    5    0    0  0.16437791374E+03  0.59109243197E+02  0.73249707063E+02  0.18941890281E+03  0.00000000000E+00 0.  1.
          2    1    6    6  503    0 -0.19673610344E+03  0.87110631786E+02 -0.36529405895E+03  0.42394941452E+03  0.00000000000E+00 0. -1.
         -2    1    6    6    0  503 -0.30613819695E+03  0.47369574508E+02 -0.68924566451E+03  0.75566133835E+03  0.00000000000E+00 0.  1.
<mgrwt>
<rscale>  0 0.14103351E+04</rscale>
<asrwt>0</asrwt>
<pdfrwt beam="1">  1        2 0.31661193E+00 0.14103351E+04</pdfrwt>
<pdfrwt beam="2">  1       -1 0.37173260E-01 0.14103351E+04</pdfrwt>
<totfact> 0.47868734E+01</totfact>
</mgrwt>
</event>
<event>
12    7  0.1675873E-007  0.1330979E+04  0.7818608E-02  0.9005353E-01
         -1   -1    0    0    0  501 -0.00000000000E+00  0.00000000000E+00  0.54459584759E+03  0.54459584759E+03  0.00000000000E+00 0.  1.
          2   -1    0    0  501    0  0.00000000000E+00 -0.00000000000E+00 -0.81322029117E+03  0.81322029117E+03  0.00000000000E+00 0. -1.
         24    2    1    2    0    0  0.20409232762E+03 -0.26833650114E+03 -0.15811687128E+03  0.38106614099E+03  0.80946295734E+02 0.  0.
        254    2    1    2    0    0 -0.20409232762E+03  0.26833650114E+03 -0.11050757230E+03  0.97674999777E+03  0.91003872366E+03 0.  0.
         23    2    4    4    0    0  0.34035125845E+03  0.38745770422E+02  0.49757292629E+02  0.35823161736E+03  0.92270741017E+02 0.  0.
         23    2    4    4    0    0 -0.54444358607E+03  0.22959073071E+03 -0.16026486493E+03  0.61851838041E+03  0.88030891927E+02 0.  0.
          4    1    3    3  502    0  0.43660742916E+02 -0.83159298191E+02 -0.92516690585E+01  0.94378613721E+02  0.00000000000E+00 0. -1.
         -1    1    3    3    0  502  0.16043158470E+03 -0.18517720295E+03 -0.14886520222E+03  0.28668752727E+03  0.00000000000E+00 0.  1.
         13    1    5    5    0    0  0.74730637331E+02 -0.44382140859E+01  0.48352679356E+02  0.89119849086E+02  0.00000000000E+00 0. -1.
        -13    1    5    5    0    0  0.26562062112E+03  0.43183984508E+02  0.14046132728E+01  0.26911176827E+03  0.00000000000E+00 0.  1.
          4    1    6    6  503    0 -0.24011545582E+03  0.13266868955E+03 -0.10828388821E+03  0.29492679389E+03  0.00000000000E+00 0. -1.
         -4    1    6    6    0  503 -0.30432813025E+03  0.96922041166E+02 -0.51980976722E+02  0.32359158652E+03  0.00000000000E+00 0.  1.
<mgrwt>
<rscale>  0 0.13309792E+04</rscale>
<asrwt>0</asrwt>
<pdfrwt beam="1">  1        2 0.12511081E+00 0.13309792E+04</pdfrwt>
<pdfrwt beam="2">  1       -1 0.83783977E-01 0.13309792E+04</pdfrwt>
<totfact> 0.53173598E+01</totfact>
</mgrwt>
</event>
<event>
12    7  0.1675873E-007  0.1273961E+04  0.7818608E-02  0.9050473E-01
          2   -1    0    0  501    0  0.00000000000E+00  0.00000000000E+00  0.16334801734E+04  0.16334801734E+04  0.00000000000E+00 0. -1.
         -1   -1    0    0    0  501 -0.00000000000E+00 -0.00000000000E+00 -0.24839232304E+03  0.24839232304E+03  0.00000000000E+00 0.  1.
         24    2    1    2    0    0  0.80249121258E+02  0.29180935966E+03  0.21043438657E+03  0.37733492482E+03  0.80662200529E+02 0.  0.
        254    2    1    2    0    0 -0.80249121258E+02 -0.29180935966E+03  0.11746534638E+04  0.15045375716E+04  0.89007298608E+03 0.  0.
         23    2    4    4    0    0  0.92541204215E+02 -0.51053791228E+03  0.10717179519E+04  0.11942652178E+04  0.92071753065E+02 0.  0.
         23    2    4    4    0    0 -0.17279032547E+03  0.21872855262E+03  0.10293551184E+03  0.31027235376E+03  0.89300266524E+02 0.  0.
          2    1    3    3  502    0  0.39529362915E+02  0.15601724111E+03  0.15978342408E+03  0.22679217947E+03  0.00000000000E+00 0. -1.
         -1    1    3    3    0  502  0.40719758343E+02  0.13579211854E+03  0.50650962489E+02  0.15054274536E+03  0.00000000000E+00 0.  1.
         13    1    5    5    0    0 -0.73464515147E+01 -0.79341889186E+02  0.22756085013E+03  0.24110795558E+03  0.00000000000E+00 0.  1.
        -13    1    5    5    0    0  0.99887655730E+02 -0.43119602309E+03  0.84415710179E+03  0.95315726226E+03  0.00000000000E+00 0. -1.
          1    1    6    6  503    0 -0.22699650231E+02  0.17303749395E+02 -0.15584585358E+02  0.32520350006E+02  0.00000000000E+00 0.  1.
         -1    1    6    6    0  503 -0.15009067524E+03  0.20142480322E+03  0.11852009720E+03  0.27775200375E+03  0.00000000000E+00 0. -1.
<mgrwt>
<rscale>  0 0.12739607E+04</rscale>
<asrwt>0</asrwt>
<pdfrwt beam="1">  1        2 0.25130464E+00 0.12739607E+04</pdfrwt>
<pdfrwt beam="2">  1       -1 0.38214205E-01 0.12739607E+04</pdfrwt>
<totfact> 0.79094558E+01</totfact>
</mgrwt>
</event>
<event>
12    7  0.1675873E-007  0.2155186E+04  0.7818608E-02  0.8537316E-01
          2   -1    0    0  501    0  0.00000000000E+00  0.00000000000E+00  0.14032345834E+04  0.14032345834E+04  0.00000000000E+00 0. -1.
         -1   -1    0    0    0  501 -0.00000000000E+00 -0.00000000000E+00 -0.82752118412E+03  0.82752118412E+03  0.00000000000E+00 0.  1.
         24    2    1    2    0    0  0.51448749893E+03  0.45517630362E+03  0.80831324480E+03  0.10637760885E+04  0.79789791719E+02 0.  0.
        254    2    1    2    0    0 -0.51448749893E+03 -0.45517630362E+03 -0.23259984553E+03  0.11669796790E+04  0.91425162242E+03 0.  0.
         23    2    4    4    0    0  0.16648842005E+03 -0.13062224054E+03 -0.33098989018E+03  0.40090619375E+03  0.79943136345E+02 0.  0.
         23    2    4    4    0    0 -0.68097591898E+03 -0.32455406308E+03  0.98390044649E+02  0.76607348524E+03  0.90135685496E+02 0.  0.
          2    1    3    3  502    0  0.36147673450E+03  0.31645480943E+03  0.50694325653E+03  0.69842719115E+03  0.00000000000E+00 0. -1.
         -1    1    3    3    0  502  0.15301076443E+03  0.13872149419E+03  0.30136998828E+03  0.36534889738E+03  0.00000000000E+00 0.  1.
         13    1    5    5    0    0  0.10768599965E+03 -0.12615419857E+03 -0.22377832198E+03  0.27854603520E+03  0.00000000000E+00 0.  1.
        -13    1    5    5    0    0  0.58802420404E+02 -0.44680419744E+01 -0.10721156820E+03  0.12236015855E+03  0.00000000000E+00 0. -1.
          4    1    6    6  503    0 -0.36683915152E+03 -0.21829855780E+03  0.76968174921E+02  0.43376182794E+03  0.00000000000E+00 0. -1.
         -4    1    6    6    0  503 -0.31413676746E+03 -0.10625550528E+03  0.21421869728E+02  0.33231165730E+03  0.00000000000E+00 0.  1.
<mgrwt>
<rscale>  0 0.21551857E+04</rscale>
<asrwt>0</asrwt>
<pdfrwt beam="1">  1        2 0.21588224E+00 0.21551857E+04</pdfrwt>
<pdfrwt beam="2">  1       -1 0.12731095E+00 0.21551857E+04</pdfrwt>
<totfact> 0.80526084E+00</totfact>
</mgrwt>
</event>
<event>
12    7  0.1675873E-007  0.3464810E+04  0.7818608E-02  0.8122181E-01
         -1   -1    0    0    0  501 -0.00000000000E+00  0.00000000000E+00  0.19774584898E+04  0.19774584898E+04  0.00000000000E+00 0.  1.
          2   -1    0    0  501    0  0.00000000000E+00 -0.00000000000E+00 -0.15177193937E+04  0.15177193937E+04  0.00000000000E+00 0. -1.
         24    2    1    2    0    0  0.15744087257E+04  0.10377868044E+01  0.57730512617E+03  0.16787982511E+04  0.79488656244E+02 0.  0.
        254    2    1    2    0    0 -0.15744087257E+04 -0.10377868044E+01 -0.11756603008E+03  0.18163796324E+04  0.89813656258E+03 0.  0.
         23    2    4    4    0    0 -0.82057963158E+03  0.20062241292E+03  0.33035302480E+03  0.91163391657E+03  0.91339983202E+02 0.  0.
         23    2    4    4    0    0 -0.75382909414E+03 -0.20166019972E+03 -0.44791905488E+03  0.90474571585E+03  0.94911491927E+02 0.  0.
          2    1    3    3  502    0  0.15041717724E+04 -0.58566253978E+01  0.53487961216E+03  0.15964533255E+04  0.00000000000E+00 0. -1.
         -1    1    3    3    0  502  0.70236953351E+02  0.68944122022E+01  0.42425514009E+02  0.82344925615E+02  0.00000000000E+00 0.  1.
         13    1    5    5    0    0 -0.54048220564E+02  0.29143632793E+01  0.44211507086E+02  0.69888203713E+02  0.00000000000E+00 0. -1.
        -13    1    5    5    0    0 -0.76653141101E+03  0.19770804964E+03  0.28614151771E+03  0.84174571286E+03  0.00000000000E+00 0.  1.
          1    1    6    6  503    0 -0.34754789375E+03 -0.73374490571E+02 -0.15405899415E+03  0.38717893538E+03  0.00000000000E+00 0. -1.
         -1    1    6    6    0  503 -0.40628120039E+03 -0.12828570915E+03 -0.29386006073E+03  0.51756678048E+03  0.00000000000E+00 0.  1.
<mgrwt>
<rscale>  0 0.34648100E+04</rscale>
<asrwt>0</asrwt>
<pdfrwt beam="1">  1        2 0.23349529E+00 0.34648100E+04</pdfrwt>
<pdfrwt beam="2">  1       -1 0.30422438E+00 0.34648100E+04</pdfrwt>
<totfact> 0.36078521E-01</totfact>
</mgrwt>
</event>
<event>
12    7  0.1675873E-007  0.1869301E+04  0.7818608E-02  0.8670290E-01
         -3   -1    0    0    0  501 -0.00000000000E+00  0.00000000000E+00  0.24998706977E+03  0.24998706977E+03  0.00000000000E+00 0.  1.
          2   -1    0    0  501    0  0.00000000000E+00 -0.00000000000E+00 -0.34944664962E+04  0.34944664962E+04  0.00000000000E+00 0. -1.
         24    2    1    2    0    0 -0.11316368401E+03  0.62173397708E+03 -0.57551250420E+03  0.85805726189E+03  0.75421910418E+02 0.  0.
        254    2    1    2    0    0  0.11316368401E+03 -0.62173397708E+03 -0.26689669223E+04  0.28863963041E+04  0.89918854232E+03 0.  0.
         23    2    4    4    0    0  0.28864717652E+03  0.73921948938E+01 -0.30026897708E+03  0.42765934634E+03  0.96743066209E+02 0.  0.
         23    2    4    4    0    0 -0.17548349252E+03 -0.62912617197E+03 -0.23686979452E+04  0.24587369578E+04  0.89795743705E+02 0.  0.
          4    1    3    3  502    0 -0.69231784992E+02  0.21811610589E+03 -0.17872734327E+03  0.29036380445E+03  0.00000000000E+00 0. -1.
         -3    1    3    3    0  502 -0.43931899013E+02  0.40361787118E+03 -0.39678516093E+03  0.56769345744E+03  0.00000000000E+00 0.  1.
         13    1    5    5    0    0  0.24447777521E+03 -0.28572445880E+02 -0.25911438089E+03  0.35738778605E+03  0.00000000000E+00 0.  1.
        -13    1    5    5    0    0  0.44169401314E+02  0.35964640774E+02 -0.41154596182E+02  0.70271560288E+02  0.00000000000E+00 0. -1.
          2    1    6    6  503    0 -0.17521350716E+02 -0.22038225584E+03 -0.79085717175E+03  0.82117623110E+03  0.00000000000E+00 0. -1.
         -2    1    6    6    0  503 -0.15796214180E+03 -0.40874391613E+03 -0.15778407734E+04  0.16375607267E+04  0.00000000000E+00 0.  1.
<mgrwt>
<rscale>  0 0.18693009E+04</rscale>
<asrwt>0</asrwt>
<pdfrwt beam="1">  1        2 0.53761018E+00 0.18693009E+04</pdfrwt>
<pdfrwt beam="2">  1       -3 0.38459553E-01 0.18693009E+04</pdfrwt>
<totfact> 0.33787022E+00</totfact>
</mgrwt>
</event>
<event>
12    7  0.1675873E-007  0.1926286E+04  0.7818608E-02  0.8641882E-01
         -1   -1    0    0    0  501 -0.00000000000E+00  0.00000000000E+00  0.51826620970E+03  0.51826620970E+03  0.00000000000E+00 0.  1.
          2   -1    0    0  501    0  0.00000000000E+00 -0.00000000000E+00 -0.17898986880E+04  0.17898986880E+04  0.00000000000E+00 0. -1.
         24    2    1    2    0    0 -0.45635694638E+03  0.56009902069E+03 -0.74533632530E+03  0.10411528399E+04  0.80625198944E+02 0.  0.
        254    2    1    2    0    0  0.45635694638E+03 -0.56009902069E+03 -0.52629615296E+03  0.12670120578E+04  0.89797513242E+03 0.  0.
         23    2    4    4    0    0 -0.30761978119E+02 -0.63188072210E+03 -0.20056198344E+03  0.67006449337E+03  0.92421695587E+02 0.  0.
         23    2    4    4    0    0  0.48711892450E+03  0.71781701413E+02 -0.32573416952E+03  0.59694756441E+03  0.88352624164E+02 0.  0.
          4    1    3    3  502    0 -0.41885306144E+03  0.52768838849E+03 -0.71782409459E+03  0.98446145338E+03  0.00000000000E+00 0. -1.
         -3    1    3    3    0  502 -0.37503884938E+02  0.32410632199E+02 -0.27512230717E+02  0.56691386507E+02  0.00000000000E+00 0.  1.
         13    1    5    5    0    0 -0.20792995039E+02 -0.13428196598E+03 -0.81047518229E+02  0.15821724066E+03  0.00000000000E+00 0.  1.
        -13    1    5    5    0    0 -0.99689830805E+01 -0.49759875612E+03 -0.11951446522E+03  0.51184725271E+03  0.00000000000E+00 0. -1.
          1    1    6    6  503    0  0.31804346758E+03  0.81157923000E+02 -0.24354426165E+03  0.40872003024E+03  0.00000000000E+00 0. -1.
         -1    1    6    6    0  503  0.16907545692E+03 -0.93762215873E+01 -0.82189907869E+02  0.18822753417E+03  0.00000000000E+00 0.  1.
<mgrwt>
<rscale>  0 0.19262856E+04</rscale>
<asrwt>0</asrwt>
<pdfrwt beam="1">  1        2 0.27536903E+00 0.19262856E+04</pdfrwt>
<pdfrwt beam="2">  1       -1 0.79733263E-01 0.19262856E+04</pdfrwt>
<totfact> 0.14615823E+01</totfact>
</mgrwt>
</event>
<event>
12    7  0.1675873E-007  0.1779559E+04  0.7818608E-02  0.8717246E-01
          2   -1    0    0  501    0  0.00000000000E+00  0.00000000000E+00  0.13382143230E+04  0.13382143230E+04  0.00000000000E+00 0. -1.
         -1   -1    0    0    0  501 -0.00000000000E+00 -0.00000000000E+00 -0.59161480174E+03  0.59161480174E+03  0.00000000000E+00 0.  1.
         24    2    1    2    0    0  0.45722619120E+03  0.31123985504E+03  0.66446800029E+03  0.86922710193E+03  0.90066608907E+02 0.  0.
        254    2    1    2    0    0 -0.45722619120E+03 -0.31123985504E+03  0.82131520965E+02  0.10606020228E+04  0.90122418229E+03 0.  0.
         23    2    4    4    0    0 -0.68436112928E+03 -0.12566347310E+03 -0.92619428807E+02  0.70768206463E+03  0.89967117634E+02 0.  0.
         23    2    4    4    0    0  0.22713493808E+03 -0.18557638194E+03  0.17475094977E+03  0.35291995817E+03  0.89362905045E+02 0.  0.
          2    1    3    3  502    0  0.20803290241E+03  0.18091182776E+03  0.37734624428E+03  0.46732961171E+03  0.00000000000E+00 0. -1.
         -1    1    3    3    0  502  0.24919328879E+03  0.13032802728E+03  0.28712175601E+03  0.40189749022E+03  0.00000000000E+00 0.  1.
         13    1    5    5    0    0 -0.53488893096E+03 -0.85079002848E+02 -0.36124597297E+02  0.54281635174E+03  0.00000000000E+00 0.  1.
        -13    1    5    5    0    0 -0.14947219832E+03 -0.40584470254E+02 -0.56494831510E+02  0.16486571288E+03  0.00000000000E+00 0. -1.
          3    1    6    6  503    0  0.17764595496E+03 -0.18580475312E+03  0.14919425192E+03  0.29722115739E+03  0.00000000000E+00 0. -1.
         -3    1    6    6    0  503  0.49488983116E+02  0.22837117263E+00  0.25556697856E+02  0.55698800782E+02  0.00000000000E+00 0.  1.
<mgrwt>
<rscale>  0 0.17795588E+04</rscale>
<asrwt>0</asrwt>
<pdfrwt beam="1">  1        2 0.20587913E+00 0.17795588E+04</pdfrwt>
<pdfrwt beam="2">  1       -1 0.91017662E-01 0.17795588E+04</pdfrwt>
<totfact> 0.19948410E+01</totfact>
</mgrwt>
</event>
<event>
12    7  0.1675873E-007  0.1708937E+04  0.7818608E-02  0.8756284E-01
         -1   -1    0    0    0  501 -0.00000000000E+00  0.00000000000E+00  0.11151017337E+04  0.11151017337E+04  0.00000000000E+00 0.  1.
          2   -1    0    0  501    0  0.00000000000E+00 -0.00000000000E+00 -0.65475316625E+03  0.65475316625E+03  0.00000000000E+00 0. -1.
         24    2    1    2    0    0 -0.48137646276E+03  0.37340668338E+03  0.99315900976E+02  0.62224771151E+03  0.78566635422E+02 0.  0.
        254    2    1    2    0    0  0.48137646276E+03 -0.37340668338E+03  0.36103266651E+03  0.11476071885E+04  0.90305139536E+03 0.  0.
         23    2    4    4    0    0 -0.19142971771E+03 -0.32511927674E+03  0.25606026626E+02  0.38849089478E+03  0.89003515660E+02 0.  0.
         23    2    4    4    0    0  0.67280618047E+03 -0.48287406645E+02  0.33542663988E+03  0.75911629370E+03  0.93523721539E+02 0.  0.
          2    1    3    3  502    0 -0.16274065396E+03  0.11259264503E+03 -0.31668260629E+01  0.19791829868E+03  0.00000000000E+00 0. -1.
         -3    1    3    3    0  502 -0.31863580881E+03  0.26081403835E+03  0.10248272704E+03  0.42432941283E+03  0.00000000000E+00 0.  1.
         13    1    5    5    0    0 -0.11759526713E+03 -0.12692463212E+03 -0.12922198363E+02  0.17350934355E+03  0.00000000000E+00 0.  1.
        -13    1    5    5    0    0 -0.73834450581E+02 -0.19819464462E+03  0.38528224989E+02  0.21498155123E+03  0.00000000000E+00 0. -1.
          2    1    6    6  503    0  0.34322611483E+03  0.11699318212E+02  0.13684489464E+03  0.36968576540E+03  0.00000000000E+00 0. -1.
         -2    1    6    6    0  503  0.32958006564E+03 -0.59986724857E+02  0.19858174525E+03  0.38943052830E+03  0.00000000000E+00 0.  1.
<mgrwt>
<rscale>  0 0.17089370E+04</rscale>
<asrwt>0</asrwt>
<pdfrwt beam="1">  1        2 0.10073126E+00 0.17089370E+04</pdfrwt>
<pdfrwt beam="2">  1       -1 0.17155411E+00 0.17089370E+04</pdfrwt>
<totfact> 0.11597922E+01</totfact>
</mgrwt>
</event>
<event>
12    7  0.1675873E-007  0.1466633E+04  0.7818608E-02  0.8906950E-01
         -1   -1    0    0    0  501 -0.00000000000E+00  0.00000000000E+00  0.25547296351E+03  0.25547296351E+03  0.00000000000E+00 0.  1.
          2   -1    0    0  501    0  0.00000000000E+00 -0.00000000000E+00 -0.21049319678E+04  0.21049319678E+04  0.00000000000E+00 0. -1.
         24    2    1    2    0    0  0.17181176838E+03 -0.34403019185E+03 -0.19254089652E+03  0.43814846862E+03  0.83821399832E+02 0.  0.
        254    2    1    2    0    0 -0.17181176838E+03  0.34403019185E+03 -0.16569181078E+04  0.19222564627E+04  0.89544192209E+03 0.  0.
         23    2    4    4    0    0  0.20281222456E+03 -0.31304089461E+02 -0.11840926403E+04  0.12059041930E+04  0.10008395205E+03 0.  0.
         23    2    4    4    0    0 -0.37462399295E+03  0.37533428131E+03 -0.47282546747E+03  0.71635226968E+03  0.91529737092E+02 0.  0.
          4    1    3    3  502    0  0.45038423662E+02 -0.12849908232E+03 -0.10930541828E+03  0.17460855714E+03  0.00000000000E+00 0. -1.
         -3    1    3    3    0  502  0.12677334472E+03 -0.21553110953E+03 -0.83235478239E+02  0.26353991148E+03  0.00000000000E+00 0.  1.
         13    1    5    5    0    0  0.16129977168E+03 -0.56645454942E+02 -0.10365153252E+04  0.10505190828E+04  0.00000000000E+00 0. -1.
        -13    1    5    5    0    0  0.41512452880E+02  0.25341365481E+02 -0.14757731505E+03  0.15538511018E+03  0.00000000000E+00 0.  1.
          1    1    6    6  503    0 -0.19945085176E+03  0.25601658955E+03 -0.25827813247E+03  0.41476828483E+03  0.00000000000E+00 0. -1.
         -1    1    6    6    0  503 -0.17517314119E+03  0.11931769176E+03 -0.21454733500E+03  0.30158398485E+03  0.00000000000E+00 0.  1.
<mgrwt>
<rscale>  0 0.14666332E+04</rscale>
<asrwt>0</asrwt>
<pdfrwt beam="1">  1        2 0.32383570E+00 0.14666332E+04</pdfrwt>
<pdfrwt beam="2">  1       -1 0.39303532E-01 0.14666332E+04</pdfrwt>
<totfact> 0.40550467E+01</totfact>
</mgrwt>
</event>
<event>
12    7  0.1675873E-007  0.1671002E+04  0.7818608E-02  0.8778078E-01
          2   -1    0    0  501    0  0.00000000000E+00  0.00000000000E+00  0.98133126667E+03  0.98133126667E+03  0.00000000000E+00 0. -1.
         -1   -1    0    0    0  501 -0.00000000000E+00 -0.00000000000E+00 -0.71134219048E+03  0.71134219048E+03  0.00000000000E+00 0.  1.
         24    2    1    2    0    0  0.21879917443E+03  0.29796063936E+03  0.56493452080E+03  0.67978910607E+03  0.79426661810E+02 0.  0.
        254    2    1    2    0    0 -0.21879917443E+03 -0.29796063936E+03 -0.29494544461E+03  0.10128843511E+04  0.89570546052E+03 0.  0.
         23    2    4    4    0    0 -0.11252689136E+03 -0.35446655037E+03 -0.57729337418E+03  0.69283253136E+03  0.91871867448E+02 0.  0.
         23    2    4    4    0    0 -0.10627228308E+03  0.56505911011E+02  0.28234792957E+03  0.32005181971E+03  0.90697838120E+02 0.  0.
          2    1    3    3  502    0  0.18238264898E+03  0.23232135427E+03  0.38830150193E+03  0.48786750117E+03  0.00000000000E+00 0. -1.
         -1    1    3    3    0  502  0.36416525452E+02  0.65639285086E+02  0.17663301887E+03  0.19192160490E+03  0.00000000000E+00 0.  1.
         13    1    5    5    0    0  0.15647923282E+02 -0.58350117492E+02 -0.91316667566E+02  0.10949122106E+03  0.00000000000E+00 0. -1.
        -13    1    5    5    0    0 -0.12817481464E+03 -0.29611643288E+03 -0.48597670661E+03  0.58334131030E+03  0.00000000000E+00 0.  1.
          2    1    6    6  503    0 -0.23849882088E+02 -0.22961191312E+02  0.39292780446E+02  0.51380499971E+02  0.00000000000E+00 0. -1.
         -2    1    6    6    0  503 -0.82422400990E+02  0.79467102323E+02  0.24305514913E+03  0.26867131974E+03  0.00000000000E+00 0.  1.
<mgrwt>
<rscale>  0 0.16710025E+04</rscale>
<asrwt>0</asrwt>
<pdfrwt beam="1">  1        2 0.15097404E+00 0.16710025E+04</pdfrwt>
<pdfrwt beam="2">  1       -1 0.10943726E+00 0.16710025E+04</pdfrwt>
<totfact> 0.21774310E+01</totfact>
</mgrwt>
</event>
<event>
12    7  0.1675873E-007  0.2331736E+04  0.7818608E-02  0.8465512E-01
          2   -1    0    0  501    0  0.00000000000E+00  0.00000000000E+00  0.28199977018E+04  0.28199977018E+04  0.00000000000E+00 0. -1.
         -1   -1    0    0    0  501 -0.00000000000E+00 -0.00000000000E+00 -0.48200329879E+03  0.48200329879E+03  0.00000000000E+00 0.  1.
         24    2    1    2    0    0  0.19138934597E+03  0.33100853188E+03  0.22893819497E+04  0.23224943111E+04  0.80706774843E+02 0.  0.
        254    2    1    2    0    0 -0.19138934597E+03 -0.33100853188E+03  0.48612453258E+02  0.97950668945E+03  0.90048523261E+03 0.  0.
         23    2    4    4    0    0  0.43694744300E+02  0.27170131378E+03 -0.10494483854E+03  0.30814254408E+03  0.90595660762E+02 0.  0.
         23    2    4    4    0    0 -0.23508409027E+03 -0.60270984566E+03  0.15355729180E+03  0.67136414537E+03  0.92877802920E+02 0.  0.
          2    1    3    3  502    0  0.17350421933E+03  0.32668005818E+03  0.21106443366E+04  0.21428119587E+04  0.00000000000E+00 0. -1.
         -1    1    3    3    0  502  0.17885126646E+02  0.43284736983E+01  0.17873761308E+03  0.17968235242E+03  0.00000000000E+00 0.  1.
         13    1    5    5    0    0  0.42539659294E+02  0.13167419596E+03 -0.94819226769E+02  0.16774505137E+03  0.00000000000E+00 0. -1.
        -13    1    5    5    0    0  0.11550850051E+01  0.14002711782E+03 -0.10125611774E+02  0.14039749271E+03  0.00000000000E+00 0.  1.
          1    1    6    6  503    0 -0.74273442457E+02 -0.17786572844E+03  0.29002899649E+01  0.19277233539E+03  0.00000000000E+00 0. -1.
         -1    1    6    6    0  503 -0.16081064782E+03 -0.42484411721E+03  0.15065700184E+03  0.47859180998E+03  0.00000000000E+00 0.  1.
<mgrwt>
<rscale>  0 0.23317360E+04</rscale>
<asrwt>0</asrwt>
<pdfrwt beam="1">  1        2 0.43384579E+00 0.23317360E+04</pdfrwt>
<pdfrwt beam="2">  1       -1 0.74154355E-01 0.23317360E+04</pdfrwt>
<totfact> 0.42365991E+00</totfact>
</mgrwt>
</event>
<event>
12    7  0.1675873E-007  0.1258362E+04  0.7818608E-02  0.9063252E-01
         -1   -1    0    0    0  501 -0.00000000000E+00  0.00000000000E+00  0.20028695707E+03  0.20028695707E+03  0.00000000000E+00 0.  1.
          2   -1    0    0  501    0  0.00000000000E+00 -0.00000000000E+00 -0.19765074788E+04  0.19765074788E+04  0.00000000000E+00 0. -1.
         24    2    1    2    0    0 -0.10852873396E+03 -0.27576540356E+03 -0.54936746836E+03  0.62964836331E+03  0.82628095902E+02 0.  0.
        254    2    1    2    0    0  0.10852873396E+03  0.27576540356E+03 -0.12268530534E+04  0.15471460726E+04  0.89480026339E+03 0.  0.
         23    2    4    4    0    0 -0.15625916797E+03  0.52979847660E+03 -0.66468815098E+03  0.86959909009E+03  0.96378867275E+02 0.  0.
         23    2    4    4    0    0  0.26478790193E+03 -0.25403307304E+03 -0.56216490240E+03  0.67754698246E+03  0.91624782419E+02 0.  0.
          4    1    3    3  502    0 -0.73007300209E+02 -0.22322500516E+03 -0.48712522416E+03  0.54078688300E+03  0.00000000000E+00 0. -1.
         -3    1    3    3    0  502 -0.35521433749E+02 -0.52540398401E+02 -0.62242244193E+02  0.88861480304E+02  0.00000000000E+00 0.  1.
         13    1    5    5    0    0 -0.12182204391E+03  0.42874366610E+03 -0.47117267145E+03  0.64858725544E+03  0.00000000000E+00 0.  1.
        -13    1    5    5    0    0 -0.34437124064E+02  0.10105481051E+03 -0.19351547952E+03  0.22101183465E+03  0.00000000000E+00 0. -1.
          1    1    6    6  503    0  0.18593183535E+02  0.62784309464E+00 -0.89316245460E+01  0.20636728858E+02  0.00000000000E+00 0. -1.
         -1    1    6    6    0  503  0.24619471839E+03 -0.25466091613E+03 -0.55323327785E+03  0.65691025361E+03  0.00000000000E+00 0.  1.
<mgrwt>
<rscale>  0 0.12583619E+04</rscale>
<asrwt>0</asrwt>
<pdfrwt beam="1">  1        2 0.30407807E+00 0.12583619E+04</pdfrwt>
<pdfrwt beam="2">  1       -1 0.30813378E-01 0.12583619E+04</pdfrwt>
<totfact> 0.75117102E+01</totfact>
</mgrwt>
</event>
<event>
12    7  0.1675873E-007  0.2346549E+04  0.7818608E-02  0.8459790E-01
          2   -1    0    0  501    0  0.00000000000E+00  0.00000000000E+00  0.30953261816E+04  0.30953261816E+04  0.00000000000E+00 0. -1.
         -1   -1    0    0    0  501 -0.00000000000E+00 -0.00000000000E+00 -0.44472620336E+03  0.44472620336E+03  0.00000000000E+00 0.  1.
         24    2    1    2    0    0  0.33665188142E+03  0.26533716193E+02 -0.28700711913E+03  0.45015294404E+03  0.78905381587E+02 0.  0.
        254    2    1    2    0    0 -0.33665188142E+03 -0.26533716193E+02  0.29376070974E+04  0.30898994409E+04  0.89660725468E+03 0.  0.
         23    2    4    4    0    0 -0.19580493540E+03 -0.44862722066E+03  0.13637501351E+04  0.14518194406E+04  0.91429214892E+02 0.  0.
         23    2    4    4    0    0 -0.14084694601E+03  0.42209350447E+03  0.15738569622E+04  0.16380800003E+04  0.90992092966E+02 0.  0.
          2    1    3    3  502    0  0.23571158651E+02 -0.11156553468E+02 -0.38913072104E+01  0.26366844279E+02  0.00000000000E+00 0. -1.
         -1    1    3    3    0  502  0.31308072277E+03  0.37690269662E+02 -0.28311581192E+03  0.42378609976E+03  0.00000000000E+00 0.  1.
         13    1    5    5    0    0 -0.30362427209E+02 -0.13343461918E+03  0.47834232051E+03  0.49753195894E+03  0.00000000000E+00 0.  1.
        -13    1    5    5    0    0 -0.16544250819E+03 -0.31519260149E+03  0.88540781462E+03  0.95428748170E+03  0.00000000000E+00 0. -1.
          3    1    6    6  503    0 -0.72044983157E+02  0.31900789499E+03  0.10495179320E+04  0.10992926845E+04  0.00000000000E+00 0. -1.
         -3    1    6    6    0  503 -0.68801962856E+02  0.10308560948E+03  0.52433903027E+03  0.53878731578E+03  0.00000000000E+00 0.  1.
<mgrwt>
<rscale>  0 0.23465487E+04</rscale>
<asrwt>0</asrwt>
<pdfrwt beam="1">  1        2 0.47620401E+00 0.23465487E+04</pdfrwt>
<pdfrwt beam="2">  1       -1 0.68419418E-01 0.23465487E+04</pdfrwt>
<totfact> 0.33690726E+00</totfact>
</mgrwt>
</event>
<event>
12    7  0.1675873E-007  0.1275718E+04  0.7818608E-02  0.9049046E-01
         -1   -1    0    0    0  501 -0.00000000000E+00  0.00000000000E+00  0.13007210553E+03  0.13007210553E+03  0.00000000000E+00 0.  1.
          2   -1    0    0  501    0  0.00000000000E+00 -0.00000000000E+00 -0.31279874675E+04  0.31279874675E+04  0.00000000000E+00 0. -1.
         24    2    1    2    0    0  0.92587925452E+02 -0.47339272445E+02 -0.80991605378E+01  0.13313775172E+03  0.82743784513E+02 0.  0.
        254    2    1    2    0    0 -0.92587925452E+02  0.47339272445E+02 -0.29898162014E+04  0.31249218213E+04  0.90295179292E+03 0.  0.
         23    2    4    4    0    0 -0.18620133952E+03 -0.24927437695E+02 -0.10290271070E+03  0.23411724169E+03  0.94496555486E+02 0.  0.
         23    2    4    4    0    0  0.93613414067E+02  0.72266710140E+02 -0.28869134907E+04  0.28908045796E+04  0.92171936668E+02 0.  0.
          4    1    3    3  502    0  0.19826794464E+01  0.14882229171E+02 -0.17221369910E+02  0.22847042357E+02  0.00000000000E+00 0. -1.
         -3    1    3    3    0  502  0.90605246006E+02 -0.62221501616E+02  0.91222093725E+01  0.11029070936E+03  0.00000000000E+00 0.  1.
         13    1    5    5    0    0 -0.73591934939E+02  0.35030797120E+02 -0.52473271501E+02  0.96934894939E+02  0.00000000000E+00 0.  1.
        -13    1    5    5    0    0 -0.11260940458E+03 -0.59958234815E+02 -0.50429439194E+02  0.13718234675E+03  0.00000000000E+00 0. -1.
          3    1    6    6  503    0  0.84437808677E+02  0.18271923374E+02 -0.22063979706E+04  0.22080886784E+04  0.00000000000E+00 0. -1.
         -3    1    6    6    0  503  0.91756053897E+01  0.53994786765E+02 -0.68051552012E+03  0.68271590128E+03  0.00000000000E+00 0.  1.
<mgrwt>
<rscale>  0 0.12757177E+04</rscale>
<asrwt>0</asrwt>
<pdfrwt beam="1">  1        2 0.48122878E+00 0.12757177E+04</pdfrwt>
<pdfrwt beam="2">  1       -1 0.20011096E-01 0.12757177E+04</pdfrwt>
<totfact> 0.33470024E+01</totfact>
</mgrwt>
</event>
<event>
12    7  0.1675873E-007  0.1090537E+04  0.7818608E-02  0.9214464E-01
         -1   -1    0    0    0  501 -0.00000000000E+00  0.00000000000E+00  0.15752444553E+03  0.15752444553E+03  0.00000000000E+00 0.  1.
          2   -1    0    0  501    0  0.00000000000E+00 -0.00000000000E+00 -0.18874391638E+04  0.18874391638E+04  0.00000000000E+00 0. -1.
         24    2    1    2    0    0 -0.14847776973E+03 -0.65248510516E+01 -0.36598069963E+03  0.40285738829E+03  0.79145315785E+02 0.  0.
        254    2    1    2    0    0  0.14847776973E+03  0.65248510516E+01 -0.13639340186E+04  0.16421062210E+04  0.90227967514E+03 0.  0.
         23    2    4    4    0    0  0.13749703587E+03  0.32373304804E+03 -0.16614410512E+03  0.39949657284E+03  0.91022671782E+02 0.  0.
         23    2    4    4    0    0  0.10980733860E+02 -0.31720819699E+03 -0.11977899135E+04  0.12426096482E+04  0.92932470668E+02 0.  0.
          2    1    3    3  502    0 -0.72330419708E+02 -0.18515808442E+02 -0.93334774029E+02  0.11952365800E+03  0.00000000000E+00 0. -1.
         -1    1    3    3    0  502 -0.76147350020E+02  0.11990957391E+02 -0.27264592560E+03  0.28333373029E+03  0.00000000000E+00 0.  1.
         13    1    5    5    0    0  0.61236586937E+02  0.16781977462E+03 -0.35200975262E+02  0.18207829358E+03  0.00000000000E+00 0. -1.
        -13    1    5    5    0    0  0.76260448930E+02  0.15591327342E+03 -0.13094312986E+03  0.21741827926E+03  0.00000000000E+00 0.  1.
          3    1    6    6  503    0  0.11602745095E+02 -0.21850045039E+03 -0.96964222543E+03  0.99402369984E+03  0.00000000000E+00 0. -1.
         -3    1    6    6    0  503 -0.62201123445E+00 -0.98707746600E+02 -0.22814768808E+03  0.24858594834E+03  0.00000000000E+00 0.  1.
<mgrwt>
<rscale>  0 0.10905371E+04</rscale>
<asrwt>0</asrwt>
<pdfrwt beam="1">  1        2 0.29037526E+00 0.10905371E+04</pdfrwt>
<pdfrwt beam="2">  1       -1 0.24234530E-01 0.10905371E+04</pdfrwt>
<totfact> 0.12918438E+02</totfact>
</mgrwt>
</event>
<event>
12    7  0.1675873E-007  0.1222300E+04  0.7818608E-02  0.9093558E-01
          2   -1    0    0  501    0  0.00000000000E+00  0.00000000000E+00  0.11829180529E+04  0.11829180529E+04  0.00000000000E+00 0. -1.
         -1   -1    0    0    0  501 -0.00000000000E+00 -0.00000000000E+00 -0.31574847007E+03  0.31574847007E+03  0.00000000000E+00 0.  1.
         24    2    1    2    0    0  0.59523570947E+02 -0.16522486641E+03 -0.46153490529E+01  0.19246998173E+03  0.78619847616E+02 0.  0.
        254    2    1    2    0    0 -0.59523570947E+02  0.16522486641E+03  0.87178493193E+03  0.13061965413E+04  0.95671214321E+03 0.  0.
         23    2    4    4    0    0  0.29169617505E+03  0.34672793079E+03  0.75247669273E+03  0.88322217951E+03  0.92484208149E+02 0.  0.
         23    2    4    4    0    0 -0.35121974599E+03 -0.18150306437E+03  0.11930823920E+03  0.42297436178E+03  0.91510559107E+02 0.  0.
          4    1    3    3  502    0  0.41648209564E+02 -0.32276324647E+02  0.19483293672E+02  0.56177693304E+02  0.00000000000E+00 0. -1.
         -3    1    3    3    0  502  0.17875361384E+02 -0.13294854177E+03 -0.24098642725E+02  0.13629228842E+03  0.00000000000E+00 0.  1.
         13    1    5    5    0    0  0.80125498190E+02  0.14920213991E+03  0.33277632891E+03  0.37339183051E+03  0.00000000000E+00 0. -1.
        -13    1    5    5    0    0  0.21157067686E+03  0.19752579087E+03  0.41970036383E+03  0.50983034900E+03  0.00000000000E+00 0.  1.
          3    1    6    6  503    0 -0.11596693930E+03 -0.10991641757E+03  0.42086236476E+02  0.16523075126E+03  0.00000000000E+00 0. -1.
         -3    1    6    6    0  503 -0.23525280669E+03 -0.71586646806E+02  0.77222002726E+02  0.25774361052E+03  0.00000000000E+00 0.  1.
<mgrwt>
<rscale>  0 0.12223004E+04</rscale>
<asrwt>0</asrwt>
<pdfrwt beam="1">  1        2 0.18198739E+00 0.12223004E+04</pdfrwt>
<pdfrwt beam="2">  1       -1 0.48576688E-01 0.12223004E+04</pdfrwt>
<totfact> 0.92347925E+01</totfact>
</mgrwt>
</event>
<event>
12    7  0.1675873E-007  0.1420891E+04  0.7818608E-02  0.8938834E-01
         -1   -1    0    0    0  501 -0.00000000000E+00  0.00000000000E+00  0.28210539908E+03  0.28210539908E+03  0.00000000000E+00 0.  1.
          2   -1    0    0  501    0  0.00000000000E+00 -0.00000000000E+00 -0.17891636723E+04  0.17891636723E+04  0.00000000000E+00 0. -1.
         24    2    1    2    0    0  0.25036495979E+03  0.13999543822E+03 -0.90139579245E+03  0.94937047595E+03  0.80675833709E+02 0.  0.
        254    2    1    2    0    0 -0.25036495979E+03 -0.13999543822E+03 -0.60566248080E+03  0.11218985955E+04  0.89974889943E+03 0.  0.
         23    2    4    4    0    0  0.16590904971E+03  0.20820210318E+03  0.27263946320E+02  0.28314527738E+03  0.92487819669E+02 0.  0.
         23    2    4    4    0    0 -0.41627400951E+03 -0.34819754140E+03 -0.63292642712E+03  0.83875331807E+03  0.91573400115E+02 0.  0.
          4    1    3    3  502    0  0.41858055841E+02  0.51272095177E+02 -0.28662902006E+03  0.29417192206E+03  0.00000000000E+00 0. -1.
         -3    1    3    3    0  502  0.20850690395E+03  0.88723343042E+02 -0.61476677238E+03  0.65519855389E+03  0.00000000000E+00 0.  1.
         13    1    5    5    0    0  0.15756643335E+03  0.13533571035E+03  0.10870347897E+02  0.20799302843E+03  0.00000000000E+00 0. -1.
        -13    1    5    5    0    0  0.83426163639E+01  0.72866392832E+02  0.16393598423E+02  0.75152248945E+02  0.00000000000E+00 0.  1.
          4    1    6    6  503    0 -0.11824669916E+02 -0.38861789658E+02 -0.57323453728E+02  0.70256955964E+02  0.00000000000E+00 0.  1.
         -4    1    6    6    0  503 -0.40444933959E+03 -0.30933575174E+03 -0.57560297339E+03  0.76849636211E+03  0.00000000000E+00 0. -1.
<mgrwt>
<rscale>  0 0.14208909E+04</rscale>
<asrwt>0</asrwt>
<pdfrwt beam="1">  1        2 0.27525594E+00 0.14208909E+04</pdfrwt>
<pdfrwt beam="2">  1       -1 0.43400831E-01 0.14208909E+04</pdfrwt>
<totfact> 0.50752477E+01</totfact>
</mgrwt>
</event>
<event>
12    7  0.1675873E-007  0.1265413E+04  0.7818608E-02  0.9057452E-01
         -1   -1    0    0    0  501 -0.00000000000E+00  0.00000000000E+00  0.39615627477E+03  0.39615627477E+03  0.00000000000E+00 0.  1.
          2   -1    0    0  501    0  0.00000000000E+00 -0.00000000000E+00 -0.10105043541E+04  0.10105043541E+04  0.00000000000E+00 0. -1.
         24    2    1    2    0    0 -0.19121152043E+03 -0.51785097474E+01 -0.36171663704E+03  0.41760431935E+03  0.83461245632E+02 0.  0.
        254    2    1    2    0    0  0.19121152043E+03  0.51785097474E+01 -0.25263144231E+03  0.98905630954E+03  0.93692106140E+03 0.  0.
         23    2    4    4    0    0 -0.19976373398E+03  0.31511410144E+03  0.65591424701E+02  0.39041721732E+03  0.94450633915E+02 0.  0.
         23    2    4    4    0    0  0.39097525440E+03 -0.30993559169E+03 -0.31822286701E+03  0.59863909222E+03  0.90450257582E+02 0.  0.
          2    1    3    3  502    0 -0.13806382458E+03  0.46575601355E+01 -0.32245351491E+03  0.35079849173E+03  0.00000000000E+00 0. -1.
         -1    1    3    3    0  502 -0.53147695842E+02 -0.98360698829E+01 -0.39263122126E+02  0.66805827614E+02  0.00000000000E+00 0.  1.
         13    1    5    5    0    0 -0.18690507536E+03  0.27366062734E+03  0.86122129600E+02  0.34240424553E+03  0.00000000000E+00 0.  1.
        -13    1    5    5    0    0 -0.12858658621E+02  0.41453474096E+02 -0.20530704899E+02  0.48012971787E+02  0.00000000000E+00 0. -1.
          2    1    6    6  503    0  0.49108894004E+02 -0.67559880225E+01 -0.39687020085E+02  0.63501074067E+02  0.00000000000E+00 0. -1.
         -2    1    6    6    0  503  0.34186636040E+03 -0.30317960367E+03 -0.27853584693E+03  0.53513801816E+03  0.00000000000E+00 0.  1.
<mgrwt>
<rscale>  0 0.12654132E+04</rscale>
<asrwt>0</asrwt>
<pdfrwt beam="1">  1        2 0.15546221E+00 0.12654132E+04</pdfrwt>
<pdfrwt beam="2">  1       -1 0.60947120E-01 0.12654132E+04</pdfrwt>
<totfact> 0.75889496E+01</totfact>
</mgrwt>
</event>
<event>
12    7  0.1675873E-007  0.2948773E+04  0.7818608E-02  0.8258512E-01
         -1   -1    0    0    0  501 -0.00000000000E+00  0.00000000000E+00  0.11435478449E+04  0.11435478449E+04  0.00000000000E+00 0.  1.
          2   -1    0    0  501    0  0.00000000000E+00 -0.00000000000E+00 -0.19009398418E+04  0.19009398418E+04  0.00000000000E+00 0. -1.
         24    2    1    2    0    0 -0.84301606006E+03  0.53773332724E+03  0.57044454887E+03  0.11538930001E+04  0.78923149649E+02 0.  0.
        254    2    1    2    0    0  0.84301606006E+03 -0.53773332724E+03 -0.13278365457E+04  0.18905946866E+04  0.90075810740E+03 0.  0.
         23    2    4    4    0    0  0.64278876145E+03 -0.75278691402E+03 -0.78562732250E+03  0.12670436349E+04  0.91234605171E+02 0.  0.
         23    2    4    4    0    0  0.20022729861E+03  0.21505358679E+03 -0.54220922323E+03  0.62355105166E+03  0.92119791431E+02 0.  0.
          4    1    3    3  502    0 -0.49518154607E+03  0.35508237300E+03  0.32397957848E+03  0.69010942788E+03  0.00000000000E+00 0. -1.
         -1    1    3    3    0  502 -0.34783451399E+03  0.18265095424E+03  0.24646497039E+03  0.46378357219E+03  0.00000000000E+00 0.  1.
         13    1    5    5    0    0  0.60660976398E+03 -0.67047702722E+03 -0.71523366461E+03  0.11528547371E+04  0.00000000000E+00 0.  1.
        -13    1    5    5    0    0  0.36178997471E+02 -0.82309886806E+02 -0.70393657891E+02  0.11418889786E+03  0.00000000000E+00 0. -1.
          4    1    6    6  503    0  0.14148838220E+02  0.37711934139E+02 -0.14445221918E+03  0.14996273946E+03  0.00000000000E+00 0. -1.
         -4    1    6    6    0  503  0.18607846039E+03  0.17734165265E+03 -0.39775700405E+03  0.47358831220E+03  0.00000000000E+00 0.  1.
<mgrwt>
<rscale>  0 0.29487731E+04</rscale>
<asrwt>0</asrwt>
<pdfrwt beam="1">  1        2 0.29245228E+00 0.29487731E+04</pdfrwt>
<pdfrwt beam="2">  1       -1 0.17593044E+00 0.29487731E+04</pdfrwt>
<totfact> 0.16519366E+00</totfact>
</mgrwt>
</event>
<event>
12    7  0.1675873E-007  0.1408741E+04  0.7818608E-02  0.8947515E-01
          2   -1    0    0  501    0  0.00000000000E+00  0.00000000000E+00  0.57712803530E+03  0.57712803530E+03  0.00000000000E+00 0. -1.
         -1   -1    0    0    0  501 -0.00000000000E+00 -0.00000000000E+00 -0.85966695671E+03  0.85966695671E+03  0.00000000000E+00 0.  1.
         24    2    1    2    0    0  0.17740137784E+03  0.25644158307E+03 -0.34508361202E+03  0.47190947646E+03  0.79889425465E+02 0.  0.
        254    2    1    2    0    0 -0.17740137784E+03 -0.25644158307E+03  0.62544690598E+02  0.96488551555E+03  0.91096579815E+03 0.  0.
         23    2    4    4    0    0  0.24901380129E+03 -0.40618467580E+03  0.11812703650E+03  0.49956172523E+03  0.92811941439E+02 0.  0.
         23    2    4    4    0    0 -0.42641517914E+03  0.14974309272E+03 -0.55582345901E+02  0.46532379032E+03  0.95832843262E+02 0.  0.
          2    1    3    3  502    0  0.43060264035E+02  0.12026008524E+03 -0.10798703962E+03  0.16726588166E+03  0.00000000000E+00 0. -1.
         -1    1    3    3    0  502  0.13434111381E+03  0.13618149783E+03 -0.23709657240E+03  0.30464359480E+03  0.00000000000E+00 0.  1.
         13    1    5    5    0    0 -0.40810746836E+01  0.23855421710E+01  0.19165114644E+01  0.51008821017E+01  0.00000000000E+00 0.  1.
        -13    1    5    5    0    0  0.25309487598E+03 -0.40857021797E+03  0.11621052503E+03  0.49446084313E+03  0.00000000000E+00 0. -1.
          1    1    6    6  503    0 -0.42463895620E+03  0.13552670441E+03 -0.46047177709E+02  0.44811390662E+03  0.00000000000E+00 0. -1.
         -1    1    6    6    0  503 -0.17762229386E+01  0.14216388318E+02 -0.95351681919E+01  0.17209883706E+02  0.00000000000E+00 0.  1.
<mgrwt>
<rscale>  0 0.14087411E+04</rscale>
<asrwt>0</asrwt>
<pdfrwt beam="1">  1        2 0.88788929E-01 0.14087411E+04</pdfrwt>
<pdfrwt beam="2">  1       -1 0.13225645E+00 0.14087411E+04</pdfrwt>
<totfact> 0.28058653E+01</totfact>
</mgrwt>
</event>
<event>
12    7  0.1675873E-007  0.1364282E+04  0.7818608E-02  0.8980087E-01
          2   -1    0    0  501    0  0.00000000000E+00  0.00000000000E+00  0.11352785632E+04  0.11352785632E+04  0.00000000000E+00 0. -1.
         -1   -1    0    0    0  501 -0.00000000000E+00 -0.00000000000E+00 -0.40986989410E+03  0.40986989410E+03  0.00000000000E+00 0.  1.
         24    2    1    2    0    0  0.65783878398E+02  0.68808472927E+02  0.66129846673E+03  0.67283441101E+03  0.79550976968E+02 0.  0.
        254    2    1    2    0    0 -0.65783878398E+02 -0.68808472927E+02  0.64110202359E+02  0.87231404627E+03  0.86473091345E+03 0.  0.
         23    2    4    4    0    0  0.26423286617E+03  0.11212286018E+03  0.29525733138E+03  0.42148860981E+03  0.89917813198E+02 0.  0.
         23    2    4    4    0    0 -0.33001674457E+03 -0.18093133310E+03 -0.23114712902E+03  0.45082543646E+03  0.90373557581E+02 0.  0.
          4    1    3    3  502    0  0.72695281075E+02  0.73139395400E+02  0.65337662574E+03  0.66146427728E+03  0.00000000000E+00 0. -1.
         -3    1    3    3    0  502 -0.69114026768E+01 -0.43309224732E+01  0.79218409876E+01  0.11370133731E+02  0.00000000000E+00 0.  1.
         13    1    5    5    0    0  0.63293177683E+02  0.66275789348E+01  0.24490690432E+02  0.68189039160E+02  0.00000000000E+00 0. -1.
        -13    1    5    5    0    0  0.20093968848E+03  0.10549528124E+03  0.27076664095E+03  0.35329957065E+03  0.00000000000E+00 0.  1.
          1    1    6    6  503    0 -0.33057649113E+02  0.87790254722E+01 -0.27012643896E+02  0.43583969339E+02  0.00000000000E+00 0. -1.
         -1    1    6    6    0  503 -0.29695909545E+03 -0.18971035858E+03 -0.20413448513E+03  0.40724146712E+03  0.00000000000E+00 0.  1.
<mgrwt>
<rscale>  0 0.13642822E+04</rscale>
<asrwt>0</asrwt>
<pdfrwt beam="1">  1        2 0.17465824E+00 0.13642822E+04</pdfrwt>
<pdfrwt beam="2">  1       -1 0.63056907E-01 0.13642822E+04</pdfrwt>
<totfact> 0.58832480E+01</totfact>
</mgrwt>
</event>
<event>
12    7  0.1675873E-007  0.1454508E+04  0.7818608E-02  0.8915281E-01
         -1   -1    0    0    0  501 -0.00000000000E+00  0.00000000000E+00  0.42716417254E+03  0.42716417254E+03  0.00000000000E+00 0.  1.
          2   -1    0    0  501    0  0.00000000000E+00 -0.00000000000E+00 -0.12381621878E+04  0.12381621878E+04  0.00000000000E+00 0. -1.
         24    2    1    2    0    0  0.12115811782E+03  0.44470532546E+03 -0.25375216163E+03  0.53183412458E+03  0.77558110720E+02 0.  0.
        254    2    1    2    0    0 -0.12115811782E+03 -0.44470532546E+03 -0.55724585363E+03  0.11334922358E+04  0.87283422889E+03 0.  0.
         23    2    4    4    0    0 -0.33176314569E+03 -0.60020942950E+03 -0.49243911847E+03  0.84889679682E+03  0.88381797649E+02 0.  0.
         23    2    4    4    0    0  0.21060502787E+03  0.15550410404E+03 -0.64806735163E+02  0.28459543893E+03  0.90877097234E+02 0.  0.
          4    1    3    3  502    0  0.20013029253E+02  0.17124093137E+03 -0.12580355982E+03  0.21342566289E+03  0.00000000000E+00 0. -1.
         -3    1    3    3    0  502  0.10114508857E+03  0.27346439408E+03 -0.12794860181E+03  0.31840846169E+03  0.00000000000E+00 0.  1.
         13    1    5    5    0    0 -0.20457372882E+03 -0.40680611075E+03 -0.37186225255E+03  0.58789723348E+03  0.00000000000E+00 0.  1.
        -13    1    5    5    0    0 -0.12718941687E+03 -0.19340331875E+03 -0.12057686592E+03  0.26099956334E+03  0.00000000000E+00 0. -1.
          3    1    6    6  503    0  0.16640775902E+03  0.70838889327E+02 -0.32381541117E+02  0.18373419581E+03  0.00000000000E+00 0. -1.
         -3    1    6    6    0  503  0.44197268848E+02  0.84665214713E+02 -0.32425194046E+02  0.10086124313E+03  0.00000000000E+00 0.  1.
<mgrwt>
<rscale>  0 0.14545082E+04</rscale>
<asrwt>0</asrwt>
<pdfrwt beam="1">  1        2 0.19048649E+00 0.14545082E+04</pdfrwt>
<pdfrwt beam="2">  1       -1 0.65717564E-01 0.14545082E+04</pdfrwt>
<totfact> 0.46631179E+01</totfact>
</mgrwt>
</event>
<event>
12    7  0.1675873E-007  0.2622853E+04  0.7818608E-02  0.8360480E-01
          2   -1    0    0  501    0  0.00000000000E+00  0.00000000000E+00  0.17963314485E+04  0.17963314485E+04  0.00000000000E+00 0. -1.
         -1   -1    0    0    0  501 -0.00000000000E+00 -0.00000000000E+00 -0.95741752209E+03  0.95741752209E+03  0.00000000000E+00 0.  1.
         24    2    1    2    0    0  0.79270550369E+02  0.30585037583E+03  0.15368345762E+04  0.15709975857E+04  0.79653168084E+02 0.  0.
        254    2    1    2    0    0 -0.79270550369E+02 -0.30585037583E+03 -0.69792064981E+03  0.11827513849E+04  0.90109895816E+03 0.  0.
         23    2    4    4    0    0 -0.24790482495E+03 -0.46937647633E+03 -0.75268838669E+03  0.92558285992E+03  0.91611922569E+02 0.  0.
         23    2    4    4    0    0  0.16863427458E+03  0.16352610050E+03  0.54767736884E+02  0.25716852493E+03  0.89206732402E+02 0.  0.
          2    1    3    3  502    0  0.77089716441E+02  0.30612660561E+03  0.14425676020E+04  0.14767049839E+04  0.00000000000E+00 0. -1.
         -1    1    3    3    0  502  0.21808339281E+01 -0.27622977645E+00  0.94266974155E+02  0.94292601808E+02  0.00000000000E+00 0.  1.
         13    1    5    5    0    0 -0.17848071036E+03 -0.24850236027E+03 -0.39783911201E+03  0.50188120713E+03  0.00000000000E+00 0.  1.
        -13    1    5    5    0    0 -0.69424114582E+02 -0.22087411606E+03 -0.35484927468E+03  0.42370165279E+03  0.00000000000E+00 0. -1.
          1    1    6    6  503    0  0.28782560593E+02  0.79742279987E+02  0.39189994801E+02  0.93397658987E+02  0.00000000000E+00 0. -1.
         -1    1    6    6    0  503  0.13985171398E+03  0.83783820512E+02  0.15577742083E+02  0.16377086594E+03  0.00000000000E+00 0.  1.
<mgrwt>
<rscale>  0 0.26228528E+04</rscale>
<asrwt>0</asrwt>
<pdfrwt beam="1">  1        2 0.27635868E+00 0.26228528E+04</pdfrwt>
<pdfrwt beam="2">  1       -1 0.14729500E+00 0.26228528E+04</pdfrwt>
<totfact> 0.31920762E+00</totfact>
</mgrwt>
</event>
<event>
12    7  0.1675873E-007  0.1723437E+04  0.7818608E-02  0.8748109E-01
          2   -1    0    0  501    0  0.00000000000E+00  0.00000000000E+00  0.24899558072E+04  0.24899558072E+04  0.00000000000E+00 0. -1.
         -1   -1    0    0    0  501 -0.00000000000E+00 -0.00000000000E+00 -0.29822153036E+03  0.29822153036E+03  0.00000000000E+00 0.  1.
         24    2    1    2    0    0 -0.16947087509E+03 -0.51412094241E+03  0.29783882981E+03  0.62223556982E+03  0.73677777355E+02 0.  0.
        254    2    1    2    0    0  0.16947087509E+03  0.51412094241E+03  0.18938954470E+04  0.21659417677E+04  0.90079023977E+03 0.  0.
         23    2    4    4    0    0 -0.15045004613E+03  0.38477618739E+03  0.26708256625E+03  0.50032216565E+03  0.91111149079E+02 0.  0.
         23    2    4    4    0    0  0.31992092122E+03  0.12934475501E+03  0.16268128808E+04  0.16656196021E+04  0.93215064917E+02 0.  0.
          4    1    3    3  502    0 -0.53455962946E+02 -0.77010746312E+02  0.43052988397E+02  0.10315888150E+03  0.00000000000E+00 0. -1.
         -3    1    3    3    0  502 -0.11601491214E+03 -0.43711019610E+03  0.25478584142E+03  0.51907668832E+03  0.00000000000E+00 0.  1.
         13    1    5    5    0    0 -0.16193935203E+03  0.37057068576E+03  0.25970878197E+03  0.48062005608E+03  0.00000000000E+00 0. -1.
        -13    1    5    5    0    0  0.11489305904E+02  0.14205501638E+02  0.73737842745E+01  0.19702109569E+02  0.00000000000E+00 0.  1.
          4    1    6    6  503    0  0.24380290412E+03  0.99004492887E+02  0.13986690919E+04  0.14232065817E+04  0.00000000000E+00 0. -1.
         -4    1    6    6    0  503  0.76118017100E+02  0.30340262126E+02  0.22814378886E+03  0.24241302033E+03  0.00000000000E+00 0.  1.
<mgrwt>
<rscale>  0 0.17234366E+04</rscale>
<asrwt>0</asrwt>
<pdfrwt beam="1">  1        2 0.38307011E+00 0.17234366E+04</pdfrwt>
<pdfrwt beam="2">  1       -1 0.45880237E-01 0.17234366E+04</pdfrwt>
<totfact> 0.18047997E+01</totfact>
</mgrwt>
</event>
<event>
12    7  0.1675873E-007  0.2101435E+04  0.7818608E-02  0.8560612E-01
          2   -1    0    0  501    0  0.00000000000E+00  0.00000000000E+00  0.17519747258E+04  0.17519747258E+04  0.00000000000E+00 0. -1.
         -1   -1    0    0    0  501 -0.00000000000E+00 -0.00000000000E+00 -0.63015007137E+03  0.63015007137E+03  0.00000000000E+00 0.  1.
         24    2    1    2    0    0  0.33691906564E+03 -0.30680309832E+03 -0.35672342514E+03  0.58452046465E+03  0.82279849434E+02 0.  0.
        254    2    1    2    0    0 -0.33691906564E+03  0.30680309832E+03  0.14785480795E+04  0.17976043325E+04  0.91522364191E+03 0.  0.
         23    2    4    4    0    0  0.29757719865E+03  0.13482464720E+02  0.36727338574E+03  0.48175967919E+03  0.92025445467E+02 0.  0.
         23    2    4    4    0    0 -0.63449626429E+03  0.29332063360E+03  0.11112746938E+04  0.13158446533E+04  0.88843699870E+02 0.  0.
          2    1    3    3  502    0  0.28051726867E+00 -0.21815030492E+02 -0.13671844825E+02  0.25746719912E+02  0.00000000000E+00 0. -1.
         -1    1    3    3    0  502  0.33663854837E+03 -0.28498806783E+03 -0.34305158031E+03  0.55877374474E+03  0.00000000000E+00 0.  1.
         13    1    5    5    0    0  0.17506428373E+03 -0.17573924922E+02  0.27002375988E+03  0.32228741393E+03  0.00000000000E+00 0.  1.
        -13    1    5    5    0    0  0.12251291492E+03  0.31056389642E+02  0.97249625853E+02  0.15947226526E+03  0.00000000000E+00 0. -1.
          2    1    6    6  503    0 -0.63244428998E+03  0.28365452387E+03  0.10822979654E+04  0.12852293782E+04  0.00000000000E+00 0.  1.
         -2    1    6    6    0  503 -0.20519743121E+01  0.96661097250E+01  0.28976728427E+02  0.30615275046E+02  0.00000000000E+00 0. -1.
<mgrwt>
<rscale>  0 0.21014347E+04</rscale>
<asrwt>0</asrwt>
<pdfrwt beam="1">  1        2 0.26953457E+00 0.21014347E+04</pdfrwt>
<pdfrwt beam="2">  1       -1 0.96946165E-01 0.21014347E+04</pdfrwt>
<totfact> 0.98474667E+00</totfact>
</mgrwt>
</event>
<event>
12    7  0.1675873E-007  0.1331033E+04  0.7818608E-02  0.9005311E-01
         -3   -1    0    0    0  501 -0.00000000000E+00  0.00000000000E+00  0.13669953319E+03  0.13669953319E+03  0.00000000000E+00 0.  1.
          2   -1    0    0  501    0  0.00000000000E+00 -0.00000000000E+00 -0.32400425021E+04  0.32400425021E+04  0.00000000000E+00 0. -1.
         24    2    1    2    0    0  0.33895776717E+03 -0.11786095786E+03 -0.75268010189E+03  0.83818323806E+03  0.85089549723E+02 0.  0.
        254    2    1    2    0    0 -0.33895776717E+03  0.11786095786E+03 -0.23506628670E+04  0.25385587972E+04  0.88875265362E+03 0.  0.
         23    2    4    4    0    0 -0.10590764143E+03 -0.12762862367E+03 -0.30432108217E+02  0.19196195656E+03  0.91748490244E+02 0.  0.
         23    2    4    4    0    0 -0.23305012574E+03  0.24548958153E+03 -0.23202307588E+04  0.23465968406E+04  0.92024251330E+02 0.  0.
          2    1    3    3  502    0  0.13562692547E+03 -0.24128085185E+02 -0.21023332461E+03  0.25134613223E+03  0.00000000000E+00 0. -1.
         -1    1    3    3    0  502  0.20333084170E+03 -0.93732872674E+02 -0.54244677728E+03  0.58683710584E+03  0.00000000000E+00 0.  1.
         13    1    5    5    0    0 -0.14217069450E+02 -0.16865828451E+02  0.28947025172E+02  0.36393838756E+02  0.00000000000E+00 0.  1.
        -13    1    5    5    0    0 -0.91690571979E+02 -0.11076279522E+03 -0.59379133389E+02  0.15556811780E+03  0.00000000000E+00 0. -1.
          1    1    6    6  503    0 -0.84443971999E+02  0.15576953203E+03 -0.11768274739E+04  0.11900915238E+04  0.00000000000E+00 0. -1.
         -1    1    6    6    0  503 -0.14860615374E+03  0.89720049500E+02 -0.11434032848E+04  0.11565053169E+04  0.00000000000E+00 0.  1.
<mgrwt>
<rscale>  0 0.13310331E+04</rscale>
<asrwt>0</asrwt>
<pdfrwt beam="1">  1        2 0.49846804E+00 0.13310331E+04</pdfrwt>
<pdfrwt beam="2">  1       -3 0.21030699E-01 0.13310331E+04</pdfrwt>
<totfact> 0.16591474E+01</totfact>
</mgrwt>
</event>
<event>
12    7  0.1675873E-007  0.2229010E+04  0.7818608E-02  0.8506450E-01
         -1   -1    0    0    0  501 -0.00000000000E+00  0.00000000000E+00  0.99064969376E+03  0.99064969376E+03  0.00000000000E+00 0.  1.
          2   -1    0    0  501    0  0.00000000000E+00 -0.00000000000E+00 -0.12538451966E+04  0.12538451966E+04  0.00000000000E+00 0. -1.
         24    2    1    2    0    0  0.73245071172E+03  0.43756642118E+03  0.26231157051E+03  0.89630519308E+03  0.81284814578E+02 0.  0.
        254    2    1    2    0    0 -0.73245071172E+03 -0.43756642118E+03 -0.52550707330E+03  0.13481896972E+04  0.90194753594E+03 0.  0.
         23    2    4    4    0    0  0.16827514429E+03 -0.11241763887E+03  0.50280542519E+02  0.22703284296E+03  0.89786018464E+02 0.  0.
         23    2    4    4    0    0 -0.90072585601E+03 -0.32514878231E+03 -0.57578761582E+03  0.11211568543E+04  0.91828726631E+02 0.  0.
          2    1    3    3  502    0  0.47820631454E+02  0.35222701243E+02  0.40223822521E+02  0.71731494992E+02  0.00000000000E+00 0. -1.
         -1    1    3    3    0  502  0.68463008027E+03  0.40234371993E+03  0.22208774799E+03  0.82457369809E+03  0.00000000000E+00 0.  1.
         13    1    5    5    0    0  0.11949017526E+02 -0.27965226278E+02 -0.19517519150E+02  0.36135390608E+02  0.00000000000E+00 0. -1.
        -13    1    5    5    0    0  0.15632612676E+03 -0.84452412588E+02  0.69798061669E+02  0.19089745235E+03  0.00000000000E+00 0.  1.
          4    1    6    6  503    0 -0.34488836579E+03 -0.99985103538E+02 -0.26041456360E+03  0.44357722070E+03  0.00000000000E+00 0. -1.
         -4    1    6    6    0  503 -0.55583749022E+03 -0.22516367877E+03 -0.31537305222E+03  0.67757963357E+03  0.00000000000E+00 0.  1.
<mgrwt>
<rscale>  0 0.22290100E+04</rscale>
<asrwt>0</asrwt>
<pdfrwt beam="1">  1        2 0.19289926E+00 0.22290100E+04</pdfrwt>
<pdfrwt beam="2">  1       -1 0.15240765E+00 0.22290100E+04</pdfrwt>
<totfact> 0.61116650E+00</totfact>
</mgrwt>
</event>
<event>
12    7  0.1675873E-007  0.1288614E+04  0.7818608E-02  0.9038643E-01
          2   -1    0    0  501    0  0.00000000000E+00  0.00000000000E+00  0.83891432911E+03  0.83891432911E+03  0.00000000000E+00 0. -1.
         -1   -1    0    0    0  501 -0.00000000000E+00 -0.00000000000E+00 -0.49484366585E+03  0.49484366585E+03  0.00000000000E+00 0.  1.
         24    2    1    2    0    0  0.25878692520E+02 -0.31464030626E+03  0.39426736185E+02  0.32836633777E+03  0.81251185832E+02 0.  0.
        254    2    1    2    0    0 -0.25878692520E+02  0.31464030626E+03  0.30464392708E+03  0.10053916572E+04  0.90461938570E+03 0.  0.
         23    2    4    4    0    0 -0.19715702350E+03 -0.25649382798E+03  0.17765609545E+02  0.33750609701E+03  0.94523927818E+02 0.  0.
         23    2    4    4    0    0  0.17127833098E+03  0.57113413424E+03  0.28687831754E+03  0.66788556018E+03  0.90782633037E+02 0.  0.
          4    1    3    3  502    0  0.50156404683E+02 -0.26474618954E+03  0.42535998587E+02  0.27279208379E+03  0.00000000000E+00 0. -1.
         -3    1    3    3    0  502 -0.24277712163E+02 -0.49894116728E+02 -0.31092624024E+01  0.55574253973E+02  0.00000000000E+00 0.  1.
         13    1    5    5    0    0 -0.15128941288E+03 -0.15244081795E+03  0.47516297316E+02  0.21996474248E+03  0.00000000000E+00 0. -1.
        -13    1    5    5    0    0 -0.45867610620E+02 -0.10405301004E+03 -0.29750687771E+02  0.11754135453E+03  0.00000000000E+00 0.  1.
          3    1    6    6  503    0  0.17580053161E+03  0.52771355243E+03  0.28293885433E+03  0.62405273465E+03  0.00000000000E+00 0. -1.
         -3    1    6    6    0  503 -0.45222006295E+01  0.43420581819E+02  0.39394632070E+01  0.43832825535E+02  0.00000000000E+00 0.  1.
<mgrwt>
<rscale>  0 0.12886139E+04</rscale>
<asrwt>0</asrwt>
<pdfrwt beam="1">  1        2 0.12906374E+00 0.12886139E+04</pdfrwt>
<pdfrwt beam="2">  1       -1 0.76129795E-01 0.12886139E+04</pdfrwt>
<totfact> 0.62711900E+01</totfact>
</mgrwt>
</event>
<event>
12    7  0.1675873E-007  0.1605062E+04  0.7818608E-02  0.8817444E-01
         -1   -1    0    0    0  501 -0.00000000000E+00  0.00000000000E+00  0.18736207701E+03  0.18736207701E+03  0.00000000000E+00 0.  1.
          2   -1    0    0  501    0  0.00000000000E+00 -0.00000000000E+00 -0.34374959130E+04  0.34374959130E+04  0.00000000000E+00 0. -1.
         24    2    1    2    0    0  0.16609633306E+03 -0.50453034415E+03 -0.84358073858E+03  0.10001165425E+04  0.80410049526E+02 0.  0.
        254    2    1    2    0    0 -0.16609633306E+03  0.50453034415E+03 -0.24065530974E+04  0.26247414475E+04  0.90312291275E+03 0.  0.
         23    2    4    4    0    0 -0.10655872800E+03  0.66319226114E+03 -0.10185350611E+04  0.12233988285E+04  0.90068225100E+02 0.  0.
         23    2    4    4    0    0 -0.59537605054E+02 -0.15866191699E+03 -0.13880180363E+04  0.14013426190E+04  0.91917007801E+02 0.  0.
          2    1    3    3  502    0  0.88702510735E+02 -0.33014004641E+03 -0.47686375494E+03  0.58673641989E+03  0.00000000000E+00 0. -1.
         -1    1    3    3    0  502  0.77393822325E+02 -0.17439029774E+03 -0.36671698363E+03  0.41338012260E+03  0.00000000000E+00 0.  1.
         13    1    5    5    0    0 -0.11013307415E+03  0.65700716875E+03 -0.10175007791E+04  0.12161807223E+04  0.00000000000E+00 0. -1.
        -13    1    5    5    0    0  0.35743461435E+01  0.61850923946E+01 -0.10342820078E+01  0.72181062305E+01  0.00000000000E+00 0.  1.
          4    1    6    6  503    0 -0.30450415309E+01 -0.56444513940E+02 -0.20750084165E+03  0.21506244376E+03  0.00000000000E+00 0.  1.
         -4    1    6    6    0  503 -0.56492563524E+02 -0.10221740305E+03 -0.11805171947E+04  0.11862801752E+04  0.00000000000E+00 0. -1.
<mgrwt>
<rscale>  0 0.16050625E+04</rscale>
<asrwt>0</asrwt>
<pdfrwt beam="1">  1        2 0.52884553E+00 0.16050625E+04</pdfrwt>
<pdfrwt beam="2">  1       -1 0.28824935E-01 0.16050625E+04</pdfrwt>
<totfact> 0.10850999E+01</totfact>
</mgrwt>
</event>
<event>
12    7  0.1675873E-007  0.1770746E+04  0.7818608E-02  0.8722013E-01
         -1   -1    0    0    0  501 -0.00000000000E+00  0.00000000000E+00  0.11006630803E+04  0.11006630803E+04  0.00000000000E+00 0.  1.
          2   -1    0    0  501    0  0.00000000000E+00 -0.00000000000E+00 -0.71219410628E+03  0.71219410628E+03  0.00000000000E+00 0. -1.
         24    2    1    2    0    0 -0.35209895497E+03  0.47551978795E+03 -0.14204883447E+03  0.61385363694E+03  0.80905336001E+02 0.  0.
        254    2    1    2    0    0  0.35209895497E+03 -0.47551978795E+03  0.53051780853E+03  0.11990035497E+04  0.89781268878E+03 0.  0.
         23    2    4    4    0    0  0.77894675662E+02  0.25114837172E+03  0.54437572301E+02  0.28359386630E+03  0.91208259564E+02 0.  0.
         23    2    4    4    0    0  0.27420427931E+03 -0.72666815966E+03  0.47608023623E+03  0.91540968337E+03  0.89932730526E+02 0.  0.
          4    1    3    3  502    0  0.29036634556E+01  0.47395851748E+01  0.34464417807E+01  0.65400986262E+01  0.00000000000E+00 0. -1.
         -3    1    3    3    0  502 -0.35500261843E+03  0.47078020277E+03 -0.14549527625E+03  0.60731353832E+03  0.00000000000E+00 0.  1.
         13    1    5    5    0    0  0.79239762570E+00  0.15480425187E+03  0.26218236322E+02  0.15701076462E+03  0.00000000000E+00 0.  1.
        -13    1    5    5    0    0  0.77102278037E+02  0.96344119842E+02  0.28219335979E+02  0.12658310168E+03  0.00000000000E+00 0. -1.
          2    1    6    6  503    0  0.16356994463E+02 -0.45902858399E+02  0.65658262430E+01  0.49170456082E+02  0.00000000000E+00 0. -1.
         -2    1    6    6    0  503  0.25784728485E+03 -0.68076530126E+03  0.46951440999E+03  0.86623922729E+03  0.00000000000E+00 0.  1.
<mgrwt>
<rscale>  0 0.17707465E+04</rscale>
<asrwt>0</asrwt>
<pdfrwt beam="1">  1        2 0.10956832E+00 0.17707465E+04</pdfrwt>
<pdfrwt beam="2">  1       -1 0.16933278E+00 0.17707465E+04</pdfrwt>
<totfact> 0.10777467E+01</totfact>
</mgrwt>
</event>
<event>
12    7  0.1675873E-007  0.1935878E+04  0.7818608E-02  0.8637201E-01
         -1   -1    0    0    0  501 -0.00000000000E+00  0.00000000000E+00  0.27322385871E+03  0.27322385871E+03  0.00000000000E+00 0.  1.
          2   -1    0    0  501    0  0.00000000000E+00 -0.00000000000E+00 -0.34290786296E+04  0.34290786296E+04  0.00000000000E+00 0. -1.
         24    2    1    2    0    0  0.62083111306E+02  0.25104017866E+02  0.20092789194E+03  0.22741290343E+03  0.82825638925E+02 0.  0.
        254    2    1    2    0    0 -0.62083111306E+02 -0.25104017866E+02 -0.33567826629E+04  0.34748895849E+04  0.89575848155E+03 0.  0.
         23    2    4    4    0    0  0.87394064329E+02 -0.43588898980E+03 -0.16008037276E+04  0.16635766922E+04  0.85310624719E+02 0.  0.
         23    2    4    4    0    0 -0.14947717564E+03  0.41078497194E+03 -0.17559789353E+04  0.18113128927E+04  0.79401857475E+02 0.  0.
          2    1    3    3  502    0  0.19442038856E+02  0.14800863985E+02  0.29256620575E+01  0.24609306127E+02  0.00000000000E+00 0. -1.
         -1    1    3    3    0  502  0.42641072451E+02  0.10303153881E+02  0.19800222988E+03  0.20280359730E+03  0.00000000000E+00 0.  1.
         13    1    5    5    0    0  0.81066008862E+02 -0.23914946983E+03 -0.79835548079E+03  0.83733842646E+03  0.00000000000E+00 0.  1.
        -13    1    5    5    0    0  0.63280554671E+01 -0.19673951997E+03 -0.80244824676E+03  0.82623826572E+03  0.00000000000E+00 0. -1.
          3    1    6    6  503    0 -0.13295285883E+03  0.40505114460E+03 -0.16684533960E+04  0.17220568013E+04  0.00000000000E+00 0. -1.
         -3    1    6    6    0  503 -0.16524316806E+02  0.57338273375E+01 -0.87525539315E+02  0.89256091412E+02  0.00000000000E+00 0.  1.
<mgrwt>
<rscale>  0 0.19358782E+04</rscale>
<asrwt>0</asrwt>
<pdfrwt beam="1">  1        2 0.52755053E+00 0.19358782E+04</pdfrwt>
<pdfrwt beam="2">  1       -1 0.42034442E-01 0.19358782E+04</pdfrwt>
<totfact> 0.54125262E+00</totfact>
</mgrwt>
</event>
<event>
12    7  0.1675873E-007  0.1312753E+04  0.7818608E-02  0.9019513E-01
          2   -1    0    0  501    0  0.00000000000E+00  0.00000000000E+00  0.21375065555E+04  0.21375065555E+04  0.00000000000E+00 0. -1.
         -1   -1    0    0    0  501 -0.00000000000E+00 -0.00000000000E+00 -0.20155721332E+03  0.20155721332E+03  0.00000000000E+00 0.  1.
         24    2    1    2    0    0 -0.22268474696E+03 -0.21701825061E+03  0.77827349110E+03  0.84185956143E+03  0.79576859704E+02 0.  0.
        254    2    1    2    0    0  0.22268474696E+03  0.21701825061E+03  0.11576758510E+04  0.14972042074E+04  0.89706278755E+03 0.  0.
         23    2    4    4    0    0  0.40498152464E+03  0.22192957040E+02  0.13517064000E+03  0.43727795860E+03  0.91860483978E+02 0.  0.
         23    2    4    4    0    0 -0.18229677769E+03  0.19482529357E+03  0.10225052110E+04  0.10599262488E+04  0.82083713489E+02 0.  0.
          4    1    3    3  502    0 -0.17785089721E+03 -0.14170282494E+03  0.62785766811E+03  0.66776933415E+03  0.00000000000E+00 0. -1.
         -3    1    3    3    0  502 -0.44833849744E+02 -0.75315425674E+02  0.15041582299E+03  0.17409022727E+03  0.00000000000E+00 0.  1.
         13    1    5    5    0    0  0.87867320723E+02  0.40287777706E+02  0.15738126006E+02  0.97935997946E+02  0.00000000000E+00 0. -1.
        -13    1    5    5    0    0  0.31711420392E+03 -0.18094820666E+02  0.11943251399E+03  0.33934196066E+03  0.00000000000E+00 0.  1.
          3    1    6    6  503    0 -0.13274339211E+03  0.14568256604E+03  0.87246670546E+03  0.89445087642E+03  0.00000000000E+00 0. -1.
         -3    1    6    6    0  503 -0.49553385573E+02  0.49142727529E+02  0.15003850558E+03  0.16547537233E+03  0.00000000000E+00 0.  1.
<mgrwt>
<rscale>  0 0.13127526E+04</rscale>
<asrwt>0</asrwt>
<pdfrwt beam="1">  1        2 0.32884715E+00 0.13127526E+04</pdfrwt>
<pdfrwt beam="2">  1       -1 0.31008804E-01 0.13127526E+04</pdfrwt>
<totfact> 0.60215227E+01</totfact>
</mgrwt>
</event>
<event>
12    7  0.1675873E-007  0.4561303E+04  0.7818608E-02  0.7899991E-01
          2   -1    0    0  501    0  0.00000000000E+00  0.00000000000E+00  0.43060491735E+04  0.43060491735E+04  0.00000000000E+00 0. -1.
         -1   -1    0    0    0  501 -0.00000000000E+00 -0.00000000000E+00 -0.12079221558E+04  0.12079221558E+04  0.00000000000E+00 0.  1.
         24    2    1    2    0    0 -0.52924721870E+03 -0.15659324649E+04  0.32286000870E+04  0.36280614986E+04  0.82003739117E+02 0.  0.
        254    2    1    2    0    0  0.52924721870E+03  0.15659324649E+04 -0.13047306920E+03  0.18859098307E+04  0.89854636199E+03 0.  0.
         23    2    4    4    0    0  0.61827907970E+03  0.10513859251E+04 -0.40594566102E+03  0.12888134161E+04  0.92556781825E+02 0.  0.
         23    2    4    4    0    0 -0.89031860997E+02  0.51454653978E+03  0.27547259182E+03  0.59709641462E+03  0.89186129148E+02 0.  0.
          4    1    3    3  502    0 -0.52314483625E+03 -0.15330323828E+04  0.31367702656E+04  0.35303252691E+04  0.00000000000E+00 0. -1.
         -3    1    3    3    0  502 -0.61023824531E+01 -0.32900082048E+02  0.91829821396E+02  0.97736229557E+02  0.00000000000E+00 0.  1.
         13    1    5    5    0    0  0.14629395538E+02  0.79253279353E+01  0.51079513125E+00  0.16646049032E+02  0.00000000000E+00 0. -1.
        -13    1    5    5    0    0  0.60364968416E+03  0.10434605972E+04 -0.40645645616E+03  0.12721673670E+04  0.00000000000E+00 0.  1.
          1    1    6    6  503    0  0.10306716974E+02  0.18355802742E+03  0.85645362320E+02  0.20281742019E+03  0.00000000000E+00 0. -1.
         -1    1    6    6    0  503 -0.99338577971E+02  0.33098851236E+03  0.18982722950E+03  0.39427899443E+03  0.00000000000E+00 0.  1.
<mgrwt>
<rscale>  0 0.45613034E+04</rscale>
<asrwt>0</asrwt>
<pdfrwt beam="1">  1        2 0.66246910E+00 0.45613034E+04</pdfrwt>
<pdfrwt beam="2">  1       -1 0.18583418E+00 0.45613034E+04</pdfrwt>
<totfact> 0.30077270E-02</totfact>
</mgrwt>
</event>
<event>
12    7  0.1675873E-007  0.1142132E+04  0.7818608E-02  0.9165073E-01
         -1   -1    0    0    0  501 -0.00000000000E+00  0.00000000000E+00  0.49131715357E+03  0.49131715357E+03  0.00000000000E+00 0.  1.
          2   -1    0    0  501    0  0.00000000000E+00 -0.00000000000E+00 -0.66375962587E+03  0.66375962587E+03  0.00000000000E+00 0. -1.
         24    2    1    2    0    0  0.88026910919E+02  0.27037054698E+02  0.15211601401E+03  0.19498009402E+03  0.79988849053E+02 0.  0.
        254    2    1    2    0    0 -0.88026910919E+02 -0.27037054698E+02 -0.32455848630E+03  0.96009668543E+03  0.89887023255E+03 0.  0.
         23    2    4    4    0    0  0.13565678430E+03  0.27658859361E+03 -0.44957583022E+03  0.55313666226E+03  0.94539551389E+02 0.  0.
         23    2    4    4    0    0 -0.22368369521E+03 -0.30362564831E+03  0.12501734392E+03  0.40696002317E+03  0.88114665977E+02 0.  0.
          2    1    3    3  502    0  0.20971021795E+02 -0.27328008974E+02  0.31667638916E+02  0.46791486235E+02  0.00000000000E+00 0. -1.
         -1    1    3    3    0  502  0.67055889124E+02  0.54365063672E+02  0.12044837509E+03  0.14818860778E+03  0.00000000000E+00 0.  1.
         13    1    5    5    0    0  0.45717336825E+02  0.42301213428E+02 -0.44228422421E+02  0.76391235712E+02  0.00000000000E+00 0.  1.
        -13    1    5    5    0    0  0.89939447470E+02  0.23428738019E+03 -0.40534740780E+03  0.47674542655E+03  0.00000000000E+00 0. -1.
          2    1    6    6  503    0 -0.11265230878E+03 -0.11322764662E+03  0.91340115769E+02  0.18399472650E+03  0.00000000000E+00 0. -1.
         -2    1    6    6    0  503 -0.11103138644E+03 -0.19039800169E+03  0.33677228148E+02  0.22296529666E+03  0.00000000000E+00 0.  1.
<mgrwt>
<rscale>  0 0.11421322E+04</rscale>
<asrwt>0</asrwt>
<pdfrwt beam="1">  1        2 0.10211687E+00 0.11421322E+04</pdfrwt>
<pdfrwt beam="2">  1       -1 0.75587255E-01 0.11421322E+04</pdfrwt>
<totfact> 0.87212975E+01</totfact>
</mgrwt>
</event>
<event>
12    7  0.1675873E-007  0.3396674E+04  0.7818608E-02  0.8138723E-01
         -1   -1    0    0    0  501 -0.00000000000E+00  0.00000000000E+00  0.12534151226E+04  0.12534151226E+04  0.00000000000E+00 0.  1.
          2   -1    0    0  501    0  0.00000000000E+00 -0.00000000000E+00 -0.23011915340E+04  0.23011915340E+04  0.00000000000E+00 0. -1.
         24    2    1    2    0    0  0.58808947506E+03 -0.39758553864E+03  0.98568190728E+03  0.12172219973E+04  0.78339499090E+02 0.  0.
        254    2    1    2    0    0 -0.58808947506E+03  0.39758553864E+03 -0.20334583187E+04  0.23373846593E+04  0.90801476902E+03 0.  0.
         23    2    4    4    0    0  0.88075944180E+02  0.71606310786E+02  0.22049881321E+02  0.14727609184E+03  0.91209726863E+02 0.  0.
         23    2    4    4    0    0 -0.67616541924E+03  0.32597922786E+03 -0.20555082000E+04  0.21901085675E+04  0.89439622378E+02 0.  0.
          2    1    3    3  502    0  0.11804038919E+03 -0.73539806972E+02  0.14415586647E+03  0.20030614201E+03  0.00000000000E+00 0. -1.
         -1    1    3    3    0  502  0.47004908586E+03 -0.32404573167E+03  0.84152604082E+03  0.10169158553E+04  0.00000000000E+00 0.  1.
         13    1    5    5    0    0 -0.18687435046E+02  0.14987534528E+02 -0.20726732179E+01  0.24044591785E+02  0.00000000000E+00 0. -1.
        -13    1    5    5    0    0  0.10676337923E+03  0.56618776257E+02  0.24122554539E+02  0.12323150006E+03  0.00000000000E+00 0.  1.
          2    1    6    6  503    0 -0.12215584672E+03  0.29602404657E+02 -0.40498755440E+03  0.42404395111E+03  0.00000000000E+00 0. -1.
         -2    1    6    6    0  503 -0.55400957252E+03  0.29637682320E+03 -0.16505206456E+04  0.17660646164E+04  0.00000000000E+00 0.  1.
<mgrwt>
<rscale>  0 0.33966738E+04</rscale>
<asrwt>0</asrwt>
<pdfrwt beam="1">  1        2 0.35402947E+00 0.33966738E+04</pdfrwt>
<pdfrwt beam="2">  1       -1 0.19283310E+00 0.33966738E+04</pdfrwt>
<totfact> 0.71974934E-01</totfact>
</mgrwt>
</event>
<event>
12    7  0.1675873E-007  0.1310145E+04  0.7818608E-02  0.9021559E-01
         -1   -1    0    0    0  501 -0.00000000000E+00  0.00000000000E+00  0.48743761917E+03  0.48743761917E+03  0.00000000000E+00 0.  1.
          2   -1    0    0  501    0  0.00000000000E+00 -0.00000000000E+00 -0.88035864808E+03  0.88035864808E+03  0.00000000000E+00 0. -1.
         24    2    1    2    0    0  0.27234886758E+03  0.16183861751E+03 -0.21776177405E+03  0.39286629147E+03  0.80982028534E+02 0.  0.
        254    2    1    2    0    0 -0.27234886758E+03 -0.16183861751E+03 -0.17515925487E+03  0.97492997578E+03  0.90523038467E+03 0.  0.
         23    2    4    4    0    0 -0.42585099899E+03  0.14931623980E+03  0.15638671910E+03  0.48617158114E+03  0.90893275830E+02 0.  0.
         23    2    4    4    0    0  0.15350213141E+03 -0.31115485731E+03 -0.33154597397E+03  0.48875839464E+03  0.92637929071E+02 0.  0.
          4    1    3    3  502    0  0.65427060192E+02  0.70824433970E+02 -0.96188239129E+02  0.13619463278E+03  0.00000000000E+00 0. -1.
         -3    1    3    3    0  502  0.20692180739E+03  0.91014183539E+02 -0.12157353492E+03  0.25667165869E+03  0.00000000000E+00 0.  1.
         13    1    5    5    0    0 -0.34974134899E-01  0.47494083774E+01  0.13527832063E+02  0.14337375752E+02  0.00000000000E+00 0. -1.
        -13    1    5    5    0    0 -0.42581602486E+03  0.14456683142E+03  0.14285888703E+03  0.47183420539E+03  0.00000000000E+00 0.  1.
          4    1    6    6  503    0  0.12979688344E+01 -0.29657910344E+02 -0.25468231515E+01  0.29795346570E+02  0.00000000000E+00 0. -1.
         -4    1    6    6    0  503  0.15220416257E+03 -0.28149694696E+03 -0.32899915081E+03  0.45896304807E+03  0.00000000000E+00 0.  1.
<mgrwt>
<rscale>  0 0.13101449E+04</rscale>
<asrwt>0</asrwt>
<pdfrwt beam="1">  1        2 0.13543979E+00 0.13101449E+04</pdfrwt>
<pdfrwt beam="2">  1       -1 0.74990404E-01 0.13101449E+04</pdfrwt>
<totfact> 0.60475709E+01</totfact>
</mgrwt>
</event>
<event>
12    7  0.1675873E-007  0.2904975E+04  0.7818608E-02  0.8271399E-01
          2   -1    0    0  501    0  0.00000000000E+00  0.00000000000E+00  0.12320103975E+04  0.12320103975E+04  0.00000000000E+00 0. -1.
         -1   -1    0    0    0  501 -0.00000000000E+00 -0.00000000000E+00 -0.17124208686E+04  0.17124208686E+04  0.00000000000E+00 0.  1.
         24    2    1    2    0    0  0.31283567859E+03  0.19421891854E+03 -0.14954121941E+04  0.15424532887E+04  0.85541612412E+02 0.  0.
        254    2    1    2    0    0 -0.31283567859E+03 -0.19421891854E+03  0.10150017230E+04  0.14019779774E+04  0.89427434347E+03 0.  0.
         23    2    4    4    0    0 -0.53944754018E+03  0.11889424876E+03  0.67669264431E+03  0.87847645124E+03  0.93104508579E+02 0.  0.
         23    2    4    4    0    0  0.22661186159E+03 -0.31311316730E+03  0.33830907868E+03  0.52350152619E+03  0.10103476557E+03 0.  0.
          2    1    3    3  502    0  0.18726919316E+03  0.13400318051E+03 -0.10814694619E+04  0.11057137062E+04  0.00000000000E+00 0. -1.
         -1    1    3    3    0  502  0.12556648543E+03  0.60215738027E+02 -0.41394273217E+03  0.43673958246E+03  0.00000000000E+00 0.  1.
         13    1    5    5    0    0 -0.53894781033E+03  0.11545365442E+03  0.67881357599E+03  0.87440388810E+03  0.00000000000E+00 0. -1.
        -13    1    5    5    0    0 -0.49972984708E+00  0.34405943464E+01 -0.21209316711E+01  0.40725631401E+01  0.00000000000E+00 0.  1.
          1    1    6    6  503    0  0.17153552195E+03 -0.28831449024E+03  0.31005093571E+03  0.45681644378E+03  0.00000000000E+00 0. -1.
         -1    1    6    6    0  503  0.55076339631E+02 -0.24798677064E+02  0.28258142966E+02  0.66685082404E+02  0.00000000000E+00 0.  1.
<mgrwt>
<rscale>  0 0.29049753E+04</rscale>
<asrwt>0</asrwt>
<pdfrwt beam="1">  1        2 0.18954006E+00 0.29049753E+04</pdfrwt>
<pdfrwt beam="2">  1       -1 0.26344936E+00 0.29049753E+04</pdfrwt>
<totfact> 0.10151827E+00</totfact>
</mgrwt>
</event>
<event>
12    7  0.1675873E-007  0.2240308E+04  0.7818608E-02  0.8501836E-01
         -1   -1    0    0    0  501 -0.00000000000E+00  0.00000000000E+00  0.10802595543E+04  0.10802595543E+04  0.00000000000E+00 0.  1.
          2   -1    0    0  501    0  0.00000000000E+00 -0.00000000000E+00 -0.11615216620E+04  0.11615216620E+04  0.00000000000E+00 0. -1.
         24    2    1    2    0    0  0.32251453477E+03  0.79308672225E+03  0.34646551895E+03  0.92690572494E+03  0.78190107728E+02 0.  0.
        254    2    1    2    0    0 -0.32251453477E+03 -0.79308672225E+03 -0.42772762664E+03  0.13148754913E+04  0.90163432770E+03 0.  0.
         23    2    4    4    0    0 -0.46860106395E+03 -0.30554950233E+03 -0.54245100338E+03  0.78485270562E+03  0.93772186360E+02 0.  0.
         23    2    4    4    0    0  0.14608652918E+03 -0.48753721992E+03  0.11472337674E+03  0.53002278568E+03  0.93428503996E+02 0.  0.
          4    1    3    3  502    0  0.74375835398E+02  0.15328309352E+03  0.38171858452E+02  0.17459828873E+03  0.00000000000E+00 0. -1.
         -3    1    3    3    0  502  0.24813869937E+03  0.63980362873E+03  0.30829366050E+03  0.75230743620E+03  0.00000000000E+00 0.  1.
         13    1    5    5    0    0 -0.10612326673E+03 -0.11675721653E+03 -0.16944791110E+03  0.23153183351E+03  0.00000000000E+00 0. -1.
        -13    1    5    5    0    0 -0.36247779722E+03 -0.18879228580E+03 -0.37300309228E+03  0.55332087211E+03  0.00000000000E+00 0.  1.
          3    1    6    6  503    0  0.76789378941E+02 -0.33378850681E+03  0.11525074362E+03  0.36137807059E+03  0.00000000000E+00 0. -1.
         -3    1    6    6    0  503  0.69297150239E+02 -0.15374871311E+03 -0.52736688018E+00  0.16864471510E+03  0.00000000000E+00 0.  1.
<mgrwt>
<rscale>  0 0.22403079E+04</rscale>
<asrwt>0</asrwt>
<pdfrwt beam="1">  1        2 0.17869564E+00 0.22403079E+04</pdfrwt>
<pdfrwt beam="2">  1       -1 0.16619378E+00 0.22403079E+04</pdfrwt>
<totfact> 0.54480913E+00</totfact>
</mgrwt>
</event>
<event>
12    7  0.1675873E-007  0.1938844E+04  0.7818608E-02  0.8635759E-01
          2   -1    0    0  501    0  0.00000000000E+00  0.00000000000E+00  0.14344005496E+04  0.14344005496E+04  0.00000000000E+00 0. -1.
         -3   -1    0    0    0  501 -0.00000000000E+00 -0.00000000000E+00 -0.65517205620E+03  0.65517205620E+03  0.00000000000E+00 0.  1.
         24    2    1    2    0    0 -0.43041686894E+03  0.62569132720E+03  0.25959206434E+03  0.80675416946E+03  0.81950790597E+02 0.  0.
        254    2    1    2    0    0  0.43041686894E+03 -0.62569132720E+03  0.51963642904E+03  0.12828184363E+04  0.89378565895E+03 0.  0.
         23    2    4    4    0    0  0.14224082301E+03 -0.21949842541E+03 -0.24265635551E+03  0.36753800025E+03  0.88261340741E+02 0.  0.
         23    2    4    4    0    0  0.28817604593E+03 -0.40619290179E+03  0.76229278455E+03  0.91528043606E+03  0.92789440871E+02 0.  0.
          2    1    3    3  502    0 -0.80401917814E+02  0.97622261574E+02  0.13843370162E+02  0.12722504958E+03  0.00000000000E+00 0. -1.
         -1    1    3    3    0  502 -0.35001495113E+03  0.52806906562E+03  0.24574869417E+03  0.67952911988E+03  0.00000000000E+00 0.  1.
         13    1    5    5    0    0  0.96182499091E+02 -0.75013023370E+02 -0.84247457036E+02  0.14824189969E+03  0.00000000000E+00 0. -1.
        -13    1    5    5    0    0  0.46058323921E+02 -0.14448540204E+03 -0.15840889848E+03  0.21929610056E+03  0.00000000000E+00 0.  1.
          3    1    6    6  503    0  0.26883946222E+03 -0.40278667719E+03  0.74767230721E+03  0.89080056283E+03  0.00000000000E+00 0. -1.
         -3    1    6    6    0  503  0.19336583706E+02 -0.34062245970E+01  0.14620477341E+02  0.24479873225E+02  0.00000000000E+00 0.  1.
<mgrwt>
<rscale>  0 0.19388441E+04</rscale>
<asrwt>0</asrwt>
<pdfrwt beam="1">  1        2 0.22067701E+00 0.19388441E+04</pdfrwt>
<pdfrwt beam="2">  1       -3 0.10079570E+00 0.19388441E+04</pdfrwt>
<totfact> 0.70440431E+00</totfact>
</mgrwt>
</event>
<event>
12    7  0.1675873E-007  0.1688125E+04  0.7818608E-02  0.8768166E-01
         -1   -1    0    0    0  501 -0.00000000000E+00  0.00000000000E+00  0.86506649342E+03  0.86506649342E+03  0.00000000000E+00 0.  1.
          2   -1    0    0  501    0  0.00000000000E+00 -0.00000000000E+00 -0.82356870870E+03  0.82356870870E+03  0.00000000000E+00 0. -1.
         24    2    1    2    0    0 -0.16640178485E+03 -0.11687048970E+03  0.58349660828E+03  0.62302279893E+03  0.79629459047E+02 0.  0.
        254    2    1    2    0    0  0.16640178485E+03  0.11687048970E+03 -0.54199882356E+03  0.10656124032E+04  0.89466127876E+03 0.  0.
         23    2    4    4    0    0 -0.12413698989E+03  0.12038733698E+03  0.18943885900E+03  0.27327468591E+03  0.94280801326E+02 0.  0.
         23    2    4    4    0    0  0.29053877474E+03 -0.35168472785E+01 -0.73143768256E+03  0.79233771727E+03  0.91503152375E+02 0.  0.
          4    1    3    3  502    0 -0.49317044496E+02 -0.81131781199E+02  0.22544377000E+03  0.24462099303E+03  0.00000000000E+00 0. -1.
         -3    1    3    3    0  502 -0.11708474035E+03 -0.35738708500E+02  0.35805283828E+03  0.37840180590E+03  0.00000000000E+00 0.  1.
         13    1    5    5    0    0 -0.83297220178E+02  0.11654767748E+03  0.99488228413E+02  0.17441242963E+03  0.00000000000E+00 0.  1.
        -13    1    5    5    0    0 -0.40839769715E+02  0.38396594955E+01  0.89950630584E+02  0.98862256286E+02  0.00000000000E+00 0. -1.
          4    1    6    6  503    0  0.28532128151E+03 -0.63055211922E+01 -0.73267341451E+03  0.78629404526E+03  0.00000000000E+00 0. -1.
         -4    1    6    6    0  503  0.52174932363E+01  0.27886739137E+01  0.12357319544E+01  0.60436720072E+01  0.00000000000E+00 0.  1.
<mgrwt>
<rscale>  0 0.16881252E+04</rscale>
<asrwt>0</asrwt>
<pdfrwt beam="1">  1        2 0.12670288E+00 0.16881252E+04</pdfrwt>
<pdfrwt beam="2">  1       -1 0.13308715E+00 0.16881252E+04</pdfrwt>
<totfact> 0.17212493E+01</totfact>
</mgrwt>
</event>
<event>
12    7  0.1675873E-007  0.1867581E+04  0.7818608E-02  0.8671164E-01
          2   -1    0    0  501    0  0.00000000000E+00  0.00000000000E+00  0.72217180920E+03  0.72217180920E+03  0.00000000000E+00 0. -1.
         -1   -1    0    0    0  501 -0.00000000000E+00 -0.00000000000E+00 -0.12074201648E+04  0.12074201648E+04  0.00000000000E+00 0.  1.
         24    2    1    2    0    0  0.39808222257E+03 -0.53532671974E+03 -0.34546548756E+03  0.75511650070E+03  0.76225807613E+02 0.  0.
        254    2    1    2    0    0 -0.39808222257E+03  0.53532671974E+03 -0.13978286805E+03  0.11744754733E+04  0.95645660350E+03 0.  0.
         23    2    4    4    0    0 -0.41060911000E+03  0.75653824735E+03 -0.26056740734E+03  0.90389036971E+03  0.90401691149E+02 0.  0.
         23    2    4    4    0    0  0.12526887432E+02 -0.22121152761E+03  0.12078453929E+03  0.27058510359E+03  0.97652089051E+02 0.  0.
          2    1    3    3  502    0  0.66442436694E+02 -0.47920270399E+02 -0.42878565901E+02  0.92463620537E+02  0.00000000000E+00 0. -1.
         -1    1    3    3    0  502  0.33163978587E+03 -0.48740644934E+03 -0.30258692166E+03  0.66265288017E+03  0.00000000000E+00 0.  1.
         13    1    5    5    0    0 -0.29668622460E+03  0.60221052752E+03 -0.17444040397E+03  0.69362071037E+03  0.00000000000E+00 0. -1.
        -13    1    5    5    0    0 -0.11392288540E+03  0.15432771983E+03 -0.86127003372E+02  0.21026965933E+03  0.00000000000E+00 0.  1.
          1    1    6    6  503    0  0.19696136717E+02 -0.21005536342E+03  0.13552660851E+03  0.25075616666E+03  0.00000000000E+00 0. -1.
         -1    1    6    6    0  503 -0.71692492847E+01 -0.11156164185E+02 -0.14742069222E+02  0.19828936925E+02  0.00000000000E+00 0.  1.
<mgrwt>
<rscale>  0 0.18675811E+04</rscale>
<asrwt>0</asrwt>
<pdfrwt beam="1">  1        2 0.11110336E+00 0.18675811E+04</pdfrwt>
<pdfrwt beam="2">  1       -1 0.18575695E+00 0.18675811E+04</pdfrwt>
<totfact> 0.79904573E+00</totfact>
</mgrwt>
</event>
<event>
12    7  0.1675873E-007  0.3108520E+04  0.7818608E-02  0.8213403E-01
          2   -1    0    0  501    0  0.00000000000E+00  0.00000000000E+00  0.26533262161E+04  0.26533262161E+04  0.00000000000E+00 0. -1.
         -1   -1    0    0    0  501 -0.00000000000E+00 -0.00000000000E+00 -0.91045150815E+03  0.91045150815E+03  0.00000000000E+00 0.  1.
         24    2    1    2    0    0  0.62214966981E+03  0.48103434118E+03 -0.55957632241E+03  0.96848449666E+03  0.79826753860E+02 0.  0.
        254    2    1    2    0    0 -0.62214966981E+03 -0.48103434118E+03  0.23024510304E+04  0.25952932276E+04  0.90321754905E+03 0.  0.
         23    2    4    4    0    0 -0.36405044348E+03  0.71499500920E+02  0.25900284077E+03  0.46037879561E+03  0.84977996518E+02 0.  0.
         23    2    4    4    0    0 -0.25809922633E+03 -0.55253384210E+03  0.20434481896E+04  0.21349144320E+04  0.10134234553E+03 0.  0.
          2    1    3    3  502    0  0.22457397039E+03  0.14605587025E+03 -0.15304549194E+03  0.30852667310E+03  0.00000000000E+00 0. -1.
         -1    1    3    3    0  502  0.39757569942E+03  0.33497847093E+03 -0.40653083048E+03  0.65995782356E+03  0.00000000000E+00 0.  1.
         13    1    5    5    0    0 -0.22921368844E+03  0.55231243542E+02  0.21078462303E+03  0.31625869559E+03  0.00000000000E+00 0.  1.
        -13    1    5    5    0    0 -0.13483675504E+03  0.16268257378E+02  0.48218217739E+02  0.14412010002E+03  0.00000000000E+00 0. -1.
          3    1    6    6  503    0 -0.22008331908E+03 -0.53031367893E+03  0.19000029842E+04  0.19848628681E+04  0.00000000000E+00 0. -1.
         -3    1    6    6    0  503 -0.38015907246E+02 -0.22220163172E+02  0.14344520545E+03  0.15005156387E+03  0.00000000000E+00 0.  1.
<mgrwt>
<rscale>  0 0.31085205E+04</rscale>
<asrwt>0</asrwt>
<pdfrwt beam="1">  1        2 0.40820403E+00 0.31085205E+04</pdfrwt>
<pdfrwt beam="2">  1       -1 0.14006946E+00 0.31085205E+04</pdfrwt>
<totfact> 0.11419877E+00</totfact>
</mgrwt>
</event>
<event>
12    7  0.1675873E-007  0.1696039E+04  0.7818608E-02  0.8763627E-01
          2   -1    0    0  501    0  0.00000000000E+00  0.00000000000E+00  0.70068555454E+03  0.70068555454E+03  0.00000000000E+00 0. -1.
         -1   -1    0    0    0  501 -0.00000000000E+00 -0.00000000000E+00 -0.10263332716E+04  0.10263332716E+04  0.00000000000E+00 0.  1.
         24    2    1    2    0    0 -0.45708475834E+03  0.29950327368E+03  0.17755271570E+03  0.58001712995E+03  0.79159439942E+02 0.  0.
        254    2    1    2    0    0  0.45708475834E+03 -0.29950327368E+03 -0.50320043281E+03  0.11470016962E+04  0.87394137579E+03 0.  0.
         23    2    4    4    0    0 -0.78201477094E+02  0.20603116221E+03 -0.28924641270E+03  0.37482993809E+03  0.90937805159E+02 0.  0.
         23    2    4    4    0    0  0.53528623543E+03 -0.50553443589E+03 -0.21395402011E+03  0.77217175814E+03  0.91523120743E+02 0.  0.
          2    1    3    3  502    0 -0.39684094447E+03  0.28647462439E+03  0.16897478091E+03  0.51778656048E+03  0.00000000000E+00 0. -1.
         -1    1    3    3    0  502 -0.60243813868E+02  0.13028649292E+02  0.85779347941E+01  0.62230569474E+02  0.00000000000E+00 0.  1.
         13    1    5    5    0    0 -0.92206060693E+02  0.20098143026E+03 -0.28175568513E+03  0.35816443018E+03  0.00000000000E+00 0.  1.
        -13    1    5    5    0    0  0.14004583599E+02  0.50497319478E+01 -0.74907275681E+01  0.16665507914E+02  0.00000000000E+00 0. -1.
          3    1    6    6  503    0  0.23194904789E+03 -0.16366764901E+03 -0.10170783122E+03  0.30154923823E+03  0.00000000000E+00 0. -1.
         -3    1    6    6    0  503  0.30333718754E+03 -0.34186678689E+03 -0.11224618889E+03  0.47062251991E+03  0.00000000000E+00 0.  1.
<mgrwt>
<rscale>  0 0.16960388E+04</rscale>
<asrwt>0</asrwt>
<pdfrwt beam="1">  1        2 0.10779778E+00 0.16960388E+04</pdfrwt>
<pdfrwt beam="2">  1       -1 0.15789743E+00 0.16960388E+04</pdfrwt>
<totfact> 0.13487419E+01</totfact>
</mgrwt>
</event>
<event>
12    7  0.1675873E-007  0.1027565E+04  0.7818608E-02  0.9278818E-01
          2   -1    0    0  501    0  0.00000000000E+00  0.00000000000E+00  0.75654018585E+03  0.75654018585E+03  0.00000000000E+00 0. -1.
         -1   -1    0    0    0  501 -0.00000000000E+00 -0.00000000000E+00 -0.34892055724E+03  0.34892055724E+03  0.00000000000E+00 0.  1.
         24    2    1    2    0    0  0.65470563222E+02 -0.23555313596E+02  0.83444996320E+02  0.13547245108E+03  0.80922618239E+02 0.  0.
        254    2    1    2    0    0 -0.65470563222E+02  0.23555313596E+02  0.32417463230E+03  0.96998829202E+03  0.91156285959E+03 0.  0.
         23    2    4    4    0    0  0.14570837840E+03 -0.53963198919E+02 -0.27195105371E+03  0.32634936292E+03  0.91671002454E+02 0.  0.
         23    2    4    4    0    0 -0.21117894162E+03  0.77518512516E+02  0.59612568600E+03  0.64363892910E+03  0.91101988830E+02 0.  0.
          4    1    3    3  502    0  0.49985521960E+02  0.24881301104E+02  0.41932756330E+02  0.69828272237E+02  0.00000000000E+00 0. -1.
         -3    1    3    3    0  502  0.15485041262E+02 -0.48436614700E+02  0.41512239991E+02  0.65644178839E+02  0.00000000000E+00 0.  1.
         13    1    5    5    0    0  0.78699640212E+02 -0.58876120609E+02 -0.22150329108E+03  0.24232981432E+03  0.00000000000E+00 0.  1.
        -13    1    5    5    0    0  0.67008738190E+02  0.49129216891E+01 -0.50447762630E+02  0.84019548605E+02  0.00000000000E+00 0. -1.
          2    1    6    6  503    0 -0.18934794383E+00  0.25244289137E+02  0.67565386500E+02  0.72127605253E+02  0.00000000000E+00 0. -1.
         -2    1    6    6    0  503 -0.21098959368E+03  0.52274223379E+02  0.52856029950E+03  0.57151132384E+03  0.00000000000E+00 0.  1.
<mgrwt>
<rscale>  0 0.10275649E+04</rscale>
<asrwt>0</asrwt>
<pdfrwt beam="1">  1        2 0.11639080E+00 0.10275649E+04</pdfrwt>
<pdfrwt beam="2">  1       -1 0.53680086E-01 0.10275649E+04</pdfrwt>
<totfact> 0.14776412E+02</totfact>
</mgrwt>
</event>
<event>
12    7  0.1675873E-007  0.1065962E+04  0.7818608E-02  0.9239018E-01
         -1   -1    0    0    0  501 -0.00000000000E+00  0.00000000000E+00  0.13792815462E+03  0.13792815462E+03  0.00000000000E+00 0.  1.
          2   -1    0    0  501    0  0.00000000000E+00 -0.00000000000E+00 -0.20595399591E+04  0.20595399591E+04  0.00000000000E+00 0. -1.
         24    2    1    2    0    0 -0.12056836457E+03  0.38814864782E+02 -0.15049832416E+03  0.21243340809E+03  0.80217722705E+02 0.  0.
        254    2    1    2    0    0  0.12056836457E+03 -0.38814864782E+02 -0.17711134803E+04  0.19850347056E+04  0.88739872553E+03 0.  0.
         23    2    4    4    0    0 -0.30951428297E+03 -0.17132888860E+03 -0.11876307163E+04  0.12425363382E+04  0.90978866014E+02 0.  0.
         23    2    4    4    0    0  0.43008264754E+03  0.13251402382E+03 -0.58348276399E+03  0.74249836737E+03  0.91217539194E+02 0.  0.
          4    1    3    3  502    0 -0.25529340445E+02 -0.24574574966E+02 -0.41007892556E+02  0.54196902219E+02  0.00000000000E+00 0. -1.
         -3    1    3    3    0  502 -0.95039024127E+02  0.63389439748E+02 -0.10949043160E+03  0.15823650587E+03  0.00000000000E+00 0.  1.
         13    1    5    5    0    0 -0.29185651382E+03 -0.17740874841E+03 -0.11596077047E+04  0.12088606692E+04  0.00000000000E+00 0.  1.
        -13    1    5    5    0    0 -0.17657769149E+02  0.60798598094E+01 -0.28023011610E+02  0.33675669055E+02  0.00000000000E+00 0. -1.
          4    1    6    6  503    0  0.53036238503E+02 -0.44152290122E+01 -0.10804839040E+03  0.12044414270E+03  0.00000000000E+00 0. -1.
         -4    1    6    6    0  503  0.37704640903E+03  0.13692925283E+03 -0.47543437358E+03  0.62205422467E+03  0.00000000000E+00 0.  1.
<mgrwt>
<rscale>  0 0.10659616E+04</rscale>
<asrwt>0</asrwt>
<pdfrwt beam="1">  1        2 0.31685227E+00 0.10659616E+04</pdfrwt>
<pdfrwt beam="2">  1       -1 0.21219718E-01 0.10659616E+04</pdfrwt>
<totfact> 0.13030782E+02</totfact>
</mgrwt>
</event>
<event>
12    7  0.1675873E-007  0.1486603E+04  0.7818608E-02  0.8893411E-01
         -1   -1    0    0    0  501 -0.00000000000E+00  0.00000000000E+00  0.73733679865E+03  0.73733679865E+03  0.00000000000E+00 0.  1.
          2   -1    0    0  501    0  0.00000000000E+00 -0.00000000000E+00 -0.74931482183E+03  0.74931482183E+03  0.00000000000E+00 0. -1.
         24    2    1    2    0    0 -0.14280316251E+03 -0.66283328615E+02 -0.44339659230E+03  0.47749230233E+03  0.81315052973E+02 0.  0.
        254    2    1    2    0    0  0.14280316251E+03  0.66283328615E+02  0.43141856912E+03  0.10091593181E+04  0.89860687998E+03 0.  0.
         23    2    4    4    0    0  0.30924740483E+03 -0.15576229408E+03 -0.12538683703E+03  0.37922512394E+03  0.90520638926E+02 0.  0.
         23    2    4    4    0    0 -0.16644424232E+03  0.22204562269E+03  0.55680540616E+03  0.62993419421E+03  0.98878128776E+02 0.  0.
          4    1    3    3  502    0 -0.72001080676E+02 -0.44400154858E+02 -0.33946676815E+03  0.34984741823E+03  0.00000000000E+00 0. -1.
         -3    1    3    3    0  502 -0.70802081832E+02 -0.21883173757E+02 -0.10392982416E+03  0.12764488409E+03  0.00000000000E+00 0.  1.
         13    1    5    5    0    0  0.45860033379E+02 -0.15970439547E+02 -0.53979881837E+02  0.72608713279E+02  0.00000000000E+00 0.  1.
        -13    1    5    5    0    0  0.26338737145E+03 -0.13979185453E+03 -0.71406955197E+02  0.30661641066E+03  0.00000000000E+00 0. -1.
          4    1    6    6  503    0 -0.12387071811E+03  0.19491937231E+03  0.36775035065E+03  0.43425549727E+03  0.00000000000E+00 0. -1.
         -4    1    6    6    0  503 -0.42573524210E+02  0.27126250388E+02  0.18905505551E+03  0.19567869694E+03  0.00000000000E+00 0.  1.
<mgrwt>
<rscale>  0 0.14866034E+04</rscale>
<asrwt>0</asrwt>
<pdfrwt beam="1">  1        2 0.11527920E+00 0.14866034E+04</pdfrwt>
<pdfrwt beam="2">  1       -1 0.11343643E+00 0.14866034E+04</pdfrwt>
<totfact> 0.29421758E+01</totfact>
</mgrwt>
</event>
<event>
12    7  0.1675873E-007  0.2252827E+04  0.7818608E-02  0.8496756E-01
         -1   -1    0    0    0  501 -0.00000000000E+00  0.00000000000E+00  0.82778432870E+03  0.82778432870E+03  0.00000000000E+00 0.  1.
          2   -1    0    0  501    0  0.00000000000E+00 -0.00000000000E+00 -0.15327758399E+04  0.15327758399E+04  0.00000000000E+00 0. -1.
         24    2    1    2    0    0 -0.87621942215E+03 -0.34463360426E+03 -0.22825327640E+03  0.97217526493E+03  0.80575372193E+02 0.  0.
        254    2    1    2    0    0  0.87621942215E+03  0.34463360426E+03 -0.47673823477E+03  0.13883849036E+04  0.90210891761E+03 0.  0.
         23    2    4    4    0    0  0.10625678062E+03  0.38377460318E+03  0.10247738720E+03  0.41987080687E+03  0.84949573873E+02 0.  0.
         23    2    4    4    0    0  0.76996264153E+03 -0.39140998911E+02 -0.57921562196E+03  0.96851409678E+03  0.90301338738E+02 0.  0.
          4    1    3    3  502    0 -0.73929135676E+03 -0.25838406891E+03 -0.18631628275E+03  0.80500173569E+03  0.00000000000E+00 0. -1.
         -3    1    3    3    0  502 -0.13692806539E+03 -0.86249535358E+02 -0.41936993644E+02  0.16717352923E+03  0.00000000000E+00 0.  1.
         13    1    5    5    0    0  0.72137612140E+02  0.20223559008E+03  0.14315641818E+02  0.21519295198E+03  0.00000000000E+00 0. -1.
        -13    1    5    5    0    0  0.34119168481E+02  0.18153901309E+03  0.88161745378E+02  0.20467785489E+03  0.00000000000E+00 0.  1.
          3    1    6    6  503    0  0.40375488066E+03 -0.61889909557E+02 -0.28256710843E+03  0.49668152304E+03  0.00000000000E+00 0. -1.
         -3    1    6    6    0  503  0.36620776087E+03  0.22748910645E+02 -0.29664851353E+03  0.47183257373E+03  0.00000000000E+00 0.  1.
<mgrwt>
<rscale>  0 0.22528274E+04</rscale>
<asrwt>0</asrwt>
<pdfrwt beam="1">  1        2 0.23581166E+00 0.22528274E+04</pdfrwt>
<pdfrwt beam="2">  1       -1 0.12735144E+00 0.22528274E+04</pdfrwt>
<totfact> 0.67363044E+00</totfact>
</mgrwt>
</event>
<event>
12    7  0.1675873E-007  0.1639624E+04  0.7818608E-02  0.8796568E-01
          2   -1    0    0  501    0  0.00000000000E+00  0.00000000000E+00  0.30213475899E+04  0.30213475899E+04  0.00000000000E+00 0. -1.
         -1   -1    0    0    0  501 -0.00000000000E+00 -0.00000000000E+00 -0.22244774835E+03  0.22244774835E+03  0.00000000000E+00 0.  1.
         24    2    1    2    0    0 -0.19864512418E+03  0.28453093896E+03  0.91316326580E+02  0.36725082800E+03  0.78209709000E+02 0.  0.
        254    2    1    2    0    0  0.19864512418E+03 -0.28453093896E+03  0.27075835150E+04  0.28765445103E+04  0.90723871630E+03 0.  0.
         23    2    4    4    0    0  0.16540191281E+03  0.23389557225E+03  0.35165603183E+03  0.46233819709E+03  0.89608661915E+02 0.  0.
         23    2    4    4    0    0  0.33243211372E+02 -0.51842651120E+03  0.23559274832E+04  0.24142063132E+04  0.90147978792E+02 0.  0.
          4    1    3    3  502    0 -0.13379212570E+02  0.55763922380E+02  0.36034225459E+02  0.67728013205E+02  0.00000000000E+00 0. -1.
         -3    1    3    3    0  502 -0.18526591161E+03  0.22876701658E+03  0.55282101121E+02  0.29952281479E+03  0.00000000000E+00 0.  1.
         13    1    5    5    0    0  0.24921315789E+02  0.95374096176E+02  0.82042949887E+02  0.12825106560E+03  0.00000000000E+00 0.  1.
        -13    1    5    5    0    0  0.14048059702E+03  0.13852147607E+03  0.26961308194E+03  0.33408713149E+03  0.00000000000E+00 0. -1.
          2    1    6    6  503    0  0.28742331779E+02 -0.43648695387E+03  0.18078012492E+04  0.18599710587E+04  0.00000000000E+00 0. -1.
         -2    1    6    6    0  503  0.45008795932E+01 -0.81939557332E+02  0.54812623396E+03  0.55423525450E+03  0.00000000000E+00 0.  1.
<mgrwt>
<rscale>  0 0.16396243E+04</rscale>
<asrwt>0</asrwt>
<pdfrwt beam="1">  1        2 0.46482268E+00 0.16396243E+04</pdfrwt>
<pdfrwt beam="2">  1       -1 0.34222733E-01 0.16396243E+04</pdfrwt>
<totfact> 0.14930774E+01</totfact>
</mgrwt>
</event>
<event>
12    7  0.1675873E-007  0.3999872E+04  0.7818608E-02  0.8004572E-01
          2   -1    0    0  501    0  0.00000000000E+00  0.00000000000E+00  0.23201573910E+04  0.23201573910E+04  0.00000000000E+00 0. -1.
         -1   -1    0    0    0  501 -0.00000000000E+00 -0.00000000000E+00 -0.17239102881E+04  0.17239102881E+04  0.00000000000E+00 0.  1.
         24    2    1    2    0    0 -0.16553162389E+04 -0.15180091730E+03  0.12097731740E+04  0.20572471312E+04  0.74828182235E+02 0.  0.
        254    2    1    2    0    0  0.16553162389E+04  0.15180091730E+03 -0.61352607105E+03  0.19868205479E+04  0.89884719521E+03 0.  0.
         23    2    4    4    0    0  0.31933403252E+03  0.32074437524E+03 -0.42150483401E+03  0.62357269230E+03  0.79532376490E+02 0.  0.
         23    2    4    4    0    0  0.13359822064E+04 -0.16894345794E+03 -0.19202123704E+03  0.13632478556E+04  0.90455583094E+02 0.  0.
          4    1    3    3  502    0 -0.16457194409E+04 -0.14508315548E+03  0.11990160410E+04  0.20413429567E+04  0.00000000000E+00 0. -1.
         -3    1    3    3    0  502 -0.95967979910E+01 -0.67177618147E+01  0.10757133011E+02  0.15904174487E+02  0.00000000000E+00 0.  1.
         13    1    5    5    0    0  0.86852523080E+02  0.43594798805E+02 -0.10276350736E+03  0.14143622483E+03  0.00000000000E+00 0. -1.
        -13    1    5    5    0    0  0.23248150944E+03  0.27714957643E+03 -0.31874132665E+03  0.48213646747E+03  0.00000000000E+00 0.  1.
          4    1    6    6  503    0  0.32293334636E+03 -0.51198491130E+02 -0.90216659417E+01  0.32709115264E+03  0.00000000000E+00 0. -1.
         -4    1    6    6    0  503  0.10130488600E+04 -0.11774496681E+03 -0.18299957110E+03  0.10361567030E+04  0.00000000000E+00 0.  1.
<mgrwt>
<rscale>  0 0.39998716E+04</rscale>
<asrwt>0</asrwt>
<pdfrwt beam="1">  1        2 0.35694729E+00 0.39998716E+04</pdfrwt>
<pdfrwt beam="2">  1       -1 0.26521697E+00 0.39998716E+04</pdfrwt>
<totfact> 0.21981911E-01</totfact>
</mgrwt>
</event>
<event>
12    7  0.1675873E-007  0.1489401E+04  0.7818608E-02  0.8891532E-01
          2   -1    0    0  501    0  0.00000000000E+00  0.00000000000E+00  0.24820952182E+04  0.24820952182E+04  0.00000000000E+00 0. -1.
         -1   -1    0    0    0  501 -0.00000000000E+00 -0.00000000000E+00 -0.22343171697E+03  0.22343171697E+03  0.00000000000E+00 0.  1.
         24    2    1    2    0    0 -0.21227568980E+03 -0.37144611187E+03  0.10574049366E+04  0.11433501931E+04  0.78174686357E+02 0.  0.
        254    2    1    2    0    0  0.21227568980E+03  0.37144611187E+03  0.12012585647E+04  0.15621767421E+04  0.90240836206E+03 0.  0.
         23    2    4    4    0    0  0.24528145360E+02  0.32107864141E+03  0.12882561413E+04  0.13311052366E+04  0.92434525992E+02 0.  0.
         23    2    4    4    0    0  0.18774754444E+03  0.50367470460E+02 -0.86997576588E+02  0.23107150549E+03  0.89662923193E+02 0.  0.
          4    1    3    3  502    0 -0.13609429799E+03 -0.27171087332E+03  0.82558991614E+03  0.87974267047E+03  0.00000000000E+00 0. -1.
         -3    1    3    3    0  502 -0.76181391814E+02 -0.99735238550E+02  0.23181502047E+03  0.26360752262E+03  0.00000000000E+00 0.  1.
         13    1    5    5    0    0  0.50473526968E+02  0.12243449748E+03  0.58997484786E+03  0.60465535986E+03  0.00000000000E+00 0. -1.
        -13    1    5    5    0    0 -0.25945381608E+02  0.19864414392E+03  0.69828129339E+03  0.72644987676E+03  0.00000000000E+00 0.  1.
          2    1    6    6  503    0  0.17417593904E+03  0.68792215834E+02 -0.90382347960E+02  0.20793892257E+03  0.00000000000E+00 0.  1.
         -2    1    6    6    0  503  0.13571605404E+02 -0.18424745374E+02  0.33847713717E+01  0.23132582921E+02  0.00000000000E+00 0. -1.
<mgrwt>
<rscale>  0 0.14894009E+04</rscale>
<asrwt>0</asrwt>
<pdfrwt beam="1">  1        2 0.38186078E+00 0.14894009E+04</pdfrwt>
<pdfrwt beam="2">  1       -1 0.34374112E-01 0.14894009E+04</pdfrwt>
<totfact> 0.31555386E+01</totfact>
</mgrwt>
</event>
<event>
12    7  0.1675873E-007  0.1749438E+04  0.7818608E-02  0.8733659E-01
         -1   -1    0    0    0  501 -0.00000000000E+00  0.00000000000E+00  0.82161726043E+03  0.82161726043E+03  0.00000000000E+00 0.  1.
          2   -1    0    0  501    0  0.00000000000E+00 -0.00000000000E+00 -0.93125322240E+03  0.93125322240E+03  0.00000000000E+00 0. -1.
         24    2    1    2    0    0 -0.24644274849E+03 -0.41754644203E+01  0.57489820822E+03  0.63061059806E+03  0.80064435206E+02 0.  0.
        254    2    1    2    0    0  0.24644274849E+03  0.41754644203E+01 -0.68453417020E+03  0.11222598848E+04  0.85447571997E+03 0.  0.
         23    2    4    4    0    0 -0.11349710855E+03 -0.13344970081E+03 -0.69883827513E+03  0.72611398664E+03  0.90422179290E+02 0.  0.
         23    2    4    4    0    0  0.35993985703E+03  0.13762516523E+03  0.14304104935E+02  0.39614589813E+03  0.90717023780E+02 0.  0.
          2    1    3    3  502    0  0.56819343182E+01 -0.97591539158E+00  0.59087081473E+01  0.82552783368E+01  0.00000000000E+00 0. -1.
         -3    1    3    3    0  502 -0.25212468280E+03 -0.31995490287E+01  0.56898950008E+03  0.62235531972E+03  0.00000000000E+00 0.  1.
         13    1    5    5    0    0 -0.11231975089E+03 -0.70305951904E+02 -0.42982082571E+03  0.44978283151E+03  0.00000000000E+00 0. -1.
        -13    1    5    5    0    0 -0.11773576544E+01 -0.63143748910E+02 -0.26901744942E+03  0.27633115512E+03  0.00000000000E+00 0.  1.
          2    1    6    6  503    0  0.18849614779E+03  0.88527638241E+02 -0.34884325971E+02  0.21115126489E+03  0.00000000000E+00 0. -1.
         -2    1    6    6    0  503  0.17144370924E+03  0.49097526994E+02  0.49188430906E+02  0.18499463325E+03  0.00000000000E+00 0.  1.
<mgrwt>
<rscale>  0 0.17494384E+04</rscale>
<asrwt>0</asrwt>
<pdfrwt beam="1">  1        2 0.14326973E+00 0.17494384E+04</pdfrwt>
<pdfrwt beam="2">  1       -1 0.12640266E+00 0.17494384E+04</pdfrwt>
<totfact> 0.16448493E+01</totfact>
</mgrwt>
</event>
<event>
12    7  0.1675873E-007  0.3306446E+04  0.7818608E-02  0.8161257E-01
         -1   -1    0    0    0  501 -0.00000000000E+00  0.00000000000E+00  0.12951462353E+04  0.12951462353E+04  0.00000000000E+00 0.  1.
          2   -1    0    0  501    0  0.00000000000E+00 -0.00000000000E+00 -0.21102991608E+04  0.21102991608E+04  0.00000000000E+00 0. -1.
         24    2    1    2    0    0 -0.68549514580E+03  0.55137119908E+03  0.90983298342E+03  0.12690130912E+04  0.93189988014E+02 0.  0.
        254    2    1    2    0    0  0.68549514580E+03 -0.55137119908E+03 -0.17249859090E+04  0.21364323048E+04  0.90269198118E+03 0.  0.
         23    2    4    4    0    0  0.88497412487E+03 -0.40154621334E+03 -0.11888442130E+04  0.15382015808E+04  0.91076766522E+02 0.  0.
         23    2    4    4    0    0 -0.19947897907E+03 -0.14982498574E+03 -0.53614169597E+03  0.59823072398E+03  0.90513488039E+02 0.  0.
          2    1    3    3  502    0 -0.25843235075E+03  0.15429008322E+03  0.33044894305E+03  0.44697786707E+03  0.00000000000E+00 0. -1.
         -1    1    3    3    0  502 -0.42706279505E+03  0.39708111586E+03  0.57938404038E+03  0.82203522414E+03  0.00000000000E+00 0.  1.
         13    1    5    5    0    0  0.54211188436E+03 -0.28245624843E+03 -0.69982240492E+03  0.92920300574E+03  0.00000000000E+00 0. -1.
        -13    1    5    5    0    0  0.34286224051E+03 -0.11908996491E+03 -0.48902180808E+03  0.60899857511E+03  0.00000000000E+00 0.  1.
          1    1    6    6  503    0 -0.19525467382E+03 -0.10843451563E+03 -0.46390319880E+03  0.51486756519E+03  0.00000000000E+00 0. -1.
         -1    1    6    6    0  503 -0.42243052505E+01 -0.41390470104E+02 -0.72238497170E+02  0.83363158792E+02  0.00000000000E+00 0.  1.
<mgrwt>
<rscale>  0 0.33064458E+04</rscale>
<asrwt>0</asrwt>
<pdfrwt beam="1">  1        2 0.32466141E+00 0.33064458E+04</pdfrwt>
<pdfrwt beam="2">  1       -1 0.19925327E+00 0.33064458E+04</pdfrwt>
<totfact> 0.83834942E-01</totfact>
</mgrwt>
</event>
<event>
12    7  0.1675873E-007  0.1838541E+04  0.7818608E-02  0.8686068E-01
         -1   -1    0    0    0  501 -0.00000000000E+00  0.00000000000E+00  0.72597775440E+03  0.72597775440E+03  0.00000000000E+00 0.  1.
          2   -1    0    0  501    0  0.00000000000E+00 -0.00000000000E+00 -0.11640282629E+04  0.11640282629E+04  0.00000000000E+00 0. -1.
         24    2    1    2    0    0 -0.13719746364E+03 -0.61380191920E+03  0.13834465066E+03  0.64871454461E+03  0.78200882209E+02 0.  0.
        254    2    1    2    0    0  0.13719746364E+03  0.61380191920E+03 -0.57639515912E+03  0.12412914727E+04  0.90166357396E+03 0.  0.
         23    2    4    4    0    0  0.50873802338E+02 -0.17869207552E+03 -0.35193350152E+03  0.40807612172E+03  0.90276962739E+02 0.  0.
         23    2    4    4    0    0  0.86323661302E+02  0.79249399472E+03 -0.22446165760E+03  0.83321535095E+03  0.91467366572E+02 0.  0.
          2    1    3    3  502    0 -0.87376253811E+02 -0.47450157467E+03  0.77117269208E+02  0.48860354819E+03  0.00000000000E+00 0. -1.
         -1    1    3    3    0  502 -0.49821209829E+02 -0.13930034453E+03  0.61227381447E+02  0.16011099642E+03  0.00000000000E+00 0.  1.
         13    1    5    5    0    0 -0.14439622144E+01 -0.11948131893E+03 -0.15375140322E+03  0.19472381619E+03  0.00000000000E+00 0. -1.
        -13    1    5    5    0    0  0.52317764552E+02 -0.59210756591E+02 -0.19818209831E+03  0.21335230553E+03  0.00000000000E+00 0.  1.
          4    1    6    6  503    0  0.77931726501E+02  0.30411781828E+03 -0.85002412379E+02  0.32524823059E+03  0.00000000000E+00 0. -1.
         -4    1    6    6    0  503  0.83919348005E+01  0.48837617644E+03 -0.13945924522E+03  0.50796712036E+03  0.00000000000E+00 0.  1.
<mgrwt>
<rscale>  0 0.18385414E+04</rscale>
<asrwt>0</asrwt>
<pdfrwt beam="1">  1        2 0.17908127E+00 0.18385414E+04</pdfrwt>
<pdfrwt beam="2">  1       -1 0.11168888E+00 0.18385414E+04</pdfrwt>
<totfact> 0.15729407E+01</totfact>
</mgrwt>
</event>
<event>
12    7  0.1675873E-007  0.2290646E+04  0.7818608E-02  0.8481618E-01
         -1   -1    0    0    0  501 -0.00000000000E+00  0.00000000000E+00  0.68052737130E+03  0.68052737130E+03  0.00000000000E+00 0.  1.
          2   -1    0    0  501    0  0.00000000000E+00 -0.00000000000E+00 -0.19275716778E+04  0.19275716778E+04  0.00000000000E+00 0. -1.
         24    2    1    2    0    0  0.22428178856E+03 -0.18124627891E+03  0.52125612767E+03  0.60091558417E+03  0.78987684874E+02 0.  0.
        254    2    1    2    0    0 -0.22428178856E+03  0.18124627891E+03 -0.17683004341E+04  0.20071834649E+04  0.90484612067E+03 0.  0.
         23    2    4    4    0    0 -0.48464753001E+03 -0.11225433681E+03 -0.68470748696E+03  0.85119822243E+03  0.90718281967E+02 0.  0.
         23    2    4    4    0    0  0.26036574146E+03  0.29350061572E+03 -0.10835929472E+04  0.11559852425E+04  0.90527757527E+02 0.  0.
          2    1    3    3  502    0  0.92911560903E+02 -0.12140598553E+03  0.23558298907E+03  0.28084037497E+03  0.00000000000E+00 0. -1.
         -1    1    3    3    0  502  0.13137022766E+03 -0.59840293376E+02  0.28567313860E+03  0.32007520920E+03  0.00000000000E+00 0.  1.
         13    1    5    5    0    0 -0.29253045373E+03 -0.66118523761E+02 -0.33578677907E+03  0.45022048658E+03  0.00000000000E+00 0.  1.
        -13    1    5    5    0    0 -0.19211707629E+03 -0.46135813047E+02 -0.34892070789E+03  0.40097773584E+03  0.00000000000E+00 0. -1.
          2    1    6    6  503    0  0.10646193202E+03  0.15984658361E+03 -0.42079452247E+03  0.46255064955E+03  0.00000000000E+00 0. -1.
         -2    1    6    6    0  503  0.15390380944E+03  0.13365403210E+03 -0.66279842471E+03  0.69343459292E+03  0.00000000000E+00 0.  1.
<mgrwt>
<rscale>  0 0.22906464E+04</rscale>
<asrwt>0</asrwt>
<pdfrwt beam="1">  1        2 0.29654948E+00 0.22906464E+04</pdfrwt>
<pdfrwt beam="2">  1       -1 0.10469652E+00 0.22906464E+04</pdfrwt>
<totfact> 0.64883113E+00</totfact>
</mgrwt>
</event>
<event>
12    7  0.1675873E-007  0.2357747E+04  0.7818608E-02  0.8455494E-01
          2   -1    0    0  501    0  0.00000000000E+00  0.00000000000E+00  0.10706921909E+04  0.10706921909E+04  0.00000000000E+00 0. -1.
         -1   -1    0    0    0  501 -0.00000000000E+00 -0.00000000000E+00 -0.12979854444E+04  0.12979854444E+04  0.00000000000E+00 0.  1.
         24    2    1    2    0    0 -0.12497967095E+03 -0.29834367728E+03  0.85587263238E+03  0.91859538708E+03  0.81674074086E+02 0.  0.
        254    2    1    2    0    0  0.12497967095E+03  0.29834367728E+03 -0.10831658860E+04  0.14500822482E+04  0.90821876336E+03 0.  0.
         23    2    4    4    0    0 -0.90857260979E+02 -0.29608019147E+03 -0.31973585375E+03  0.45437022329E+03  0.91119492902E+02 0.  0.
         23    2    4    4    0    0  0.21583693193E+03  0.59442386876E+03 -0.76343003221E+03  0.99571202491E+03  0.93229316911E+02 0.  0.
          4    1    3    3  502    0 -0.62401691355E+02 -0.14722220261E+03  0.31095789660E+03  0.34966149557E+03  0.00000000000E+00 0. -1.
         -3    1    3    3    0  502 -0.62577979598E+02 -0.15112147467E+03  0.54491473578E+03  0.56893389151E+03  0.00000000000E+00 0.  1.
         13    1    5    5    0    0 -0.22314188796E+01 -0.14779831791E+03 -0.17441842754E+03  0.22862875995E+03  0.00000000000E+00 0.  1.
        -13    1    5    5    0    0 -0.88625842099E+02 -0.14828187356E+03 -0.14531742620E+03  0.22574146335E+03  0.00000000000E+00 0. -1.
          2    1    6    6  503    0  0.20815775074E+03  0.46644517131E+03 -0.59919475629E+03  0.78735957668E+03  0.00000000000E+00 0. -1.
         -2    1    6    6    0  503  0.76791811926E+01  0.12797869744E+03 -0.16423527593E+03  0.20835244823E+03  0.00000000000E+00 0.  1.
<mgrwt>
<rscale>  0 0.23577471E+04</rscale>
<asrwt>0</asrwt>
<pdfrwt beam="1">  1        2 0.16472187E+00 0.23577471E+04</pdfrwt>
<pdfrwt beam="2">  1       -1 0.19969007E+00 0.23577471E+04</pdfrwt>
<totfact> 0.35350513E+00</totfact>
</mgrwt>
</event>
<event>
12    7  0.1675873E-007  0.1535264E+04  0.7818608E-02  0.8861336E-01
         -1   -1    0    0    0  501 -0.00000000000E+00  0.00000000000E+00  0.14600854574E+03  0.14600854574E+03  0.00000000000E+00 0.  1.
          2   -1    0    0  501    0  0.00000000000E+00 -0.00000000000E+00 -0.40357840937E+04  0.40357840937E+04  0.00000000000E+00 0. -1.
         24    2    1    2    0    0  0.27906854011E+03 -0.29762251759E+03 -0.20620110087E+04  0.21034587150E+04  0.78681335785E+02 0.  0.
        254    2    1    2    0    0 -0.27906854011E+03  0.29762251759E+03 -0.18277645392E+04  0.20783339244E+04  0.90127147824E+03 0.  0.
         23    2    4    4    0    0  0.17723131885E+03 -0.61556942566E+01 -0.37975044520E+02  0.20413823023E+03  0.93709551710E+02 0.  0.
         23    2    4    4    0    0 -0.45629985896E+03  0.30377821185E+03 -0.17897894947E+04  0.18741956942E+04  0.93660565354E+02 0.  0.
          4    1    3    3  502    0  0.22263854498E+03 -0.24976819728E+03 -0.18158325201E+04  0.18464018564E+04  0.00000000000E+00 0. -1.
         -3    1    3    3    0  502  0.56429995131E+02 -0.47854320315E+02 -0.24617848862E+03  0.25705685865E+03  0.00000000000E+00 0.  1.
         13    1    5    5    0    0  0.44080289582E+01 -0.38081609510E+00 -0.30750985855E+02  0.31067649915E+02  0.00000000000E+00 0. -1.
        -13    1    5    5    0    0  0.17282328989E+03 -0.57748781615E+01 -0.72240586655E+01  0.17307058031E+03  0.00000000000E+00 0.  1.
          3    1    6    6  503    0 -0.46333007854E+02  0.11217027860E+01 -0.13631062930E+03  0.14397428067E+03  0.00000000000E+00 0. -1.
         -3    1    6    6    0  503 -0.40996685110E+03  0.30265650906E+03 -0.16534788654E+04  0.17302214135E+04  0.00000000000E+00 0.  1.
<mgrwt>
<rscale>  0 0.15352641E+04</rscale>
<asrwt>0</asrwt>
<pdfrwt beam="1">  1        2 0.62088990E+00 0.15352641E+04</pdfrwt>
<pdfrwt beam="2">  1       -1 0.22462852E-01 0.15352641E+04</pdfrwt>
<totfact> 0.60407779E+00</totfact>
</mgrwt>
</event>
<event>
12    7  0.1675873E-007  0.2728312E+04  0.7818608E-02  0.8325877E-01
         -1   -1    0    0    0  501 -0.00000000000E+00  0.00000000000E+00  0.95497062367E+03  0.95497062367E+03  0.00000000000E+00 0.  1.
          2   -1    0    0  501    0  0.00000000000E+00 -0.00000000000E+00 -0.19486690731E+04  0.19486690731E+04  0.00000000000E+00 0. -1.
         24    2    1    2    0    0  0.11705616843E+04  0.37696866152E+02 -0.10242859077E+03  0.11783911467E+04  0.80488308663E+02 0.  0.
        254    2    1    2    0    0 -0.11705616843E+04 -0.37696866152E+02 -0.89126985863E+03  0.17252485501E+04  0.90026934202E+03 0.  0.
         23    2    4    4    0    0 -0.11014092479E+03  0.80368640940E+02  0.15447686890E+03  0.22854730999E+03  0.98897058176E+02 0.  0.
         23    2    4    4    0    0 -0.10604207595E+04 -0.11806550709E+03 -0.10457467275E+04  0.14967012401E+04  0.89981847031E+02 0.  0.
          2    1    3    3  502    0  0.30539351414E+03  0.32063535407E+02 -0.54559469558E+02  0.31188139492E+03  0.00000000000E+00 0. -1.
         -1    1    3    3    0  502  0.86516817017E+03  0.56333307459E+01 -0.47869121217E+02  0.86650975174E+03  0.00000000000E+00 0.  1.
         13    1    5    5    0    0  0.12240082521E+02  0.10612209336E+02  0.51686371131E+02  0.54165667796E+02  0.00000000000E+00 0. -1.
        -13    1    5    5    0    0 -0.12238100731E+03  0.69756431604E+02  0.10279049777E+03  0.17438164219E+03  0.00000000000E+00 0.  1.
          1    1    6    6  503    0 -0.13339306404E+03 -0.27018735950E+02 -0.97092749806E+02  0.16718469934E+03  0.00000000000E+00 0. -1.
         -1    1    6    6    0  503 -0.92702769548E+03 -0.91046771142E+02 -0.94865397773E+03  0.13295165408E+04  0.00000000000E+00 0.  1.
<mgrwt>
<rscale>  0 0.27283121E+04</rscale>
<asrwt>0</asrwt>
<pdfrwt beam="1">  1        2 0.29979524E+00 0.27283121E+04</pdfrwt>
<pdfrwt beam="2">  1       -1 0.14691856E+00 0.27283121E+04</pdfrwt>
<totfact> 0.26213859E+00</totfact>
</mgrwt>
</event>
<event>
12    7  0.1675873E-007  0.1458176E+04  0.7818608E-02  0.8912752E-01
          2   -1    0    0  501    0  0.00000000000E+00  0.00000000000E+00  0.30213763934E+04  0.30213763934E+04  0.00000000000E+00 0. -1.
         -1   -1    0    0    0  501 -0.00000000000E+00 -0.00000000000E+00 -0.17593605889E+03  0.17593605889E+03  0.00000000000E+00 0.  1.
         24    2    1    2    0    0 -0.13003229813E+03  0.16339546356E+00  0.17907189131E+04  0.17972291427E+04  0.80311520480E+02 0.  0.
        254    2    1    2    0    0  0.13003229813E+03 -0.16339546356E+00  0.10547214214E+04  0.14000833096E+04  0.91153034606E+03 0.  0.
         23    2    4    4    0    0  0.32776309985E+02 -0.37006985561E+03  0.14479556308E+03  0.40854503701E+03  0.88979254043E+02 0.  0.
         23    2    4    4    0    0  0.97255988145E+02  0.36990646015E+03  0.90992585830E+03  0.99153827257E+03  0.94305683187E+02 0.  0.
          4    1    3    3  502    0 -0.12550858751E+03 -0.45077810466E+01  0.12150152157E+04  0.12214887228E+04  0.00000000000E+00 0. -1.
         -3    1    3    3    0  502 -0.45237106148E+01  0.46711765101E+01  0.57570369737E+03  0.57574041982E+03  0.00000000000E+00 0.  1.
         13    1    5    5    0    0  0.60854687093E+02 -0.30245114860E+03  0.11062038872E+03  0.32774511534E+03  0.00000000000E+00 0.  1.
        -13    1    5    5    0    0 -0.28078377109E+02 -0.67618707009E+02  0.34175174361E+02  0.80799921666E+02  0.00000000000E+00 0. -1.
          2    1    6    6  503    0  0.51632457771E+02  0.69192085615E+02  0.26009570712E+03  0.27404968942E+03  0.00000000000E+00 0. -1.
         -2    1    6    6    0  503  0.45623530374E+02  0.30071437453E+03  0.64983015117E+03  0.71748858315E+03  0.00000000000E+00 0.  1.
<mgrwt>
<rscale>  0 0.14581756E+04</rscale>
<asrwt>0</asrwt>
<pdfrwt beam="1">  1        2 0.46482710E+00 0.14581756E+04</pdfrwt>
<pdfrwt beam="2">  1       -1 0.27067088E-01 0.14581756E+04</pdfrwt>
<totfact> 0.22943645E+01</totfact>
</mgrwt>
</event>
<event>
12    7  0.1675873E-007  0.1332374E+04  0.7818608E-02  0.9004279E-01
          2   -1    0    0  501    0  0.00000000000E+00  0.00000000000E+00  0.66254212543E+03  0.66254212543E+03  0.00000000000E+00 0. -1.
         -1   -1    0    0    0  501 -0.00000000000E+00 -0.00000000000E+00 -0.66985203319E+03  0.66985203319E+03  0.00000000000E+00 0.  1.
         24    2    1    2    0    0  0.34918328304E+03 -0.37140226606E+02 -0.46835511569E+02  0.36323715133E+03  0.80245257644E+02 0.  0.
        254    2    1    2    0    0 -0.34918328304E+03  0.37140226606E+02  0.39525603804E+02  0.96915700729E+03  0.90243818062E+03 0.  0.
         23    2    4    4    0    0  0.20220423904E+03  0.11545297545E+03  0.26113434379E+03  0.36268089296E+03  0.95552816731E+02 0.  0.
         23    2    4    4    0    0 -0.55138752208E+03 -0.78312748839E+02 -0.22160873999E+03  0.60647611433E+03  0.92421628839E+02 0.  0.
          4    1    3    3  502    0  0.34461778934E+03 -0.47732523476E+02 -0.49465835180E+02  0.35140672074E+03  0.00000000000E+00 0. -1.
         -3    1    3    3    0  502  0.45654936976E+01  0.10592296870E+02  0.26303236110E+01  0.11830430592E+02  0.00000000000E+00 0.  1.
         13    1    5    5    0    0  0.32384518591E+01 -0.11171926846E+02  0.31214028870E+02  0.33310885881E+02  0.00000000000E+00 0. -1.
        -13    1    5    5    0    0  0.19896578718E+03  0.12662490229E+03  0.22992031492E+03  0.32937000708E+03  0.00000000000E+00 0.  1.
          2    1    6    6  503    0 -0.15419023179E+03 -0.58847256004E+02 -0.43090237946E+02  0.17057079388E+03  0.00000000000E+00 0. -1.
         -2    1    6    6    0  503 -0.39719729029E+03 -0.19465492836E+02 -0.17851850204E+03  0.43590532045E+03  0.00000000000E+00 0.  1.
<mgrwt>
<rscale>  0 0.13323741E+04</rscale>
<asrwt>0</asrwt>
<pdfrwt beam="1">  1        2 0.10192956E+00 0.13323741E+04</pdfrwt>
<pdfrwt beam="2">  1       -1 0.10305416E+00 0.13323741E+04</pdfrwt>
<totfact> 0.43642798E+01</totfact>
</mgrwt>
</event>
<event>
12    7  0.1675873E-007  0.1181895E+04  0.7818608E-02  0.9128853E-01
         -1   -1    0    0    0  501 -0.00000000000E+00  0.00000000000E+00  0.19532096469E+03  0.19532096469E+03  0.00000000000E+00 0.  1.
          2   -1    0    0  501    0  0.00000000000E+00 -0.00000000000E+00 -0.17879236416E+04  0.17879236416E+04  0.00000000000E+00 0. -1.
         24    2    1    2    0    0 -0.16010707333E+02 -0.12434057076E+03 -0.73088260079E+03  0.74578580657E+03  0.79310609969E+02 0.  0.
        254    2    1    2    0    0  0.16010707333E+02  0.12434057076E+03 -0.86172007615E+03  0.12374587997E+04  0.87921889831E+03 0.  0.
         23    2    4    4    0    0  0.34730748680E+03  0.59664969467E+02 -0.80485892421E+03  0.88323646921E+03  0.90146401371E+02 0.  0.
         23    2    4    4    0    0 -0.33129677946E+03  0.64675601294E+02 -0.56861151933E+02  0.35422233054E+03  0.91103124924E+02 0.  0.
          4    1    3    3  502    0 -0.37971919174E+02 -0.10418350784E+03 -0.45587990554E+03  0.46917220530E+03  0.00000000000E+00 0. -1.
         -3    1    3    3    0  502  0.21961211841E+02 -0.20157062922E+02 -0.27500269526E+03  0.27661360127E+03  0.00000000000E+00 0.  1.
         13    1    5    5    0    0  0.63576286002E+02  0.45235298633E+02 -0.20974233142E+03  0.22378566079E+03  0.00000000000E+00 0. -1.
        -13    1    5    5    0    0  0.28373120079E+03  0.14429670834E+02 -0.59511659279E+03  0.65945080842E+03  0.00000000000E+00 0.  1.
          4    1    6    6  503    0 -0.47855381674E+01 -0.48538145941E+01 -0.16632474999E+02  0.17974985849E+02  0.00000000000E+00 0. -1.
         -4    1    6    6    0  503 -0.32651124130E+03  0.69529415888E+02 -0.40228676934E+02  0.33624734469E+03  0.00000000000E+00 0.  1.
<mgrwt>
<rscale>  0 0.11818950E+04</rscale>
<asrwt>0</asrwt>
<pdfrwt beam="1">  1        2 0.27506516E+00 0.11818950E+04</pdfrwt>
<pdfrwt beam="2">  1       -1 0.30049381E-01 0.11818950E+04</pdfrwt>
<totfact> 0.10036634E+02</totfact>
</mgrwt>
</event>
<event>
12    7  0.1675873E-007  0.1859197E+04  0.7818608E-02  0.8675438E-01
         -1   -1    0    0    0  501 -0.00000000000E+00  0.00000000000E+00  0.26132356059E+04  0.26132356059E+04  0.00000000000E+00 0.  1.
          2   -1    0    0  501    0  0.00000000000E+00 -0.00000000000E+00 -0.33068323361E+03  0.33068323361E+03  0.00000000000E+00 0. -1.
         24    2    1    2    0    0 -0.60984529857E+03  0.12427930446E+03  0.14210525337E+04  0.15533761426E+04  0.78933535879E+02 0.  0.
        254    2    1    2    0    0  0.60984529857E+03 -0.12427930446E+03  0.86149983864E+03  0.13905426970E+04  0.89669971921E+03 0.  0.
         23    2    4    4    0    0  0.12364549946E+03 -0.19636142826E+01 -0.17673415403E+03  0.23398779439E+03  0.90682200054E+02 0.  0.
         23    2    4    4    0    0  0.48619979911E+03 -0.12231569018E+03  0.10382339927E+04  0.11565549026E+04  0.91312903922E+02 0.  0.
          4    1    3    3  502    0 -0.49139873247E+02  0.18870555217E+02  0.17854835987E+03  0.18614602281E+03  0.00000000000E+00 0. -1.
         -3    1    3    3    0  502 -0.56070542532E+03  0.10540874925E+03  0.12425041738E+04  0.13672301198E+04  0.00000000000E+00 0.  1.
         13    1    5    5    0    0  0.32495633118E+02 -0.24040110748E+02 -0.83910918254E+01  0.41283211098E+02  0.00000000000E+00 0. -1.
        -13    1    5    5    0    0  0.91149866337E+02  0.22076496466E+02 -0.16834306221E+03  0.19270458329E+03  0.00000000000E+00 0.  1.
          3    1    6    6  503    0  0.15311214805E+03 -0.14411551633E+02  0.40078168619E+03  0.42927494999E+03  0.00000000000E+00 0. -1.
         -3    1    6    6    0  503  0.33308765106E+03 -0.10790413855E+03  0.63745230648E+03  0.72727995259E+03  0.00000000000E+00 0.  1.
<mgrwt>
<rscale>  0 0.18591968E+04</rscale>
<asrwt>0</asrwt>
<pdfrwt beam="1">  1        2 0.50874345E-01 0.18591968E+04</pdfrwt>
<pdfrwt beam="2">  1       -1 0.40203623E+00 0.18591968E+04</pdfrwt>
<totfact> 0.73513818E-01</totfact>
</mgrwt>
</event>
<event>
12    7  0.1675873E-007  0.2510921E+04  0.7818608E-02  0.8399105E-01
          2   -1    0    0  501    0  0.00000000000E+00  0.00000000000E+00  0.88707109268E+03  0.88707109268E+03  0.00000000000E+00 0. -1.
         -1   -1    0    0    0  501 -0.00000000000E+00 -0.00000000000E+00 -0.17768372374E+04  0.17768372374E+04  0.00000000000E+00 0.  1.
         24    2    1    2    0    0  0.80354193561E+02  0.23359234239E+03 -0.15177802389E+04  0.15397237651E+04  0.77911746327E+02 0.  0.
        254    2    1    2    0    0 -0.80354193561E+02 -0.23359234239E+03  0.62801409421E+03  0.11241845650E+04  0.89909235055E+03 0.  0.
         23    2    4    4    0    0  0.16601225178E+03  0.16200056123E+03 -0.89216841216E+02  0.26400761121E+03  0.89084928225E+02 0.  0.
         23    2    4    4    0    0 -0.24636644535E+03 -0.39559290362E+03  0.71723093543E+03  0.86017695380E+03  0.91071435282E+02 0.  0.
          2    1    3    3  502    0 -0.12311397667E+02  0.25228384121E+02 -0.25273451955E+03  0.25428877138E+03  0.00000000000E+00 0. -1.
         -1    1    3    3    0  502  0.92665591228E+02  0.20836395827E+03 -0.12650457194E+04  0.12854349937E+04  0.00000000000E+00 0.  1.
         13    1    5    5    0    0  0.98488596589E+02  0.86283806568E+02 -0.95952689837E+02  0.16233242936E+03  0.00000000000E+00 0.  1.
        -13    1    5    5    0    0  0.67523655196E+02  0.75716754662E+02  0.67358486205E+01  0.10167518185E+03  0.00000000000E+00 0. -1.
          4    1    6    6  503    0 -0.13458092491E+03 -0.18502931020E+03  0.42839792307E+03  0.48566722298E+03  0.00000000000E+00 0.  1.
         -4    1    6    6    0  503 -0.11178552043E+03 -0.21056359342E+03  0.28883301236E+03  0.37450973082E+03  0.00000000000E+00 0. -1.
<mgrwt>
<rscale>  0 0.25109209E+04</rscale>
<asrwt>0</asrwt>
<pdfrwt beam="1">  1        2 0.13647248E+00 0.25109209E+04</pdfrwt>
<pdfrwt beam="2">  1       -1 0.27335957E+00 0.25109209E+04</pdfrwt>
<totfact> 0.14940800E+00</totfact>
</mgrwt>
</event>
<event>
12    7  0.1675873E-007  0.2105264E+04  0.7818608E-02  0.8558928E-01
         -1   -1    0    0    0  501 -0.00000000000E+00  0.00000000000E+00  0.47929223180E+03  0.47929223180E+03  0.00000000000E+00 0.  1.
          2   -1    0    0  501    0  0.00000000000E+00 -0.00000000000E+00 -0.23118137904E+04  0.23118137904E+04  0.00000000000E+00 0. -1.
         24    2    1    2    0    0 -0.59917358306E+02  0.85301111209E+03 -0.82082687844E+03  0.11881873408E+04  0.82549047752E+02 0.  0.
        254    2    1    2    0    0  0.59917358306E+02 -0.85301111209E+03 -0.10116946801E+04  0.16029186814E+04  0.90255422335E+03 0.  0.
         23    2    4    4    0    0 -0.38081799245E+03 -0.56289096219E+03 -0.71581505409E+03  0.99124130827E+03  0.91101925626E+02 0.  0.
         23    2    4    4    0    0  0.44073535076E+03 -0.29012014990E+03 -0.29587962602E+03  0.61167737309E+03  0.90482621892E+02 0.  0.
          4    1    3    3  502    0 -0.46914651703E+02  0.81278788325E+03 -0.75744534837E+03  0.11120020609E+04  0.00000000000E+00 0. -1.
         -3    1    3    3    0  502 -0.13002706602E+02  0.40223228843E+02 -0.63381530073E+02  0.76185279890E+02  0.00000000000E+00 0.  1.
         13    1    5    5    0    0 -0.17034723656E+03 -0.19027777405E+03 -0.22845430612E+03  0.34265898834E+03  0.00000000000E+00 0. -1.
        -13    1    5    5    0    0 -0.21047075589E+03 -0.37261318814E+03 -0.48736074797E+03  0.64858231993E+03  0.00000000000E+00 0.  1.
          1    1    6    6  503    0  0.24256173557E+03 -0.21148611307E+03 -0.18858569788E+03  0.37299750271E+03  0.00000000000E+00 0. -1.
         -1    1    6    6    0  503  0.19817361519E+03 -0.78634036826E+02 -0.10729392814E+03  0.23867987037E+03  0.00000000000E+00 0.  1.
<mgrwt>
<rscale>  0 0.21052643E+04</rscale>
<asrwt>0</asrwt>
<pdfrwt beam="1">  1        2 0.35566367E+00 0.21052643E+04</pdfrwt>
<pdfrwt beam="2">  1       -1 0.73737265E-01 0.21052643E+04</pdfrwt>
<totfact> 0.86708823E+00</totfact>
</mgrwt>
</event>
<event>
12    7  0.1675873E-007  0.1676588E+04  0.7818608E-02  0.8774831E-01
          2   -1    0    0  501    0  0.00000000000E+00  0.00000000000E+00  0.81000778253E+03  0.81000778253E+03  0.00000000000E+00 0. -1.
         -1   -1    0    0    0  501 -0.00000000000E+00 -0.00000000000E+00 -0.86756799471E+03  0.86756799471E+03  0.00000000000E+00 0.  1.
         24    2    1    2    0    0 -0.13575508975E+03  0.46154545493E+03  0.27088973140E+03  0.55715183041E+03  0.74721243237E+02 0.  0.
        254    2    1    2    0    0  0.13575508975E+03 -0.46154545493E+03 -0.32844994358E+03  0.11204239468E+04  0.95708766779E+03 0.  0.
         23    2    4    4    0    0  0.54144193637E+03 -0.24749290736E+03 -0.15548567491E+03  0.62102399763E+03  0.84159971939E+02 0.  0.
         23    2    4    4    0    0 -0.40568684663E+03 -0.21405254757E+03 -0.17296426867E+03  0.49939994920E+03  0.95306664907E+02 0.  0.
          2    1    3    3  502    0 -0.11630824208E+03  0.35490734627E+03  0.24179746549E+03  0.44491892063E+03  0.00000000000E+00 0. -1.
         -1    1    3    3    0  502 -0.19446847667E+02  0.10663810866E+03  0.29092265909E+02  0.11223290978E+03  0.00000000000E+00 0.  1.
         13    1    5    5    0    0  0.57565024321E+01  0.62458409326E+01 -0.26061147088E+01  0.88848006776E+01  0.00000000000E+00 0. -1.
        -13    1    5    5    0    0  0.53568543394E+03 -0.25373874830E+03 -0.15287956020E+03  0.61213919696E+03  0.00000000000E+00 0.  1.
          3    1    6    6  503    0 -0.17615591800E+02  0.71339017234E+01 -0.19147161522E+02  0.26978054463E+02  0.00000000000E+00 0. -1.
         -3    1    6    6    0  503 -0.38807125483E+03 -0.22118644929E+03 -0.15381710715E+03  0.47242189474E+03  0.00000000000E+00 0.  1.
<mgrwt>
<rscale>  0 0.16765880E+04</rscale>
<asrwt>0</asrwt>
<pdfrwt beam="1">  1        2 0.12461658E+00 0.16765880E+04</pdfrwt>
<pdfrwt beam="2">  1       -1 0.13347200E+00 0.16765880E+04</pdfrwt>
<totfact> 0.17488393E+01</totfact>
</mgrwt>
</event>
<event>
12    7  0.2058174E-007  0.1833241E+04  0.7818608E-02  0.8688820E-01
          2   -1    0    0  501    0  0.00000000000E+00  0.00000000000E+00  0.17197295962E+04  0.17197295962E+04  0.00000000000E+00 0. -1.
         -1   -1    0    0    0  501 -0.00000000000E+00 -0.00000000000E+00 -0.48856092584E+03  0.48856092584E+03  0.00000000000E+00 0.  1.
         24    2    1    2    0    0  0.48254177162E+03 -0.16276888301E+01 -0.15976210032E+03  0.51454702928E+03  0.79909360596E+02 0.  0.
        254    2    1    2    0    0 -0.48254177162E+03  0.16276888301E+01  0.13909307707E+04  0.16937434928E+04  0.83739441109E+03 0.  0.
         23    2    4    4    0    0 -0.52156375146E+03  0.32839400377E+03  0.93794573859E+03  0.11261015679E+04  0.92147512332E+02 0.  0.
         23    2    4    4    0    0  0.39021979841E+02 -0.32676631494E+03  0.45298503209E+03  0.56764192491E+03  0.93396874297E+02 0.  0.
          2    1    3    3  502    0  0.65679230515E+02 -0.11455138154E+02  0.34611808055E+01  0.66760476959E+02  0.00000000000E+00 0. -1.
         -1    1    3    3    0  502  0.41686254110E+03  0.98274493244E+01 -0.16322328112E+03  0.44778655232E+03  0.00000000000E+00 0.  1.
         13    1    5    5    0    0 -0.45349412733E+03  0.24468538797E+03  0.77453418386E+03  0.93028547478E+03  0.00000000000E+00 0. -1.
        -13    1    5    5    0    0 -0.68069624127E+02  0.83708615801E+02  0.16341155473E+03  0.19581609307E+03  0.00000000000E+00 0.  1.
          4    1    6    6  503    0 -0.57477732805E+01 -0.24905940636E+02  0.57243125299E+01  0.26193711661E+02  0.00000000000E+00 0.  1.
         -4    1    6    6    0  503  0.44769753122E+02 -0.30186037431E+03  0.44726071956E+03  0.54144821325E+03  0.00000000000E+00 0. -1.
<mgrwt>
<rscale>  0 0.18332405E+04</rscale>
<asrwt>0</asrwt>
<pdfrwt beam="1">  1        2 0.26457378E+00 0.18332405E+04</pdfrwt>
<pdfrwt beam="2">  1       -1 0.75163220E-01 0.18332405E+04</pdfrwt>
<totfact> 0.18251029E+01</totfact>
</mgrwt>
</event>
<event>
12    7  0.1675873E-007  0.1705810E+04  0.7818608E-02  0.8758057E-01
         -1   -1    0    0    0  501 -0.00000000000E+00  0.00000000000E+00  0.23046506189E+03  0.23046506189E+03  0.00000000000E+00 0.  1.
          2   -1    0    0  501    0  0.00000000000E+00 -0.00000000000E+00 -0.31564320495E+04  0.31564320495E+04  0.00000000000E+00 0. -1.
         24    2    1    2    0    0 -0.28433627404E+03  0.51263437556E+03 -0.15285173361E+04  0.16390428407E+04  0.80343431768E+02 0.  0.
        254    2    1    2    0    0  0.28433627404E+03 -0.51263437556E+03 -0.13974496515E+04  0.17478542707E+04  0.87091211007E+03 0.  0.
         23    2    4    4    0    0  0.28326247048E+03 -0.73942051253E+03 -0.11565387352E+04  0.14045938212E+04  0.91222995416E+02 0.  0.
         23    2    4    4    0    0  0.10738035577E+01  0.22678613698E+03 -0.24091091628E+03  0.34326044954E+03  0.91414231160E+02 0.  0.
          4    1    3    3  502    0 -0.25796502826E+03  0.47553749540E+03 -0.14577637197E+04  0.15549138007E+04  0.00000000000E+00 0. -1.
         -3    1    3    3    0  502 -0.26371245771E+02  0.37096880157E+02 -0.70753616460E+02  0.84129039952E+02  0.00000000000E+00 0.  1.
         13    1    5    5    0    0  0.27238670874E+03 -0.62376336448E+03 -0.10000317574E+04  0.12096854011E+04  0.00000000000E+00 0.  1.
        -13    1    5    5    0    0  0.10875761739E+02 -0.11565714805E+03 -0.15650697785E+03  0.19490842005E+03  0.00000000000E+00 0. -1.
          3    1    6    6  503    0 -0.21895553843E+02  0.94227993656E+01 -0.38953201525E+02  0.45667891729E+02  0.00000000000E+00 0. -1.
         -3    1    6    6    0  503  0.22969357400E+02  0.21736333761E+03 -0.20195771475E+03  0.29759255781E+03  0.00000000000E+00 0.  1.
<mgrwt>
<rscale>  0 0.17058104E+04</rscale>
<asrwt>0</asrwt>
<pdfrwt beam="1">  1        2 0.48560493E+00 0.17058104E+04</pdfrwt>
<pdfrwt beam="2">  1       -1 0.35456163E-01 0.17058104E+04</pdfrwt>
<totfact> 0.11433939E+01</totfact>
</mgrwt>
</event>
<event>
12    7  0.1675873E-007  0.1819521E+04  0.7818608E-02  0.8695987E-01
         -1   -1    0    0    0  501 -0.00000000000E+00  0.00000000000E+00  0.71401290572E+03  0.71401290572E+03  0.00000000000E+00 0.  1.
          2   -1    0    0  501    0  0.00000000000E+00 -0.00000000000E+00 -0.11591731135E+04  0.11591731135E+04  0.00000000000E+00 0. -1.
         24    2    1    2    0    0  0.38581123165E+03  0.56489165536E+03 -0.19210412456E+03  0.71464979725E+03  0.76599277156E+02 0.  0.
        254    2    1    2    0    0 -0.38581123165E+03 -0.56489165536E+03 -0.25305608320E+03  0.11585362219E+04  0.90011994065E+03 0.  0.
         23    2    4    4    0    0 -0.45407739528E+03  0.41415997063E+02  0.55699701107E+02  0.46877624970E+03  0.93526198826E+02 0.  0.
         23    2    4    4    0    0  0.68266163624E+02 -0.60630765243E+03 -0.30875578431E+03  0.68975997225E+03  0.90384990371E+02 0.  0.
          2    1    3    3  502    0  0.26396340378E+03  0.41544234381E+03 -0.10610391100E+03  0.50351470633E+03  0.00000000000E+00 0. -1.
         -1    1    3    3    0  502  0.12184782787E+03  0.14944931155E+03 -0.86000213566E+02  0.21113509091E+03  0.00000000000E+00 0.  1.
         13    1    5    5    0    0 -0.28739431687E+03  0.71251553456E+02  0.37911879612E+02  0.29851229096E+03  0.00000000000E+00 0.  1.
        -13    1    5    5    0    0 -0.16668307841E+03 -0.29835556393E+02  0.17787821494E+02  0.17026395874E+03  0.00000000000E+00 0. -1.
          1    1    6    6  503    0  0.14526884748E+02 -0.11183413145E+02 -0.16090096742E+02  0.24392423480E+02  0.00000000000E+00 0. -1.
         -1    1    6    6    0  503  0.53739278876E+02 -0.59512423928E+03 -0.29266568756E+03  0.66536754877E+03  0.00000000000E+00 0.  1.
<mgrwt>
<rscale>  0 0.18195214E+04</rscale>
<asrwt>0</asrwt>
<pdfrwt beam="1">  1        2 0.17833432E+00 0.18195214E+04</pdfrwt>
<pdfrwt beam="2">  1       -1 0.10984814E+00 0.18195214E+04</pdfrwt>
<totfact> 0.16498798E+01</totfact>
</mgrwt>
</event>
<event>
12    7  0.1675873E-007  0.2250686E+04  0.7818608E-02  0.8497623E-01
         -1   -1    0    0    0  501 -0.00000000000E+00  0.00000000000E+00  0.12279366461E+04  0.12279366461E+04  0.00000000000E+00 0.  1.
          2   -1    0    0  501    0  0.00000000000E+00 -0.00000000000E+00 -0.10313207689E+04  0.10313207689E+04  0.00000000000E+00 0. -1.
         24    2    1    2    0    0 -0.30813371955E+03  0.43699592347E+03 -0.68977136014E+03  0.87641792359E+03  0.80075097709E+02 0.  0.
        254    2    1    2    0    0  0.30813371955E+03 -0.43699592347E+03  0.88638723729E+03  0.13828394915E+04  0.91687016444E+03 0.  0.
         23    2    4    4    0    0  0.21793848126E+03 -0.35091045734E+03 -0.55925008770E+02  0.42769786105E+03  0.95721069056E+02 0.  0.
         23    2    4    4    0    0  0.90195238291E+02 -0.86085466134E+02  0.94231224606E+03  0.95514163040E+03  0.93793798138E+02 0.  0.
          4    1    3    3  502    0 -0.19732225218E+03  0.21390651817E+03 -0.39141494077E+03  0.48774760438E+03  0.00000000000E+00 0. -1.
         -3    1    3    3    0  502 -0.11081146737E+03  0.22308940530E+03 -0.29835641936E+03  0.38867031921E+03  0.00000000000E+00 0.  1.
         13    1    5    5    0    0  0.18386407110E+03 -0.21028575667E+03 -0.37033510313E+02  0.28177575656E+03  0.00000000000E+00 0.  1.
        -13    1    5    5    0    0  0.34074410162E+02 -0.14062470067E+03 -0.18891498456E+02  0.14592210450E+03  0.00000000000E+00 0. -1.
          2    1    6    6  503    0  0.20393618410E+02 -0.58596869620E+02  0.66411596907E+03  0.66700788089E+03  0.00000000000E+00 0.  1.
         -2    1    6    6    0  503  0.69801619881E+02 -0.27488596514E+02  0.27819627699E+03  0.28813374951E+03  0.00000000000E+00 0. -1.
<mgrwt>
<rscale>  0 0.22506857E+04</rscale>
<asrwt>0</asrwt>
<pdfrwt beam="1">  1        2 0.15866473E+00 0.22506857E+04</pdfrwt>
<pdfrwt beam="2">  1       -1 0.18891333E+00 0.22506857E+04</pdfrwt>
<totfact> 0.44900674E+00</totfact>
</mgrwt>
</event>
<event>
12    7  0.1675873E-007  0.2931947E+04  0.7818608E-02  0.8263435E-01
          2   -1    0    0  501    0  0.00000000000E+00  0.00000000000E+00  0.13829261163E+04  0.13829261163E+04  0.00000000000E+00 0. -1.
         -1   -1    0    0    0  501 -0.00000000000E+00 -0.00000000000E+00 -0.15540081025E+04  0.15540081025E+04  0.00000000000E+00 0.  1.
         24    2    1    2    0    0 -0.10298848042E+03 -0.19845670840E+03 -0.13885041056E+04  0.14085737680E+04  0.78388241121E+02 0.  0.
        254    2    1    2    0    0  0.10298848042E+03  0.19845670840E+03  0.12174221194E+04  0.15283604509E+04  0.89653631203E+03 0.  0.
         23    2    4    4    0    0  0.26286515889E+03  0.15731585047E+03  0.23729868855E+02  0.31967156323E+03  0.88206763351E+02 0.  0.
         23    2    4    4    0    0 -0.15987667847E+03  0.41140857936E+02  0.11936922506E+04  0.12086888877E+04  0.93672384291E+02 0.  0.
          4    1    3    3  502    0 -0.17211396718E+02 -0.14239687473E+02 -0.50411679418E+02  0.55139262763E+02  0.00000000000E+00 0. -1.
         -3    1    3    3    0  502 -0.85777083698E+02 -0.18421702093E+03 -0.13380924262E+04  0.13534345052E+04  0.00000000000E+00 0.  1.
         13    1    5    5    0    0  0.87893787922E+02  0.94032009470E+02  0.34621235297E+02  0.13328903441E+03  0.00000000000E+00 0. -1.
        -13    1    5    5    0    0  0.17497137096E+03  0.63283840996E+02 -0.10891366442E+02  0.18638252883E+03  0.00000000000E+00 0.  1.
          2    1    6    6  503    0  0.99920352608E+01 -0.43514320408E+00  0.15959953254E+03  0.15991260396E+03  0.00000000000E+00 0. -1.
         -2    1    6    6    0  503 -0.16986871373E+03  0.41576001140E+02  0.10340927180E+04  0.10487762837E+04  0.00000000000E+00 0.  1.
<mgrwt>
<rscale>  0 0.29319471E+04</rscale>
<asrwt>0</asrwt>
<pdfrwt beam="1">  1        2 0.21275787E+00 0.29319471E+04</pdfrwt>
<pdfrwt beam="2">  1       -1 0.23907817E+00 0.29319471E+04</pdfrwt>
<totfact> 0.11929780E+00</totfact>
</mgrwt>
</event>
<event>
12    7  0.1675873E-007  0.1372212E+04  0.7818608E-02  0.8974182E-01
          2   -1    0    0  501    0  0.00000000000E+00  0.00000000000E+00  0.22908827351E+04  0.22908827351E+04  0.00000000000E+00 0. -1.
         -1   -1    0    0    0  501 -0.00000000000E+00 -0.00000000000E+00 -0.20548469790E+03  0.20548469790E+03  0.00000000000E+00 0.  1.
         24    2    1    2    0    0  0.30893590337E+03  0.13089361391E+03  0.24930465694E+03  0.42540680256E+03  0.79016486546E+02 0.  0.
        254    2    1    2    0    0 -0.30893590337E+03 -0.13089361391E+03  0.18360933803E+04  0.20709606304E+04  0.89725386663E+03 0.  0.
         23    2    4    4    0    0  0.15344206533E+03 -0.25009521321E+03  0.13462519181E+04  0.13808023338E+04  0.90159719438E+02 0.  0.
         23    2    4    4    0    0 -0.46237796869E+03  0.11920159930E+03  0.48984146218E+03  0.69015829663E+03  0.91495404920E+02 0.  0.
          2    1    3    3  502    0  0.54010074189E+02 -0.74615507635E+01  0.35304447574E+02  0.64955114289E+02  0.00000000000E+00 0. -1.
         -1    1    3    3    0  502  0.25492582918E+03  0.13835516467E+03  0.21400020936E+03  0.36045168827E+03  0.00000000000E+00 0.  1.
         13    1    5    5    0    0  0.86875531875E+02 -0.20800172217E+03  0.10732599842E+04  0.10966763735E+04  0.00000000000E+00 0. -1.
        -13    1    5    5    0    0  0.66566533451E+02 -0.42093491040E+02  0.27299193387E+03  0.28412596031E+03  0.00000000000E+00 0.  1.
          1    1    6    6  503    0 -0.13924690567E+03  0.50664416874E+02  0.97949944194E+02  0.17762537950E+03  0.00000000000E+00 0. -1.
         -1    1    6    6    0  503 -0.32313106303E+03  0.68537182424E+02  0.39189151799E+03  0.51253291713E+03  0.00000000000E+00 0.  1.
<mgrwt>
<rscale>  0 0.13722119E+04</rscale>
<asrwt>0</asrwt>
<pdfrwt beam="1">  1        2 0.35244348E+00 0.13722119E+04</pdfrwt>
<pdfrwt beam="2">  1       -1 0.31613032E-01 0.13722119E+04</pdfrwt>
<totfact> 0.47520613E+01</totfact>
</mgrwt>
</event>
<event>
12    7  0.1675873E-007  0.2524419E+04  0.7818608E-02  0.8394337E-01
          2   -1    0    0  501    0  0.00000000000E+00  0.00000000000E+00  0.14544468886E+04  0.14544468886E+04  0.00000000000E+00 0. -1.
         -1   -1    0    0    0  501 -0.00000000000E+00 -0.00000000000E+00 -0.10953807442E+04  0.10953807442E+04  0.00000000000E+00 0.  1.
         24    2    1    2    0    0 -0.10425247523E+04 -0.21392469732E+03 -0.13030097745E+03  0.10748350466E+04  0.75302040495E+02 0.  0.
        254    2    1    2    0    0  0.10425247523E+04  0.21392469732E+03  0.48936712181E+03  0.14749925862E+04  0.89638234811E+03 0.  0.
         23    2    4    4    0    0 -0.11627795120E+03 -0.15680347930E+02  0.20544405959E+03  0.25622175614E+03  0.98366109264E+02 0.  0.
         23    2    4    4    0    0  0.11588027035E+04  0.22960504525E+03  0.28392306223E+03  0.12187708300E+04  0.96165733917E+02 0.  0.
          4    1    3    3  502    0 -0.94476785717E+03 -0.19123023902E+03 -0.95633904972E+02  0.96865946134E+03  0.00000000000E+00 0. -1.
         -3    1    3    3    0  502 -0.97756895146E+02 -0.22694458300E+02 -0.34667072477E+02  0.10617558524E+03  0.00000000000E+00 0.  1.
         13    1    5    5    0    0 -0.80224456405E+02 -0.56689226854E+02  0.13926349093E+03  0.17042286159E+03  0.00000000000E+00 0. -1.
        -13    1    5    5    0    0 -0.36053494795E+02  0.41008878924E+02  0.66180568659E+02  0.85798894548E+02  0.00000000000E+00 0.  1.
          2    1    6    6  503    0  0.11475430551E+04  0.23700790518E+03  0.28080815836E+03  0.12049402608E+04  0.00000000000E+00 0. -1.
         -2    1    6    6    0  503  0.11259648455E+02 -0.74028599344E+01  0.31149038647E+01  0.13830569208E+02  0.00000000000E+00 0.  1.
<mgrwt>
<rscale>  0 0.25244192E+04</rscale>
<asrwt>0</asrwt>
<pdfrwt beam="1">  1        2 0.22376106E+00 0.25244192E+04</pdfrwt>
<pdfrwt beam="2">  1       -1 0.16852011E+00 0.25244192E+04</pdfrwt>
<totfact> 0.34465451E+00</totfact>
</mgrwt>
</event>
<event>
12    7  0.1675873E-007  0.6328937E+04  0.7818608E-02  0.7650904E-01
         -1   -1    0    0    0  501 -0.00000000000E+00  0.00000000000E+00  0.25015417169E+04  0.25015417169E+04  0.00000000000E+00 0.  1.
          2   -1    0    0  501    0  0.00000000000E+00 -0.00000000000E+00 -0.40030751286E+04  0.40030751286E+04  0.00000000000E+00 0. -1.
         24    2    1    2    0    0 -0.60481737687E+03 -0.21148189540E+04  0.15097718849E+04  0.26690768077E+04  0.79351075762E+02 0.  0.
        254    2    1    2    0    0  0.60481737687E+03  0.21148189540E+04 -0.30113052967E+04  0.38355400379E+04  0.89729845907E+03 0.  0.
         23    2    4    4    0    0 -0.58875282787E+02 -0.29161763948E+02 -0.67767591894E+02  0.13286934011E+03  0.93515280192E+02 0.  0.
         23    2    4    4    0    0  0.66369265966E+03  0.21439807179E+04 -0.29435377048E+04  0.37026706977E+04  0.90635595038E+02 0.  0.
          4    1    3    3  502    0 -0.18854999132E+03 -0.71479338711E+03  0.46610163542E+03  0.87391728443E+03  0.00000000000E+00 0. -1.
         -3    1    3    3    0  502 -0.41626738555E+03 -0.14000255669E+04  0.10436702495E+04  0.17951595232E+04  0.00000000000E+00 0.  1.
         13    1    5    5    0    0 -0.25372480406E+02  0.17246565866E+02  0.13459143138E+02  0.33501572055E+02  0.00000000000E+00 0.  1.
        -13    1    5    5    0    0 -0.33502802381E+02 -0.46408329814E+02 -0.81226735032E+02  0.99367768052E+02  0.00000000000E+00 0. -1.
          2    1    6    6  503    0  0.14010143075E+03  0.34501873109E+03 -0.50650642493E+03  0.62866135096E+03  0.00000000000E+00 0.  1.
         -2    1    6    6    0  503  0.52359122891E+03  0.17989619869E+04 -0.24370312798E+04  0.30740093468E+04  0.00000000000E+00 0. -1.
<mgrwt>
<rscale>  0 0.63289365E+04</rscale>
<asrwt>0</asrwt>
<pdfrwt beam="1">  1        2 0.61585770E+00 0.63289365E+04</pdfrwt>
<pdfrwt beam="2">  1       -1 0.38485258E+00 0.63289365E+04</pdfrwt>
<totfact> 0.22907491E-03</totfact>
</mgrwt>
</event>
<event>
12    7  0.1675873E-007  0.1514858E+04  0.7818608E-02  0.8874632E-01
          2   -1    0    0  501    0  0.00000000000E+00  0.00000000000E+00  0.14253161526E+04  0.14253161526E+04  0.00000000000E+00 0. -1.
         -1   -1    0    0    0  501 -0.00000000000E+00 -0.00000000000E+00 -0.40250609582E+03  0.40250609582E+03  0.00000000000E+00 0.  1.
         24    2    1    2    0    0  0.29835005870E+03 -0.26070552720E+03  0.66653023732E+03  0.77966277926E+03  0.81433179163E+02 0.  0.
        254    2    1    2    0    0 -0.29835005870E+03  0.26070552720E+03  0.35627981946E+03  0.10481594691E+04  0.90261998292E+03 0.  0.
         23    2    4    4    0    0 -0.47986373931E+03  0.47595120190E+03  0.31235999969E+03  0.74979450874E+03  0.88454966140E+02 0.  0.
         23    2    4    4    0    0  0.18151368061E+03 -0.21524567469E+03  0.43919819770E+02  0.29836496041E+03  0.88401257384E+02 0.  0.
          4    1    3    3  502    0  0.19422031004E+03 -0.20619203893E+03  0.51650118228E+03  0.58907568024E+03  0.00000000000E+00 0. -1.
         -1    1    3    3    0  502  0.10412974866E+03 -0.54513488275E+02  0.15002905504E+03  0.19058709902E+03  0.00000000000E+00 0.  1.
         13    1    5    5    0    0 -0.15705217255E+03  0.10607387026E+03  0.67457595884E+02  0.20116554898E+03  0.00000000000E+00 0. -1.
        -13    1    5    5    0    0 -0.32281156676E+03  0.36987733164E+03  0.24490240380E+03  0.54862895976E+03  0.00000000000E+00 0.  1.
          2    1    6    6  503    0  0.36203888015E+02 -0.14713860750E+01  0.10527949127E+02  0.37732269972E+02  0.00000000000E+00 0. -1.
         -2    1    6    6    0  503  0.14530979260E+03 -0.21377428862E+03  0.33391870643E+02  0.26063269044E+03  0.00000000000E+00 0.  1.
<mgrwt>
<rscale>  0 0.15148577E+04</rscale>
<asrwt>0</asrwt>
<pdfrwt beam="1">  1        2 0.21927941E+00 0.15148577E+04</pdfrwt>
<pdfrwt beam="2">  1       -1 0.61924015E-01 0.15148577E+04</pdfrwt>
<totfact> 0.40717870E+01</totfact>
</mgrwt>
</event>
<event>
12    7  0.1675873E-007  0.2666922E+04  0.7818608E-02  0.8345818E-01
          2   -1    0    0  501    0  0.00000000000E+00  0.00000000000E+00  0.94885772180E+03  0.94885772180E+03  0.00000000000E+00 0. -1.
         -1   -1    0    0    0  501 -0.00000000000E+00 -0.00000000000E+00 -0.18739568442E+04  0.18739568442E+04  0.00000000000E+00 0.  1.
         24    2    1    2    0    0  0.10291639273E+04 -0.57024214698E+03 -0.30218238071E+03  0.12171690742E+04  0.76366672009E+02 0.  0.
        254    2    1    2    0    0 -0.10291639273E+04  0.57024214698E+03 -0.62291674167E+03  0.16056454918E+04  0.89761778217E+03 0.  0.
         23    2    4    4    0    0 -0.52297864420E+03 -0.17262949332E+03 -0.36016580334E+03  0.66458206054E+03  0.92963998643E+02 0.  0.
         23    2    4    4    0    0 -0.50618528306E+03  0.74287164029E+03 -0.26275093832E+03  0.94106343124E+03  0.92089691549E+02 0.  0.
          2    1    3    3  502    0  0.37886027449E+02 -0.38598780628E+02 -0.17695202165E+02  0.56906389109E+02  0.00000000000E+00 0. -1.
         -1    1    3    3    0  502  0.99127789981E+03 -0.53164336635E+03 -0.28448717855E+03  0.11602626851E+04  0.00000000000E+00 0.  1.
         13    1    5    5    0    0 -0.23163681545E+03 -0.48552664116E+02 -0.19926691789E+03  0.30938694225E+03  0.00000000000E+00 0. -1.
        -13    1    5    5    0    0 -0.29134182874E+03 -0.12407682920E+03 -0.16089888545E+03  0.35519511829E+03  0.00000000000E+00 0.  1.
          1    1    6    6  503    0 -0.11305477241E+03  0.23923751770E+03 -0.84190603938E+02  0.27767612290E+03  0.00000000000E+00 0. -1.
         -1    1    6    6    0  503 -0.39313051066E+03  0.50363412260E+03 -0.17856033439E+03  0.66338730834E+03  0.00000000000E+00 0.  1.
<mgrwt>
<rscale>  0 0.26669221E+04</rscale>
<asrwt>0</asrwt>
<pdfrwt beam="1">  1        2 0.14597811E+00 0.26669221E+04</pdfrwt>
<pdfrwt beam="2">  1       -1 0.28830105E+00 0.26669221E+04</pdfrwt>
<totfact> 0.10725509E+00</totfact>
</mgrwt>
</event>
<event>
12    7  0.1675873E-007  0.2425907E+04  0.7818608E-02  0.8429867E-01
         -1   -1    0    0    0  501 -0.00000000000E+00  0.00000000000E+00  0.62814409872E+03  0.62814409872E+03  0.00000000000E+00 0.  1.
          2   -1    0    0  501    0  0.00000000000E+00 -0.00000000000E+00 -0.23422278754E+04  0.23422278754E+04  0.00000000000E+00 0. -1.
         24    2    1    2    0    0 -0.82044490326E+03  0.14162488114E+03  0.31447849837E+02  0.83698367857E+03  0.79782608951E+02 0.  0.
        254    2    1    2    0    0  0.82044490326E+03 -0.14162488114E+03 -0.17455316265E+04  0.21333882955E+04  0.90070945045E+03 0.  0.
         23    2    4    4    0    0 -0.48629620440E+02  0.24003272423E+03 -0.26301340179E+03  0.37065312250E+03  0.90703577699E+02 0.  0.
         23    2    4    4    0    0  0.86907452370E+03 -0.38165760537E+03 -0.14825182247E+04  0.17627351730E+04  0.91771172839E+02 0.  0.
          2    1    3    3  502    0 -0.29364795199E+02 -0.26967333598E+01  0.14035195430E+02  0.32658081368E+02  0.00000000000E+00 0. -1.
         -1    1    3    3    0  502 -0.79108010806E+03  0.14432161450E+03  0.17412654407E+02  0.80432559720E+03  0.00000000000E+00 0.  1.
         13    1    5    5    0    0 -0.48249721741E+02  0.20930303316E+03 -0.17381949033E+03  0.27631324716E+03  0.00000000000E+00 0. -1.
        -13    1    5    5    0    0 -0.37989869902E+00  0.30729691071E+02 -0.89193911460E+02  0.94339875333E+02  0.00000000000E+00 0.  1.
          2    1    6    6  503    0  0.83005991456E+03 -0.37534149234E+03 -0.14453321219E+04  0.17084687999E+04  0.00000000000E+00 0. -1.
         -2    1    6    6    0  503  0.39014609140E+02 -0.63161130326E+01 -0.37186102771E+02  0.54266373100E+02  0.00000000000E+00 0.  1.
<mgrwt>
<rscale>  0 0.24259074E+04</rscale>
<asrwt>0</asrwt>
<pdfrwt beam="1">  1        2 0.36034275E+00 0.24259074E+04</pdfrwt>
<pdfrwt beam="2">  1       -1 0.96637554E-01 0.24259074E+04</pdfrwt>
<totfact> 0.45106923E+00</totfact>
</mgrwt>
</event>
<event>
12    7  0.1675873E-007  0.1904678E+04  0.7818608E-02  0.8652531E-01
         -1   -1    0    0    0  501 -0.00000000000E+00  0.00000000000E+00  0.43335056033E+03  0.43335056033E+03  0.00000000000E+00 0.  1.
          2   -1    0    0  501    0  0.00000000000E+00 -0.00000000000E+00 -0.20928774214E+04  0.20928774214E+04  0.00000000000E+00 0. -1.
         24    2    1    2    0    0  0.31786033107E+02  0.56354348121E+03 -0.13955010535E+02  0.57018923398E+03  0.79557608750E+02 0.  0.
        254    2    1    2    0    0 -0.31786033107E+02 -0.56354348121E+03 -0.16455718505E+04  0.19560387477E+04  0.89419755102E+03 0.  0.
         23    2    4    4    0    0  0.18576070658E+03 -0.16035296725E+03 -0.16974051964E+02  0.26217089634E+03  0.90693694553E+02 0.  0.
         23    2    4    4    0    0 -0.21754673969E+03 -0.40319051396E+03 -0.16285977985E+04  0.16938678514E+04  0.83476547665E+02 0.  0.
          4    1    3    3  502    0 -0.21893133011E+02  0.79545737746E+02  0.67877521365E+01  0.82782288237E+02  0.00000000000E+00 0. -1.
         -3    1    3    3    0  502  0.53679166118E+02  0.48399774347E+03 -0.20742762671E+02  0.48740694575E+03  0.00000000000E+00 0.  1.
         13    1    5    5    0    0  0.17881624817E+03 -0.11754835815E+03  0.39351720647E+01  0.21402885948E+03  0.00000000000E+00 0. -1.
        -13    1    5    5    0    0  0.69444584108E+01 -0.42804609104E+02 -0.20909224029E+02  0.48142036856E+02  0.00000000000E+00 0.  1.
          3    1    6    6  503    0 -0.16109320036E+03 -0.26958074719E+03 -0.97336615164E+03  0.10227739064E+04  0.00000000000E+00 0. -1.
         -3    1    6    6    0  503 -0.56453539327E+02 -0.13360976678E+03 -0.65523164688E+03  0.67109394496E+03  0.00000000000E+00 0.  1.
<mgrwt>
<rscale>  0 0.19046780E+04</rscale>
<asrwt>0</asrwt>
<pdfrwt beam="1">  1        2 0.32198115E+00 0.19046780E+04</pdfrwt>
<pdfrwt beam="2">  1       -1 0.66669315E-01 0.19046780E+04</pdfrwt>
<totfact> 0.14410108E+01</totfact>
</mgrwt>
</event>
<event>
12    7  0.1675873E-007  0.2946908E+04  0.7818608E-02  0.8259056E-01
          2   -1    0    0  501    0  0.00000000000E+00  0.00000000000E+00  0.23453049580E+04  0.23453049580E+04  0.00000000000E+00 0. -1.
         -1   -1    0    0    0  501 -0.00000000000E+00 -0.00000000000E+00 -0.92570746349E+03  0.92570746349E+03  0.00000000000E+00 0.  1.
         24    2    1    2    0    0  0.44704876750E+03  0.88168057162E+03 -0.34890156033E+03  0.10512551937E+04  0.78688961043E+02 0.  0.
        254    2    1    2    0    0 -0.44704876750E+03 -0.88168057162E+03  0.17684990548E+04  0.22197572278E+04  0.90692889050E+03 0.  0.
         23    2    4    4    0    0  0.24171942954E+03 -0.37454779141E+03  0.82617328620E+03  0.94340844535E+03  0.93503290097E+02 0.  0.
         23    2    4    4    0    0 -0.68876819704E+03 -0.50713278021E+03  0.94232576861E+03  0.12763487824E+04  0.97483712238E+02 0.  0.
          4    1    3    3  502    0  0.13190418042E+03  0.29576658584E+03 -0.14977327634E+03  0.35680333577E+03  0.00000000000E+00 0. -1.
         -3    1    3    3    0  502  0.31514458708E+03  0.58591398578E+03 -0.19912828398E+03  0.69445185793E+03  0.00000000000E+00 0.  1.
         13    1    5    5    0    0  0.22320719284E+03 -0.35738991013E+03  0.71963123995E+03  0.83391733421E+03  0.00000000000E+00 0. -1.
        -13    1    5    5    0    0  0.18512236696E+02 -0.17157881284E+02  0.10654204625E+03  0.10949111113E+03  0.00000000000E+00 0.  1.
          4    1    6    6  503    0 -0.22972483377E+03 -0.12417309116E+03  0.32647383028E+03  0.41806413105E+03  0.00000000000E+00 0. -1.
         -4    1    6    6    0  503 -0.45904336328E+03 -0.38295968906E+03  0.61585193833E+03  0.85828465136E+03  0.00000000000E+00 0.  1.
<mgrwt>
<rscale>  0 0.29469077E+04</rscale>
<asrwt>0</asrwt>
<pdfrwt beam="1">  1        2 0.36081615E+00 0.29469077E+04</pdfrwt>
<pdfrwt beam="2">  1       -1 0.14241653E+00 0.29469077E+04</pdfrwt>
<totfact> 0.16731558E+00</totfact>
</mgrwt>
</event>
<event>
12    7  0.1675873E-007  0.2191381E+04  0.7818608E-02  0.8522024E-01
         -1   -1    0    0    0  501 -0.00000000000E+00  0.00000000000E+00  0.14888619513E+04  0.14888619513E+04  0.00000000000E+00 0.  1.
          2   -1    0    0  501    0  0.00000000000E+00 -0.00000000000E+00 -0.80634553521E+03  0.80634553521E+03  0.00000000000E+00 0. -1.
         24    2    1    2    0    0  0.49952909558E+03 -0.73645166566E+03  0.15826709103E+03  0.90782404832E+03  0.84886143860E+02 0.  0.
        254    2    1    2    0    0 -0.49952909558E+03  0.73645166566E+03  0.52424932501E+03  0.13873834381E+04  0.92633961185E+03 0.  0.
         23    2    4    4    0    0 -0.60002119087E+03  0.83326789911E+03  0.24095183649E+03  0.10585805808E+04  0.90411488590E+02 0.  0.
         23    2    4    4    0    0  0.10049209530E+03 -0.96816233446E+02  0.28329748852E+03  0.32880285739E+03  0.91552213215E+02 0.  0.
          2    1    3    3  502    0  0.32550880147E+03 -0.46381701995E+03  0.60119114066E+02  0.56982147705E+03  0.00000000000E+00 0. -1.
         -1    1    3    3    0  502  0.17402029411E+03 -0.27263464571E+03  0.98147976963E+02  0.33800257127E+03  0.00000000000E+00 0.  1.
         13    1    5    5    0    0 -0.29296522865E+02  0.82657641228E+02  0.15424739257E+02  0.89042093902E+02  0.00000000000E+00 0. -1.
        -13    1    5    5    0    0 -0.57072466801E+03  0.75061025788E+03  0.22552709723E+03  0.96953848686E+03  0.00000000000E+00 0.  1.
          1    1    6    6  503    0 -0.44878597030E+01 -0.24023896885E+01  0.86212455966E+02  0.86362607213E+02  0.00000000000E+00 0. -1.
         -1    1    6    6    0  503  0.10497995500E+03 -0.94413843758E+02  0.19708503256E+03  0.24244025017E+03  0.00000000000E+00 0.  1.
<mgrwt>
<rscale>  0 0.21913806E+04</rscale>
<asrwt>0</asrwt>
<pdfrwt beam="1">  1        2 0.12405316E+00 0.21913806E+04</pdfrwt>
<pdfrwt beam="2">  1       -1 0.22905568E+00 0.21913806E+04</pdfrwt>
<totfact> 0.34062168E+00</totfact>
</mgrwt>
</event>
<event>
12    7  0.1675873E-007  0.1036191E+04  0.7818608E-02  0.9269718E-01
         -3   -1    0    0    0  501 -0.00000000000E+00  0.00000000000E+00  0.35251446764E+03  0.35251446764E+03  0.00000000000E+00 0.  1.
          4   -1    0    0  501    0  0.00000000000E+00 -0.00000000000E+00 -0.76145208067E+03  0.76145208067E+03  0.00000000000E+00 0. -1.
         24    2    1    2    0    0  0.86306995603E+02 -0.48982796709E+02 -0.95878416611E+01  0.12654719807E+03  0.77936222445E+02 0.  0.
        254    2    1    2    0    0 -0.86306995603E+02  0.48982796709E+02 -0.39934977137E+03  0.98741935023E+03  0.89759039737E+03 0.  0.
         23    2    4    4    0    0  0.19326381874E+03 -0.33835610438E+03 -0.81456754090E+02  0.40658585007E+03  0.82710904241E+02 0.  0.
         23    2    4    4    0    0 -0.27957081434E+03  0.38733890109E+03 -0.31789301728E+03  0.58083350016E+03  0.90112817874E+02 0.  0.
          2    1    3    3  502    0  0.26781713373E+01  0.17402016657E+02 -0.89947010827E+01  0.19771379137E+02  0.00000000000E+00 0. -1.
         -1    1    3    3    0  502  0.83628824265E+02 -0.66384813366E+02 -0.59314057839E+00  0.10677581894E+03  0.00000000000E+00 0.  1.
         13    1    5    5    0    0  0.19023513318E+03 -0.32725940936E+03 -0.61423662520E+02  0.38348532335E+03  0.00000000000E+00 0.  1.
        -13    1    5    5    0    0  0.30286855627E+01 -0.11096695027E+02 -0.20033091570E+02  0.23100526717E+02  0.00000000000E+00 0. -1.
          3    1    6    6  503    0 -0.74147797391E+02  0.13259520863E+03 -0.56800975384E+02  0.16219043133E+03  0.00000000000E+00 0. -1.
         -3    1    6    6    0  503 -0.20542301695E+03  0.25474369246E+03 -0.26109204190E+03  0.41864306884E+03  0.00000000000E+00 0.  1.
<mgrwt>
<rscale>  0 0.10361909E+04</rscale>
<asrwt>0</asrwt>
<pdfrwt beam="1">  1        4 0.11714647E+00 0.10361909E+04</pdfrwt>
<pdfrwt beam="2">  1       -3 0.54232996E-01 0.10361909E+04</pdfrwt>
<totfact> 0.42869424E+00</totfact>
</mgrwt>
</event>
<event>
12    7  0.1675873E-007  0.2241625E+04  0.7818608E-02  0.8501300E-01
         -1   -1    0    0    0  501 -0.00000000000E+00  0.00000000000E+00  0.51600635079E+03  0.51600635079E+03  0.00000000000E+00 0.  1.
          2   -1    0    0  501    0  0.00000000000E+00 -0.00000000000E+00 -0.24345060294E+04  0.24345060294E+04  0.00000000000E+00 0. -1.
         24    2    1    2    0    0  0.33926043618E+03 -0.16904455594E+03 -0.19409214487E+04  0.19791720220E+04  0.79196701174E+02 0.  0.
        254    2    1    2    0    0 -0.33926043618E+03  0.16904455594E+03  0.22421770067E+02  0.97134035814E+03  0.89405013849E+03 0.  0.
         23    2    4    4    0    0 -0.30567333063E+03 -0.30454303876E+03 -0.13681569151E+03  0.46181060811E+03  0.91475990309E+02 0.  0.
         23    2    4    4    0    0 -0.33587105545E+02  0.47358759470E+03  0.15923746158E+03  0.50952975003E+03  0.94078124389E+02 0.  0.
          4    1    3    3  502    0  0.31982279501E+03 -0.14911881453E+03 -0.18696052383E+04  0.19026157753E+04  0.00000000000E+00 0. -1.
         -3    1    3    3    0  502  0.19437641169E+02 -0.19925741407E+02 -0.71316210328E+02  0.76556246776E+02  0.00000000000E+00 0.  1.
         13    1    5    5    0    0 -0.13546961416E+03 -0.96995006282E+02 -0.15744729923E+02  0.16735574124E+03  0.00000000000E+00 0. -1.
        -13    1    5    5    0    0 -0.17020371647E+03 -0.20754803248E+03 -0.12107096159E+03  0.29445486688E+03  0.00000000000E+00 0.  1.
          4    1    6    6  503    0  0.15173059537E+02  0.22827640264E+02 -0.38938502891E+01  0.27685464883E+02  0.00000000000E+00 0. -1.
         -4    1    6    6    0  503 -0.48760165082E+02  0.45075995443E+03  0.16313131187E+03  0.48184428515E+03  0.00000000000E+00 0.  1.
<mgrwt>
<rscale>  0 0.22416249E+04</rscale>
<asrwt>0</asrwt>
<pdfrwt beam="1">  1        2 0.37453939E+00 0.22416249E+04</pdfrwt>
<pdfrwt beam="2">  1       -1 0.79385593E-01 0.22416249E+04</pdfrwt>
<totfact> 0.62428120E+00</totfact>
</mgrwt>
</event>
<event>
12    7  0.1675873E-007  0.1115132E+04  0.7818608E-02  0.9190568E-01
          2   -1    0    0  501    0  0.00000000000E+00  0.00000000000E+00  0.11915707441E+04  0.11915707441E+04  0.00000000000E+00 0. -1.
         -1   -1    0    0    0  501 -0.00000000000E+00 -0.00000000000E+00 -0.26089903307E+03  0.26089903307E+03  0.00000000000E+00 0.  1.
         24    2    1    2    0    0 -0.15986321841E+03  0.80476444625E+02  0.12024187127E+03  0.23003097930E+03  0.80146347941E+02 0.  0.
        254    2    1    2    0    0  0.15986321841E+03 -0.80476444625E+02  0.81042983976E+03  0.12224387979E+04  0.89751177298E+03 0.  0.
         23    2    4    4    0    0  0.21254745444E+03 -0.43125489146E+03  0.23972623734E+03  0.54453632361E+03  0.88847830922E+02 0.  0.
         23    2    4    4    0    0 -0.52684236030E+02  0.35077844683E+03  0.57070360242E+03  0.67790247427E+03  0.89599192583E+02 0.  0.
          4    1    3    3  502    0 -0.15674504950E+02 -0.72808992660E+01  0.39092503632E+02  0.42742548353E+02  0.00000000000E+00 0. -1.
         -1    1    3    3    0  502 -0.14418871346E+03  0.87757343891E+02  0.81149367643E+02  0.18728843094E+03  0.00000000000E+00 0.  1.
         13    1    5    5    0    0  0.16120270142E+03 -0.38984471311E+03  0.21946833855E+03  0.47553292517E+03  0.00000000000E+00 0.  1.
        -13    1    5    5    0    0  0.51344753018E+02 -0.41410178345E+02  0.20257898789E+02  0.69003398441E+02  0.00000000000E+00 0. -1.
          2    1    6    6  503    0  0.17485914989E+02  0.16250574888E+02  0.42673531140E+02  0.48896509764E+02  0.00000000000E+00 0. -1.
         -2    1    6    6    0  503 -0.70170151018E+02  0.33452787195E+03  0.52803007128E+03  0.62900596450E+03  0.00000000000E+00 0.  1.
<mgrwt>
<rscale>  0 0.11151317E+04</rscale>
<asrwt>0</asrwt>
<pdfrwt beam="1">  1        2 0.18331857E+00 0.11151317E+04</pdfrwt>
<pdfrwt beam="2">  1       -1 0.40138313E-01 0.11151317E+04</pdfrwt>
<totfact> 0.13104449E+02</totfact>
</mgrwt>
</event>
<event>
12    7  0.1675873E-007  0.1496788E+04  0.7818608E-02  0.8886591E-01
          2   -1    0    0  501    0  0.00000000000E+00  0.00000000000E+00  0.15530751214E+04  0.15530751214E+04  0.00000000000E+00 0. -1.
         -1   -1    0    0    0  501 -0.00000000000E+00 -0.00000000000E+00 -0.36063538600E+03  0.36063538600E+03  0.00000000000E+00 0.  1.
         24    2    1    2    0    0  0.27614629914E+03  0.28340948476E+03  0.71368341427E+03  0.82004984969E+03  0.80993984938E+02 0.  0.
        254    2    1    2    0    0 -0.27614629914E+03 -0.28340948476E+03  0.47875632113E+03  0.10936606577E+04  0.90017126405E+03 0.  0.
         23    2    4    4    0    0  0.12577301681E+03 -0.12824993383E+03 -0.20052465031E+03  0.28418988102E+03  0.91032169070E+02 0.  0.
         23    2    4    4    0    0 -0.40191931595E+03 -0.15515955093E+03  0.67928097145E+03  0.80947077670E+03  0.90590713532E+02 0.  0.
          4    1    3    3  502    0  0.93390780562E+02  0.97478919166E+02  0.32613272699E+03  0.35296817589E+03  0.00000000000E+00 0. -1.
         -3    1    3    3    0  502  0.18275551858E+03  0.18593056559E+03  0.38755068728E+03  0.46708167381E+03  0.00000000000E+00 0.  1.
         13    1    5    5    0    0  0.33946220372E+02 -0.69088686813E+02 -0.13881395726E+03  0.15872903721E+03  0.00000000000E+00 0.  1.
        -13    1    5    5    0    0  0.91826796436E+02 -0.59161247014E+02 -0.61710693053E+02  0.12546084381E+03  0.00000000000E+00 0. -1.
          4    1    6    6  503    0 -0.48037078396E+02 -0.32559530168E+02  0.47358812414E+02  0.74903544768E+02  0.00000000000E+00 0.  1.
         -4    1    6    6    0  503 -0.35388223755E+03 -0.12260002077E+03  0.63192215903E+03  0.73456723193E+03  0.00000000000E+00 0. -1.
<mgrwt>
<rscale>  0 0.14967884E+04</rscale>
<asrwt>0</asrwt>
<pdfrwt beam="1">  1        2 0.23893463E+00 0.14967884E+04</pdfrwt>
<pdfrwt beam="2">  1       -1 0.55482368E-01 0.14967884E+04</pdfrwt>
<totfact> 0.42855386E+01</totfact>
</mgrwt>
</event>
<event>
12    7  0.1675873E-007  0.2236522E+04  0.7818608E-02  0.8503379E-01
         -1   -1    0    0    0  501 -0.00000000000E+00  0.00000000000E+00  0.10727770177E+04  0.10727770177E+04  0.00000000000E+00 0.  1.
          2   -1    0    0  501    0  0.00000000000E+00 -0.00000000000E+00 -0.11656735257E+04  0.11656735257E+04  0.00000000000E+00 0. -1.
         24    2    1    2    0    0 -0.55811279616E+03  0.73624281092E+03  0.82088006643E+02  0.93138313515E+03  0.84809986050E+02 0.  0.
        254    2    1    2    0    0  0.55811279616E+03 -0.73624281092E+03 -0.17498451459E+03  0.13070674083E+04  0.90788890265E+03 0.  0.
         23    2    4    4    0    0  0.14130631922E+03 -0.24674198882E+03 -0.49894603181E+03  0.58140728569E+03  0.90764554182E+02 0.  0.
         23    2    4    4    0    0  0.41680647695E+03 -0.48950082210E+03  0.32396151722E+03  0.72566012259E+03  0.91065113024E+02 0.  0.
          2    1    3    3  502    0 -0.55213503965E+03  0.70472475029E+03  0.74084342184E+02  0.89831985697E+03  0.00000000000E+00 0. -1.
         -1    1    3    3    0  502 -0.59777565159E+01  0.31518060637E+02  0.80036644590E+01  0.33063278180E+02  0.00000000000E+00 0.  1.
         13    1    5    5    0    0  0.54539417497E+02 -0.58874833223E+02 -0.21928484433E+03  0.23350939382E+03  0.00000000000E+00 0. -1.
        -13    1    5    5    0    0  0.86766901719E+02 -0.18786715560E+03 -0.27966118748E+03  0.34789789187E+03  0.00000000000E+00 0.  1.
          2    1    6    6  503    0  0.23008675569E+03 -0.26927943474E+03  0.12752953352E+03  0.37645067544E+03  0.00000000000E+00 0. -1.
         -2    1    6    6    0  503  0.18671972126E+03 -0.22022138736E+03  0.19643198370E+03  0.34920944715E+03  0.00000000000E+00 0.  1.
<mgrwt>
<rscale>  0 0.22365221E+04</rscale>
<asrwt>0</asrwt>
<pdfrwt beam="1">  1        2 0.17933439E+00 0.22365221E+04</pdfrwt>
<pdfrwt beam="2">  1       -1 0.16504262E+00 0.22365221E+04</pdfrwt>
<totfact> 0.55264408E+00</totfact>
</mgrwt>
</event>
<event>
12    7  0.1675873E-007  0.1392056E+04  0.7818608E-02  0.8959589E-01
          2   -1    0    0  501    0  0.00000000000E+00  0.00000000000E+00  0.58395765776E+03  0.58395765776E+03  0.00000000000E+00 0. -1.
         -1   -1    0    0    0  501 -0.00000000000E+00 -0.00000000000E+00 -0.82960674151E+03  0.82960674151E+03  0.00000000000E+00 0.  1.
         24    2    1    2    0    0  0.28639866037E+03  0.12634477282E+03 -0.31290968156E+03  0.45008017774E+03  0.81685392202E+02 0.  0.
        254    2    1    2    0    0 -0.28639866037E+03 -0.12634477282E+03  0.67260597809E+02  0.96348422154E+03  0.90873024757E+03 0.  0.
         23    2    4    4    0    0  0.83747936047E+02  0.30881033999E+03 -0.12170547946E+03  0.35425309744E+03  0.91134463538E+02 0.  0.
         23    2    4    4    0    0 -0.37014659642E+03 -0.43515511281E+03  0.18896607727E+03  0.60923112409E+03  0.95320035482E+02 0.  0.
          4    1    3    3  502    0  0.13669372030E+03  0.91423831787E+02 -0.20224758051E+03  0.26066755457E+03  0.00000000000E+00 0. -1.
         -3    1    3    3    0  502  0.14970494007E+03  0.34920941037E+02 -0.11066210105E+03  0.18941262316E+03  0.00000000000E+00 0.  1.
         13    1    5    5    0    0 -0.59685193771E+01  0.13840413756E+03 -0.34015887574E+02  0.14264785005E+03  0.00000000000E+00 0. -1.
        -13    1    5    5    0    0  0.89716455424E+02  0.17040620243E+03 -0.87689591882E+02  0.21160524740E+03  0.00000000000E+00 0.  1.
          2    1    6    6  503    0 -0.29078485845E+02 -0.29498608422E+02 -0.10867196391E+02  0.42823150226E+02  0.00000000000E+00 0. -1.
         -2    1    6    6    0  503 -0.34106811057E+03 -0.40565650439E+03  0.19983327366E+03  0.56640797387E+03  0.00000000000E+00 0.  1.
<mgrwt>
<rscale>  0 0.13920563E+04</rscale>
<asrwt>0</asrwt>
<pdfrwt beam="1">  1        2 0.89839640E-01 0.13920563E+04</pdfrwt>
<pdfrwt beam="2">  1       -1 0.12763181E+00 0.13920563E+04</pdfrwt>
<totfact> 0.30307605E+01</totfact>
</mgrwt>
</event>
<event>
12    7  0.1675873E-007  0.1886925E+04  0.7818608E-02  0.8661392E-01
         -1   -1    0    0    0  501 -0.00000000000E+00  0.00000000000E+00  0.51653668815E+03  0.51653668815E+03  0.00000000000E+00 0.  1.
          2   -1    0    0  501    0  0.00000000000E+00 -0.00000000000E+00 -0.17232485212E+04  0.17232485212E+04  0.00000000000E+00 0. -1.
         24    2    1    2    0    0  0.62229451543E+03  0.36179726166E+03 -0.54943203698E+03  0.90904696729E+03  0.79643599873E+02 0.  0.
        254    2    1    2    0    0 -0.62229451543E+03 -0.36179726166E+03 -0.65727979607E+03  0.13307382421E+04  0.90592484019E+03 0.  0.
         23    2    4    4    0    0 -0.17619732778E+03 -0.39213728382E+02 -0.73966780626E+03  0.76732129719E+03  0.95343036892E+02 0.  0.
         23    2    4    4    0    0 -0.44609718765E+03 -0.32258353328E+03  0.82388010189E+02  0.56341694487E+03  0.87109315088E+02 0.  0.
          2    1    3    3  502    0  0.56140488733E+03  0.34405474357E+03 -0.47883164669E+03  0.81414302181E+03  0.00000000000E+00 0. -1.
         -1    1    3    3    0  502  0.60889628103E+02  0.17742518083E+02 -0.70600390286E+02  0.94903945476E+02  0.00000000000E+00 0.  1.
         13    1    5    5    0    0 -0.81240604204E+02 -0.63045299649E+02 -0.44838791245E+03  0.46002876607E+03  0.00000000000E+00 0. -1.
        -13    1    5    5    0    0 -0.94956723573E+02  0.23831571267E+02 -0.29127989381E+03  0.30729253112E+03  0.00000000000E+00 0.  1.
          3    1    6    6  503    0 -0.43632272327E+03 -0.32742669994E+03  0.85259701443E+02  0.55213673974E+03  0.00000000000E+00 0. -1.
         -3    1    6    6    0  503 -0.97744643807E+01  0.48431666642E+01 -0.28716912535E+01  0.11280205137E+02  0.00000000000E+00 0.  1.
<mgrwt>
<rscale>  0 0.18869246E+04</rscale>
<asrwt>0</asrwt>
<pdfrwt beam="1">  1        2 0.26511516E+00 0.18869246E+04</pdfrwt>
<pdfrwt beam="2">  1       -1 0.79467181E-01 0.18869246E+04</pdfrwt>
<totfact> 0.16083148E+01</totfact>
</mgrwt>
</event>
<event>
12    7  0.1675873E-007  0.1730694E+04  0.7818608E-02  0.8744049E-01
         -1   -1    0    0    0  501 -0.00000000000E+00  0.00000000000E+00  0.59110404941E+03  0.59110404941E+03  0.00000000000E+00 0.  1.
          2   -1    0    0  501    0  0.00000000000E+00 -0.00000000000E+00 -0.12668257817E+04  0.12668257817E+04  0.00000000000E+00 0. -1.
         24    2    1    2    0    0 -0.40129534446E+03 -0.44557018252E+03 -0.45601013411E+03  0.75761932856E+03  0.80442921138E+02 0.  0.
        254    2    1    2    0    0  0.40129534446E+03  0.44557018252E+03 -0.21971159813E+03  0.11003105025E+04  0.89601298791E+03 0.  0.
         23    2    4    4    0    0  0.42275705217E+03 -0.12288741401E+03 -0.26273356591E+03  0.52106210086E+03  0.93015829902E+02 0.  0.
         23    2    4    4    0    0 -0.21461707712E+02  0.56845759654E+03  0.43021967780E+02  0.57924840164E+03  0.10036521873E+03 0.  0.
          4    1    3    3  502    0 -0.24072516977E+03 -0.29340652099E+03 -0.24384519115E+03  0.45110583145E+03  0.00000000000E+00 0. -1.
         -3    1    3    3    0  502 -0.16057017468E+03 -0.15216366154E+03 -0.21216494297E+03  0.30651349712E+03  0.00000000000E+00 0.  1.
         13    1    5    5    0    0  0.28792273461E+03 -0.12435185526E+03 -0.20291495248E+03  0.37354700233E+03  0.00000000000E+00 0. -1.
        -13    1    5    5    0    0  0.13483431756E+03  0.14644412494E+01 -0.59818613434E+02  0.14751509853E+03  0.00000000000E+00 0.  1.
          3    1    6    6  503    0 -0.56224683272E+02  0.33177659288E+03  0.18568523479E+01  0.33651206589E+03  0.00000000000E+00 0. -1.
         -3    1    6    6    0  503  0.34762975561E+02  0.23668100366E+03  0.41165115432E+02  0.24273633574E+03  0.00000000000E+00 0.  1.
<mgrwt>
<rscale>  0 0.17306945E+04</rscale>
<asrwt>0</asrwt>
<pdfrwt beam="1">  1        2 0.19489628E+00 0.17306945E+04</pdfrwt>
<pdfrwt beam="2">  1       -1 0.90939084E-01 0.17306945E+04</pdfrwt>
<totfact> 0.22089083E+01</totfact>
</mgrwt>
</event>
<event>
12    7  0.1675873E-007  0.1943278E+04  0.7818608E-02  0.8633609E-01
         -1   -1    0    0    0  501 -0.00000000000E+00  0.00000000000E+00  0.99345793819E+03  0.99345793819E+03  0.00000000000E+00 0.  1.
          2   -1    0    0  501    0  0.00000000000E+00 -0.00000000000E+00 -0.95029940322E+03  0.95029940322E+03  0.00000000000E+00 0. -1.
         24    2    1    2    0    0 -0.69487153545E+03  0.29705700158E+03 -0.22230776648E+02  0.76027467482E+03  0.80212597375E+02 0.  0.
        254    2    1    2    0    0  0.69487153545E+03 -0.29705700158E+03  0.65389311625E+02  0.11834826666E+04  0.90844160356E+03 0.  0.
         23    2    4    4    0    0  0.93954249893E+02  0.21999562656E+03  0.25684884906E+03  0.36260927483E+03  0.91042177847E+02 0.  0.
         23    2    4    4    0    0  0.60091728555E+03 -0.51705262815E+03 -0.19145953743E+03  0.82087339176E+03  0.93441781232E+02 0.  0.
          2    1    3    3  502    0 -0.59228820499E+03  0.22116336608E+03 -0.23353466833E+02  0.63266415789E+03  0.00000000000E+00 0. -1.
         -1    1    3    3    0  502 -0.10258333046E+03  0.75893635506E+02  0.11226901850E+01  0.12761051693E+03  0.00000000000E+00 0.  1.
         13    1    5    5    0    0  0.43680697777E+02  0.68910133471E+02  0.15030658576E+03  0.17102245343E+03  0.00000000000E+00 0.  1.
        -13    1    5    5    0    0  0.50273552116E+02  0.15108549309E+03  0.10654226330E+03  0.19158682140E+03  0.00000000000E+00 0. -1.
          1    1    6    6  503    0  0.48319267561E+03 -0.42141473205E+03 -0.11633803683E+03  0.65161344136E+03  0.00000000000E+00 0. -1.
         -1    1    6    6    0  503  0.11772460995E+03 -0.95637896098E+02 -0.75121500607E+02  0.16925995040E+03  0.00000000000E+00 0.  1.
<mgrwt>
<rscale>  0 0.19432781E+04</rscale>
<asrwt>0</asrwt>
<pdfrwt beam="1">  1        2 0.14619991E+00 0.19432781E+04</pdfrwt>
<pdfrwt beam="2">  1       -1 0.15283968E+00 0.19432781E+04</pdfrwt>
<totfact> 0.95826315E+00</totfact>
</mgrwt>
</event>
<event>
12    7  0.1675873E-007  0.3371161E+04  0.7818608E-02  0.8145021E-01
         -1   -1    0    0    0  501 -0.00000000000E+00  0.00000000000E+00  0.11819341295E+04  0.11819341295E+04  0.00000000000E+00 0.  1.
          2   -1    0    0  501    0  0.00000000000E+00 -0.00000000000E+00 -0.24038405696E+04  0.24038405696E+04  0.00000000000E+00 0. -1.
         24    2    1    2    0    0  0.63120315237E+03  0.97954736723E+03 -0.16767707666E+04  0.20435052909E+04  0.80144906705E+02 0.  0.
        254    2    1    2    0    0 -0.63120315237E+03 -0.97954736723E+03  0.45486432654E+03  0.15422694082E+04  0.90208808193E+03 0.  0.
         23    2    4    4    0    0 -0.34858819422E+03  0.58305786888E+02  0.25491049502E+03  0.44388359852E+03  0.84498488937E+02 0.  0.
         23    2    4    4    0    0 -0.28261495815E+03 -0.10378531541E+04  0.19995383153E+03  0.10983858096E+04  0.97259796284E+02 0.  0.
          4    1    3    3  502    0  0.44595329269E+03  0.66213293863E+03 -0.12056618628E+04  0.14459996180E+04  0.00000000000E+00 0. -1.
         -3    1    3    3    0  502  0.18524985969E+03  0.31741442860E+03 -0.47110890377E+03  0.59750567295E+03  0.00000000000E+00 0.  1.
         13    1    5    5    0    0 -0.53332487299E+02  0.60812019832E+01  0.56622578616E+01  0.53975887053E+02  0.00000000000E+00 0. -1.
        -13    1    5    5    0    0 -0.29525570693E+03  0.52224584905E+02  0.24924823716E+03  0.38990771147E+03  0.00000000000E+00 0.  1.
          4    1    6    6  503    0 -0.28292190963E+03 -0.96025114502E+03  0.17102872343E+03  0.10155677686E+04  0.00000000000E+00 0.  1.
         -4    1    6    6    0  503  0.30695147857E+00 -0.77602009101E+02  0.28925108099E+02  0.82818040995E+02  0.00000000000E+00 0. -1.
<mgrwt>
<rscale>  0 0.33711608E+04</rscale>
<asrwt>0</asrwt>
<pdfrwt beam="1">  1        2 0.36982162E+00 0.33711608E+04</pdfrwt>
<pdfrwt beam="2">  1       -1 0.18183602E+00 0.33711608E+04</pdfrwt>
<totfact> 0.75361772E-01</totfact>
</mgrwt>
</event>
<event>
12    7  0.1675873E-007  0.2377352E+04  0.7818608E-02  0.8448032E-01
         -1   -1    0    0    0  501 -0.00000000000E+00  0.00000000000E+00  0.72803484187E+03  0.72803484187E+03  0.00000000000E+00 0.  1.
          2   -1    0    0  501    0  0.00000000000E+00 -0.00000000000E+00 -0.19407734314E+04  0.19407734314E+04  0.00000000000E+00 0. -1.
         24    2    1    2    0    0  0.62947013212E+03 -0.73887263026E+03 -0.60792190098E+03  0.11480565268E+04  0.79368382381E+02 0.  0.
        254    2    1    2    0    0 -0.62947013212E+03  0.73887263026E+03 -0.60481668857E+03  0.15207517465E+04  0.10023558433E+04 0.  0.
         23    2    4    4    0    0 -0.67796198798E+03  0.22865204748E+03 -0.68392912734E+03  0.99418108171E+03  0.93395696099E+02 0.  0.
         23    2    4    4    0    0  0.48491855859E+02  0.51022058278E+03  0.79112438769E+02  0.52657066476E+03  0.91331176737E+02 0.  0.
          2    1    3    3  502    0  0.27052671236E+03 -0.32368500793E+03 -0.31060104853E+03  0.52386038007E+03  0.00000000000E+00 0. -1.
         -1    1    3    3    0  502  0.35894341976E+03 -0.41518762233E+03 -0.29732085245E+03  0.62419614676E+03  0.00000000000E+00 0.  1.
         13    1    5    5    0    0 -0.11386018222E+03  0.63137566621E+01 -0.12979750609E+03  0.17277556889E+03  0.00000000000E+00 0.  1.
        -13    1    5    5    0    0 -0.56410180576E+03  0.22233829082E+03 -0.55413162125E+03  0.82140551282E+03  0.00000000000E+00 0. -1.
          3    1    6    6  503    0  0.72827301737E+02  0.31217719594E+03  0.59978247212E+02  0.32612238145E+03  0.00000000000E+00 0. -1.
         -3    1    6    6    0  503 -0.24335445878E+02  0.19804338683E+03  0.19134191557E+02  0.20044828331E+03  0.00000000000E+00 0.  1.
<mgrwt>
<rscale>  0 0.23773520E+04</rscale>
<asrwt>0</asrwt>
<pdfrwt beam="1">  1        2 0.29858052E+00 0.23773520E+04</pdfrwt>
<pdfrwt beam="2">  1       -1 0.11200536E+00 0.23773520E+04</pdfrwt>
<totfact> 0.54028858E+00</totfact>
</mgrwt>
</event>
<event>
12    7  0.1675873E-007  0.1372482E+04  0.7818608E-02  0.8973982E-01
          2   -1    0    0  501    0  0.00000000000E+00  0.00000000000E+00  0.20170031947E+04  0.20170031947E+04  0.00000000000E+00 0. -1.
         -1   -1    0    0    0  501 -0.00000000000E+00 -0.00000000000E+00 -0.23347857010E+03  0.23347857010E+03  0.00000000000E+00 0.  1.
         24    2    1    2    0    0  0.30122953314E+03 -0.13091767861E+03  0.83704002703E+03  0.90258394735E+03  0.78377962159E+02 0.  0.
        254    2    1    2    0    0 -0.30122953314E+03  0.13091767861E+03  0.94648459760E+03  0.13478978175E+04  0.90172987232E+03 0.  0.
         23    2    4    4    0    0 -0.31582955771E+03 -0.34264526426E+03  0.53075617586E+03  0.71199683086E+03  0.89907075914E+02 0.  0.
         23    2    4    4    0    0  0.14600024567E+02  0.47356294287E+03  0.41572842174E+03  0.63590098661E+03  0.84053093654E+02 0.  0.
          2    1    3    3  502    0  0.16368912234E+03 -0.82298093719E+02  0.36316651988E+03  0.40676409153E+03  0.00000000000E+00 0. -1.
         -3    1    3    3    0  502  0.13754041080E+03 -0.48619584886E+02  0.47387350715E+03  0.49581985581E+03  0.00000000000E+00 0.  1.
         13    1    5    5    0    0 -0.78091384512E+02 -0.14081932669E+03  0.21000839172E+03  0.26463535609E+03  0.00000000000E+00 0. -1.
        -13    1    5    5    0    0 -0.23773817320E+03 -0.20182593758E+03  0.32074778414E+03  0.44736147477E+03  0.00000000000E+00 0.  1.
          1    1    6    6  503    0 -0.16764487699E+02  0.83729294693E+02  0.11133644177E+03  0.14031195995E+03  0.00000000000E+00 0. -1.
         -1    1    6    6    0  503  0.31364512266E+02  0.38983364818E+03  0.30439197997E+03  0.49558902666E+03  0.00000000000E+00 0.  1.
<mgrwt>
<rscale>  0 0.13724825E+04</rscale>
<asrwt>0</asrwt>
<pdfrwt beam="1">  1        2 0.31030817E+00 0.13724825E+04</pdfrwt>
<pdfrwt beam="2">  1       -1 0.35919781E-01 0.13724825E+04</pdfrwt>
<totfact> 0.53823719E+01</totfact>
</mgrwt>
</event>
<event>
12    7  0.1675873E-007  0.1142467E+04  0.7818608E-02  0.9164761E-01
          2   -1    0    0  501    0  0.00000000000E+00  0.00000000000E+00  0.79402948363E+03  0.79402948363E+03  0.00000000000E+00 0. -1.
         -1   -1    0    0    0  501 -0.00000000000E+00 -0.00000000000E+00 -0.41095184309E+03  0.41095184309E+03  0.00000000000E+00 0.  1.
         24    2    1    2    0    0 -0.98637311776E+02  0.15476687794E+03 -0.28316203886E+02  0.20232863180E+03  0.80330330898E+02 0.  0.
        254    2    1    2    0    0  0.98637311776E+02 -0.15476687794E+03  0.41139384443E+03  0.10026526949E+04  0.89575969189E+03 0.  0.
         23    2    4    4    0    0  0.47025059373E+03 -0.16636353177E+03  0.34963911921E+03  0.61505945515E+03  0.85077459321E+02 0.  0.
         23    2    4    4    0    0 -0.37161328195E+03  0.11596653823E+02  0.61754725213E+02  0.38759323977E+03  0.90465240410E+02 0.  0.
          2    1    3    3  502    0 -0.15457301187E+02 -0.61755415412E+01 -0.11814470296E+02  0.20411937235E+02  0.00000000000E+00 0. -1.
         -1    1    3    3    0  502 -0.83180010589E+02  0.16094241949E+03 -0.16501733590E+02  0.18191669457E+03  0.00000000000E+00 0.  1.
         13    1    5    5    0    0  0.99050012498E+02 -0.23848508804E+02  0.11387822616E+03  0.15280021839E+03  0.00000000000E+00 0. -1.
        -13    1    5    5    0    0  0.37120058123E+03 -0.14251502296E+03  0.23576089306E+03  0.46225923676E+03  0.00000000000E+00 0.  1.
          3    1    6    6  503    0 -0.15736316878E+03  0.19852152052E+02 -0.16238044977E+02  0.15943948361E+03  0.00000000000E+00 0. -1.
         -3    1    6    6    0  503 -0.21425011317E+03 -0.82554982287E+01  0.77992770189E+02  0.22815375615E+03  0.00000000000E+00 0.  1.
<mgrwt>
<rscale>  0 0.11424673E+04</rscale>
<asrwt>0</asrwt>
<pdfrwt beam="1">  1        2 0.12215838E+00 0.11424673E+04</pdfrwt>
<pdfrwt beam="2">  1       -1 0.63223360E-01 0.11424673E+04</pdfrwt>
<totfact> 0.99821254E+01</totfact>
</mgrwt>
</event>
<event>
12    7  0.1675873E-007  0.1177115E+04  0.7818608E-02  0.9133127E-01
          2   -1    0    0  501    0  0.00000000000E+00  0.00000000000E+00  0.15674843747E+04  0.15674843747E+04  0.00000000000E+00 0. -1.
         -1   -1    0    0    0  501 -0.00000000000E+00 -0.00000000000E+00 -0.22099109974E+03  0.22099109974E+03  0.00000000000E+00 0.  1.
         24    2    1    2    0    0 -0.13164015554E+03  0.13299123246E+01 -0.31945914814E+01  0.15528663802E+03  0.82297237604E+02 0.  0.
        254    2    1    2    0    0  0.13164015554E+03 -0.13299123246E+01  0.13496878665E+04  0.16331888364E+04  0.91011951927E+03 0.  0.
         23    2    4    4    0    0 -0.36844738769E+03  0.11744683334E+03  0.61416747674E+03  0.73134749798E+03  0.90112358512E+02 0.  0.
         23    2    4    4    0    0  0.50008754322E+03 -0.11877674567E+03  0.73552038972E+03  0.90184133845E+03  0.90178100725E+02 0.  0.
          2    1    3    3  502    0 -0.12821274988E+03 -0.74885801418E+01  0.20238091687E+02  0.13001603140E+03  0.00000000000E+00 0. -1.
         -1    1    3    3    0  502 -0.34274056563E+01  0.88184924664E+01 -0.23432683168E+02  0.25270606629E+02  0.00000000000E+00 0.  1.
         13    1    5    5    0    0 -0.13833460901E+03  0.35365900880E+02  0.15179076040E+03  0.20839300837E+03  0.00000000000E+00 0.  1.
        -13    1    5    5    0    0 -0.23011277867E+03  0.82080932461E+02  0.46237671635E+03  0.52295448961E+03  0.00000000000E+00 0. -1.
          4    1    6    6  503    0  0.31735890346E+03 -0.10623737991E+03  0.42023296126E+03  0.53721392036E+03  0.00000000000E+00 0. -1.
         -4    1    6    6    0  503  0.18272863977E+03 -0.12539365759E+02  0.31528742846E+03  0.36462741810E+03  0.00000000000E+00 0.  1.
<mgrwt>
<rscale>  0 0.11771153E+04</rscale>
<asrwt>0</asrwt>
<pdfrwt beam="1">  1        2 0.24115144E+00 0.11771153E+04</pdfrwt>
<pdfrwt beam="2">  1       -1 0.33998632E-01 0.11771153E+04</pdfrwt>
<totfact> 0.10698529E+02</totfact>
</mgrwt>
</event>
<event>
12    7  0.1675873E-007  0.1611268E+04  0.7818608E-02  0.8813656E-01
          2   -1    0    0  501    0  0.00000000000E+00  0.00000000000E+00  0.11096786205E+04  0.11096786205E+04  0.00000000000E+00 0. -1.
         -1   -1    0    0    0  501 -0.00000000000E+00 -0.00000000000E+00 -0.58489525733E+03  0.58489525733E+03  0.00000000000E+00 0.  1.
         24    2    1    2    0    0 -0.10358909450E+03  0.10357844003E+03 -0.37492641685E+03  0.41047299179E+03  0.80368309681E+02 0.  0.
        254    2    1    2    0    0  0.10358909450E+03 -0.10357844003E+03  0.89970978006E+03  0.12841008861E+04  0.90442147450E+03 0.  0.
         23    2    4    4    0    0 -0.26928670073E+03  0.12716157154E+03  0.37429776951E+02  0.31247709375E+03  0.86922686616E+02 0.  0.
         23    2    4    4    0    0  0.37287579523E+03 -0.23074001158E+03  0.86228000310E+03  0.97162379232E+03  0.90822235424E+02 0.  0.
          4    1    3    3  502    0 -0.16551230479E+02  0.55500518915E+02 -0.76721231020E+02  0.96126989547E+02  0.00000000000E+00 0. -1.
         -3    1    3    3    0  502 -0.87037864025E+02  0.48077921120E+02 -0.29820518583E+03  0.31434600224E+03  0.00000000000E+00 0.  1.
         13    1    5    5    0    0 -0.71025467586E+01 -0.68548423866E+01 -0.10206040092E+02  0.14198531226E+02  0.00000000000E+00 0.  1.
        -13    1    5    5    0    0 -0.26218415397E+03  0.13401641393E+03  0.47635817044E+02  0.29827856252E+03  0.00000000000E+00 0. -1.
          2    1    6    6  503    0  0.34696601535E+03 -0.22845517890E+03  0.84103809534E+03  0.93804171676E+03  0.00000000000E+00 0. -1.
         -2    1    6    6    0  503  0.25909779877E+02 -0.22848326799E+01  0.21241907769E+02  0.33582075566E+02  0.00000000000E+00 0.  1.
<mgrwt>
<rscale>  0 0.16112675E+04</rscale>
<asrwt>0</asrwt>
<pdfrwt beam="1">  1        2 0.17071979E+00 0.16112675E+04</pdfrwt>
<pdfrwt beam="2">  1       -1 0.89983886E-01 0.16112675E+04</pdfrwt>
<totfact> 0.28381318E+01</totfact>
</mgrwt>
</event>
<event>
12    7  0.1675873E-007  0.1942332E+04  0.7818608E-02  0.8634067E-01
          2   -1    0    0  501    0  0.00000000000E+00  0.00000000000E+00  0.92312283933E+03  0.92312283933E+03  0.00000000000E+00 0. -1.
         -1   -1    0    0    0  501 -0.00000000000E+00 -0.00000000000E+00 -0.10217094386E+04  0.10217094386E+04  0.00000000000E+00 0.  1.
         24    2    1    2    0    0 -0.22309803075E+02 -0.14337540152E+03  0.71477538458E+03  0.73379717456E+03  0.80623879403E+02 0.  0.
        254    2    1    2    0    0  0.22309803075E+02  0.14337540152E+03 -0.81336198381E+03  0.12110351033E+04  0.88543439717E+03 0.  0.
         23    2    4    4    0    0  0.31859812588E+03  0.90737653873E+00 -0.80478757498E+03  0.87012231696E+03  0.89018068336E+02 0.  0.
         23    2    4    4    0    0 -0.29628832281E+03  0.14246802498E+03 -0.85744088322E+01  0.34091278636E+03  0.89800328737E+02 0.  0.
          2    1    3    3  502    0  0.14674565425E+02 -0.10208564788E+03  0.55944834868E+03  0.56887544965E+03  0.00000000000E+00 0. -1.
         -1    1    3    3    0  502 -0.36984368500E+02 -0.41289753636E+02  0.15532703590E+03  0.16492172492E+03  0.00000000000E+00 0.  1.
         13    1    5    5    0    0  0.22674375474E+03  0.34609589640E+02 -0.50200048036E+03  0.55191941105E+03  0.00000000000E+00 0. -1.
        -13    1    5    5    0    0  0.91854371139E+02 -0.33702213102E+02 -0.30278709462E+03  0.31820290592E+03  0.00000000000E+00 0.  1.
          4    1    6    6  503    0 -0.30009884257E+03  0.14754578200E+03 -0.76394485936E+01  0.33449579112E+03  0.00000000000E+00 0. -1.
         -4    1    6    6    0  503  0.38105197633E+01 -0.50777570252E+01 -0.93496023854E+00  0.64169952408E+01  0.00000000000E+00 0.  1.
<mgrwt>
<rscale>  0 0.19423319E+04</rscale>
<asrwt>0</asrwt>
<pdfrwt beam="1">  1        2 0.14201890E+00 0.19423319E+04</pdfrwt>
<pdfrwt beam="2">  1       -1 0.15718607E+00 0.19423319E+04</pdfrwt>
<totfact> 0.92501414E+00</totfact>
</mgrwt>
</event>
<event>
12    7  0.1675873E-007  0.2471715E+04  0.7818608E-02  0.8413132E-01
         -1   -1    0    0    0  501 -0.00000000000E+00  0.00000000000E+00  0.84437860009E+03  0.84437860009E+03  0.00000000000E+00 0.  1.
          2   -1    0    0  501    0  0.00000000000E+00 -0.00000000000E+00 -0.18088371301E+04  0.18088371301E+04  0.00000000000E+00 0. -1.
         24    2    1    2    0    0 -0.84844392693E+03  0.52016618311E+03 -0.83833358741E+03  0.13036589668E+04  0.79331851450E+02 0.  0.
        254    2    1    2    0    0  0.84844392693E+03 -0.52016618311E+03 -0.12612494260E+03  0.13495567634E+04  0.90275467396E+03 0.  0.
         23    2    4    4    0    0  0.45026702714E+03 -0.48666033521E+03 -0.46730314294E+03  0.81640391936E+03  0.92544338236E+02 0.  0.
         23    2    4    4    0    0  0.39817689979E+03 -0.33505847897E+02  0.34117820034E+03  0.53315284407E+03  0.90453885375E+02 0.  0.
          2    1    3    3  502    0 -0.42428971098E+03  0.21586955748E+03 -0.41567969363E+03  0.63198974073E+03  0.00000000000E+00 0. -1.
         -1    1    3    3    0  502 -0.42415421595E+03  0.30429662563E+03 -0.42265389378E+03  0.67166922604E+03  0.00000000000E+00 0.  1.
         13    1    5    5    0    0  0.28256217398E+03 -0.25436073276E+03 -0.30274282646E+03  0.48599792542E+03  0.00000000000E+00 0.  1.
        -13    1    5    5    0    0  0.16770485317E+03 -0.23229960245E+03 -0.16456031648E+03  0.33040599394E+03  0.00000000000E+00 0. -1.
          4    1    6    6  503    0  0.32662373833E+03 -0.69122583658E+01  0.23524126770E+03  0.40257831510E+03  0.00000000000E+00 0. -1.
         -4    1    6    6    0  503  0.71553161461E+02 -0.26593589531E+02  0.10593693264E+03  0.13057452897E+03  0.00000000000E+00 0.  1.
<mgrwt>
<rscale>  0 0.24717147E+04</rscale>
<asrwt>0</asrwt>
<pdfrwt beam="1">  1        2 0.27828263E+00 0.24717147E+04</pdfrwt>
<pdfrwt beam="2">  1       -1 0.12990440E+00 0.24717147E+04</pdfrwt>
<totfact> 0.44111224E+00</totfact>
</mgrwt>
</event>
<event>
12    7  0.1675873E-007  0.2919951E+04  0.7818608E-02  0.8266966E-01
          2   -1    0    0  501    0  0.00000000000E+00  0.00000000000E+00  0.19772417281E+04  0.19772417281E+04  0.00000000000E+00 0. -1.
         -1   -1    0    0    0  501 -0.00000000000E+00 -0.00000000000E+00 -0.10780316363E+04  0.10780316363E+04  0.00000000000E+00 0.  1.
         24    2    1    2    0    0 -0.43410610884E+03 -0.56668730414E+03  0.15658972504E+04  0.17228104758E+04  0.80368664728E+02 0.  0.
        254    2    1    2    0    0  0.43410610884E+03  0.56668730414E+03 -0.66668715859E+03  0.13324628885E+04  0.90631284196E+03 0.  0.
         23    2    4    4    0    0  0.65141939282E+03  0.16579124730E+03 -0.30283447084E+03  0.74194188569E+03  0.83277139671E+02 0.  0.
         23    2    4    4    0    0 -0.21731328398E+03  0.40089605683E+03 -0.36385268775E+03  0.59052100285E+03  0.91561807772E+02 0.  0.
          4    1    3    3  502    0 -0.35965111459E+03 -0.41427226699E+03  0.12095290991E+04  0.13281306702E+04  0.00000000000E+00 0. -1.
         -3    1    3    3    0  502 -0.74454994257E+02 -0.15241503715E+03  0.35636815129E+03  0.39467980564E+03  0.00000000000E+00 0.  1.
         13    1    5    5    0    0  0.30595589143E+03  0.54170044246E+02 -0.17766079906E+03  0.35792004794E+03  0.00000000000E+00 0. -1.
        -13    1    5    5    0    0  0.34546350139E+03  0.11162120306E+03 -0.12517367178E+03  0.38402183776E+03  0.00000000000E+00 0.  1.
          3    1    6    6  503    0 -0.11783533425E+03  0.22881083256E+03 -0.14716052169E+03  0.29647222845E+03  0.00000000000E+00 0. -1.
         -3    1    6    6    0  503 -0.99477949728E+02  0.17208522427E+03 -0.21669216606E+03  0.29404877440E+03  0.00000000000E+00 0.  1.
<mgrwt>
<rscale>  0 0.29199515E+04</rscale>
<asrwt>0</asrwt>
<pdfrwt beam="1">  1        2 0.30419104E+00 0.29199515E+04</pdfrwt>
<pdfrwt beam="2">  1       -1 0.16585102E+00 0.29199515E+04</pdfrwt>
<totfact> 0.17807918E+00</totfact>
</mgrwt>
</event>
<event>
12    7  0.1675873E-007  0.1717804E+04  0.7818608E-02  0.8751275E-01
         -1   -1    0    0    0  501 -0.00000000000E+00  0.00000000000E+00  0.62123668418E+03  0.62123668418E+03  0.00000000000E+00 0.  1.
          2   -1    0    0  501    0  0.00000000000E+00 -0.00000000000E+00 -0.11874904009E+04  0.11874904009E+04  0.00000000000E+00 0. -1.
         24    2    1    2    0    0  0.12263985216E+03  0.43969779132E+03  0.23056468912E+03  0.51781722920E+03  0.81239928370E+02 0.  0.
        254    2    1    2    0    0 -0.12263985216E+03 -0.43969779132E+03 -0.79681840586E+03  0.12909098559E+04  0.90727834931E+03 0.  0.
         23    2    4    4    0    0 -0.38063683644E+03 -0.56638020984E+03 -0.41296294640E+03  0.80284541566E+03  0.91386120358E+02 0.  0.
         23    2    4    4    0    0  0.25799698428E+03  0.12668241852E+03 -0.38385545946E+03  0.48806444024E+03  0.90835042862E+02 0.  0.
          4    1    3    3  502    0  0.33800882689E+02  0.13946190110E+03  0.31891704683E+02  0.14700068829E+03  0.00000000000E+00 0. -1.
         -3    1    3    3    0  502  0.88838969472E+02  0.30023589022E+03  0.19867298444E+03  0.37081654092E+03  0.00000000000E+00 0.  1.
         13    1    5    5    0    0 -0.22171128604E+03 -0.28835877635E+03 -0.17364376407E+03  0.40306182535E+03  0.00000000000E+00 0. -1.
        -13    1    5    5    0    0 -0.15892555040E+03 -0.27802143349E+03 -0.23931918233E+03  0.39978359031E+03  0.00000000000E+00 0.  1.
          1    1    6    6  503    0  0.22779117480E+03  0.97039620250E+02 -0.36655453172E+03  0.44234345473E+03  0.00000000000E+00 0. -1.
         -1    1    6    6    0  503  0.30205809486E+02  0.29642798271E+02 -0.17300927738E+02  0.45720985517E+02  0.00000000000E+00 0.  1.
<mgrwt>
<rscale>  0 0.17178039E+04</rscale>
<asrwt>0</asrwt>
<pdfrwt beam="1">  1        2 0.18269083E+00 0.17178039E+04</pdfrwt>
<pdfrwt beam="2">  1       -1 0.95574875E-01 0.17178039E+04</pdfrwt>
<totfact> 0.22059517E+01</totfact>
</mgrwt>
</event>
<event>
12    7  0.1675873E-007  0.1593550E+04  0.7818608E-02  0.8824520E-01
          2   -1    0    0  501    0  0.00000000000E+00  0.00000000000E+00  0.15497047102E+04  0.15497047102E+04  0.00000000000E+00 0. -1.
         -1   -1    0    0    0  501 -0.00000000000E+00 -0.00000000000E+00 -0.40965881611E+03  0.40965881611E+03  0.00000000000E+00 0.  1.
         24    2    1    2    0    0  0.45531966425E+02 -0.19493381707E+03 -0.22539986799E+03  0.31099828111E+03  0.76436099857E+02 0.  0.
        254    2    1    2    0    0 -0.45531966425E+02  0.19493381707E+03  0.13654457621E+04  0.16483652452E+04  0.90143968150E+03 0.  0.
         23    2    4    4    0    0  0.36318091710E+03  0.14218421534E+03  0.29403547007E+03  0.49658599401E+03  0.89577129630E+02 0.  0.
         23    2    4    4    0    0 -0.40871288353E+03  0.52749601726E+02  0.10714102920E+04  0.11517792512E+04  0.94056833724E+02 0.  0.
          4    1    3    3  502    0  0.20729769379E+02 -0.41832220946E+02 -0.13875855706E+02  0.48705209366E+02  0.00000000000E+00 0. -1.
         -3    1    3    3    0  502  0.24802197046E+02 -0.15310159612E+03 -0.21152401228E+03  0.26229307175E+03  0.00000000000E+00 0.  1.
         13    1    5    5    0    0  0.27975125997E+03  0.66597806815E+02  0.20862584728E+03  0.35527563874E+03  0.00000000000E+00 0.  1.
        -13    1    5    5    0    0  0.83429657130E+02  0.75586408527E+02  0.85409622790E+02  0.14131035528E+03  0.00000000000E+00 0. -1.
          2    1    6    6  503    0 -0.17860471329E+03 -0.20890428116E+02  0.50183383833E+03  0.53307903250E+03  0.00000000000E+00 0. -1.
         -2    1    6    6    0  503 -0.23010817023E+03  0.73640029842E+02  0.56957645371E+03  0.61870021870E+03  0.00000000000E+00 0.  1.
<mgrwt>
<rscale>  0 0.15935497E+04</rscale>
<asrwt>0</asrwt>
<pdfrwt beam="1">  1        2 0.23841611E+00 0.15935497E+04</pdfrwt>
<pdfrwt beam="2">  1       -1 0.63024434E-01 0.15935497E+04</pdfrwt>
<totfact> 0.33217778E+01</totfact>
</mgrwt>
</event>
<event>
12    7  0.1675873E-007  0.1143898E+04  0.7818608E-02  0.9163431E-01
          2   -1    0    0  501    0  0.00000000000E+00  0.00000000000E+00  0.15457627576E+04  0.15457627576E+04  0.00000000000E+00 0. -1.
         -1   -1    0    0    0  501 -0.00000000000E+00 -0.00000000000E+00 -0.21162751911E+03  0.21162751911E+03  0.00000000000E+00 0.  1.
         24    2    1    2    0    0 -0.21203389859E+03 -0.29852519460E+01  0.20586314696E+03  0.30587867136E+03  0.78834259265E+02 0.  0.
        254    2    1    2    0    0  0.21203389859E+03  0.29852519460E+01  0.11282720916E+04  0.14515116054E+04  0.88821210422E+03 0.  0.
         23    2    4    4    0    0  0.19250167910E+03  0.42907805724E+03  0.59696057556E+03  0.76461381279E+03  0.84305861461E+02 0.  0.
         23    2    4    4    0    0  0.19532219490E+02 -0.42609280530E+03  0.53131151599E+03  0.68689779258E+03  0.87178346528E+02 0.  0.
          2    1    3    3  502    0 -0.10419337091E+02  0.38806377253E+01  0.49252191055E+02  0.50491586015E+02  0.00000000000E+00 0. -1.
         -3    1    3    3    0  502 -0.20161456150E+03 -0.68658896713E+01  0.15661095590E+03  0.25538708534E+03  0.00000000000E+00 0.  1.
         13    1    5    5    0    0  0.15567502707E+03  0.25168684832E+03  0.35051695554E+03  0.45874079805E+03  0.00000000000E+00 0. -1.
        -13    1    5    5    0    0  0.36826652038E+02  0.17739120892E+03  0.24644362002E+03  0.30587301475E+03  0.00000000000E+00 0.  1.
          1    1    6    6  503    0  0.21718393065E+02 -0.39810186095E+03  0.45172928300E+03  0.60250819530E+03  0.00000000000E+00 0. -1.
         -1    1    6    6    0  503 -0.21861735754E+01 -0.27990944346E+02  0.79582232998E+02  0.84389597281E+02  0.00000000000E+00 0.  1.
<mgrwt>
<rscale>  0 0.11438985E+04</rscale>
<asrwt>0</asrwt>
<pdfrwt beam="1">  1        2 0.23780965E+00 0.11438985E+04</pdfrwt>
<pdfrwt beam="2">  1       -1 0.32558081E-01 0.11438985E+04</pdfrwt>
<totfact> 0.11910017E+02</totfact>
</mgrwt>
</event>
<event>
12    7  0.1675873E-007  0.2080806E+04  0.7818608E-02  0.8569746E-01
         -1   -1    0    0    0  501 -0.00000000000E+00  0.00000000000E+00  0.64248446851E+03  0.64248446851E+03  0.00000000000E+00 0.  1.
          2   -1    0    0  501    0  0.00000000000E+00 -0.00000000000E+00 -0.16847693141E+04  0.16847693141E+04  0.00000000000E+00 0. -1.
         24    2    1    2    0    0  0.53272253425E+03  0.15734864145E+03 -0.11200679131E+04  0.12528924063E+04  0.81457709686E+02 0.  0.
        254    2    1    2    0    0 -0.53272253425E+03 -0.15734864145E+03  0.77783067452E+02  0.10743613763E+04  0.91632432461E+03 0.  0.
         23    2    4    4    0    0 -0.31772863032E+03  0.33082174252E+03 -0.13874924583E+03  0.48988719724E+03  0.10170351492E+03 0.  0.
         23    2    4    4    0    0 -0.21499390392E+03 -0.48817038396E+03  0.21653231328E+03  0.58447417907E+03  0.10095108125E+03 0.  0.
          2    1    3    3  502    0  0.53339240871E+03  0.15852983300E+03 -0.10996003948E+04  0.12323798918E+04  0.00000000000E+00 0. -1.
         -1    1    3    3    0  502 -0.66987445954E+00 -0.11811915531E+01 -0.20467518289E+02  0.20512514478E+02  0.00000000000E+00 0.  1.
         13    1    5    5    0    0  0.44142914540E+01  0.22085929087E+02  0.29691018730E+00  0.22524706177E+02  0.00000000000E+00 0.  1.
        -13    1    5    5    0    0 -0.32214292178E+03  0.30873581343E+03 -0.13904615602E+03  0.46736249106E+03  0.00000000000E+00 0. -1.
          3    1    6    6  503    0 -0.10396133689E+03 -0.16375816656E+03  0.12065645624E+03  0.22843527993E+03  0.00000000000E+00 0. -1.
         -3    1    6    6    0  503 -0.11103256704E+03 -0.32441221740E+03  0.95875857044E+02  0.35603889915E+03  0.00000000000E+00 0.  1.
<mgrwt>
<rscale>  0 0.20808057E+04</rscale>
<asrwt>0</asrwt>
<pdfrwt beam="1">  1        2 0.25919528E+00 0.20808057E+04</pdfrwt>
<pdfrwt beam="2">  1       -1 0.98843766E-01 0.20808057E+04</pdfrwt>
<totfact> 0.10289129E+01</totfact>
</mgrwt>
</event>
<event>
12    7  0.1675873E-007  0.1486076E+04  0.7818608E-02  0.8893765E-01
         -3   -1    0    0    0  501 -0.00000000000E+00  0.00000000000E+00  0.89133027699E+03  0.89133027699E+03  0.00000000000E+00 0.  1.
          2   -1    0    0  501    0  0.00000000000E+00 -0.00000000000E+00 -0.61941777697E+03  0.61941777697E+03  0.00000000000E+00 0. -1.
         24    2    1    2    0    0  0.57418578358E+02  0.15836531838E+03  0.52597365453E+03  0.55792225457E+03  0.79072686045E+02 0.  0.
        254    2    1    2    0    0 -0.57418578358E+02 -0.15836531838E+03 -0.25406115451E+03  0.95282579939E+03  0.90274773140E+03 0.  0.
         23    2    4    4    0    0  0.12515557278E+03 -0.46755441323E+03  0.18176769040E+02  0.49261366783E+03  0.89815277498E+02 0.  0.
         23    2    4    4    0    0 -0.18257415114E+03  0.30918909485E+03 -0.27223792355E+03  0.46021213156E+03  0.93544117808E+02 0.  0.
          4    1    3    3  502    0  0.56171757349E+02  0.90439454412E+02  0.40920976076E+03  0.42283234212E+03  0.00000000000E+00 0. -1.
         -3    1    3    3    0  502  0.12468210089E+01  0.67925863966E+02  0.11676389377E+03  0.13508991245E+03  0.00000000000E+00 0.  1.
         13    1    5    5    0    0 -0.53075169917E+01 -0.12537489772E+03  0.15113447670E+02  0.12639403078E+03  0.00000000000E+00 0. -1.
        -13    1    5    5    0    0  0.13046308977E+03 -0.34217951551E+03  0.30633213699E+01  0.36621963705E+03  0.00000000000E+00 0.  1.
          1    1    6    6  503    0 -0.11840239831E+02  0.98981166908E+02 -0.62233586788E+02  0.11751800716E+03  0.00000000000E+00 0. -1.
         -1    1    6    6    0  503 -0.17073391131E+03  0.21020792794E+03 -0.21000433677E+03  0.34269412441E+03  0.00000000000E+00 0.  1.
<mgrwt>
<rscale>  0 0.14860765E+04</rscale>
<asrwt>0</asrwt>
<pdfrwt beam="1">  1        2 0.95295043E-01 0.14860765E+04</pdfrwt>
<pdfrwt beam="2">  1       -3 0.13712773E+00 0.14860765E+04</pdfrwt>
<totfact> 0.11787811E+01</totfact>
</mgrwt>
</event>
<event>
12    7  0.1675873E-007  0.2269325E+04  0.7818608E-02  0.8490115E-01
          2   -1    0    0  501    0  0.00000000000E+00  0.00000000000E+00  0.20056776204E+04  0.20056776204E+04  0.00000000000E+00 0. -1.
         -1   -1    0    0    0  501 -0.00000000000E+00 -0.00000000000E+00 -0.64190717442E+03  0.64190717442E+03  0.00000000000E+00 0.  1.
         24    2    1    2    0    0  0.58898739656E+03  0.71433313876E+03  0.30295771162E+03  0.97749247919E+03  0.80809562514E+02 0.  0.
        254    2    1    2    0    0 -0.58898739656E+03 -0.71433313876E+03  0.10608127344E+04  0.16700923157E+04  0.89816852480E+03 0.  0.
         23    2    4    4    0    0 -0.60202752418E+03 -0.56160872470E+02  0.38903433195E+03  0.72462262274E+03  0.90216686283E+02 0.  0.
         23    2    4    4    0    0  0.13040127615E+02 -0.65817226629E+03  0.67177840245E+03  0.94546969293E+03  0.96259759005E+02 0.  0.
          2    1    3    3  502    0  0.16982455634E+03  0.21287777692E+03  0.51089924355E+02  0.27706950069E+03  0.00000000000E+00 0. -1.
         -1    1    3    3    0  502  0.41916284022E+03  0.50145536184E+03  0.25186778726E+03  0.70042297849E+03  0.00000000000E+00 0.  1.
         13    1    5    5    0    0 -0.32201615493E+03  0.93924609366E+01  0.23163688227E+03  0.39678491350E+03  0.00000000000E+00 0. -1.
        -13    1    5    5    0    0 -0.28001136925E+03 -0.65553333407E+02  0.15739744968E+03  0.32783770924E+03  0.00000000000E+00 0.  1.
          1    1    6    6  503    0  0.84936150157E+01 -0.26028260786E+03  0.20044633961E+03  0.32863035847E+03  0.00000000000E+00 0. -1.
         -1    1    6    6    0  503  0.45465125998E+01 -0.39788965844E+03  0.47133206284E+03  0.61683933445E+03  0.00000000000E+00 0.  1.
<mgrwt>
<rscale>  0 0.22693249E+04</rscale>
<asrwt>0</asrwt>
<pdfrwt beam="1">  1        2 0.30856579E+00 0.22693249E+04</pdfrwt>
<pdfrwt beam="2">  1       -1 0.98754951E-01 0.22693249E+04</pdfrwt>
<totfact> 0.67289526E+00</totfact>
</mgrwt>
</event>
<event>
12    7  0.1675873E-007  0.1542766E+04  0.7818608E-02  0.8856502E-01
          2   -1    0    0  501    0  0.00000000000E+00  0.00000000000E+00  0.11648499459E+04  0.11648499459E+04  0.00000000000E+00 0. -1.
         -1   -1    0    0    0  501 -0.00000000000E+00 -0.00000000000E+00 -0.51082280318E+03  0.51082280318E+03  0.00000000000E+00 0.  1.
         24    2    1    2    0    0  0.34999268794E+03  0.29638830388E+03  0.55350075970E+01  0.46546242048E+03  0.79269920453E+02 0.  0.
        254    2    1    2    0    0 -0.34999268794E+03 -0.29638830388E+03  0.64849213517E+03  0.12102103286E+04  0.91308602107E+03 0.  0.
         23    2    4    4    0    0 -0.36350666554E+03 -0.59886660237E+03  0.43151457727E+03  0.82724597806E+03  0.85748320608E+02 0.  0.
         23    2    4    4    0    0  0.13513977598E+02  0.30247829849E+03  0.21697755790E+03  0.38296435058E+03  0.88919539664E+02 0.  0.
          2    1    3    3  502    0  0.13224490466E+03  0.14787399686E+03  0.30488039365E+02  0.20071112151E+03  0.00000000000E+00 0. -1.
         -1    1    3    3    0  502  0.21774778328E+03  0.14851430702E+03 -0.24953031768E+02  0.26475129897E+03  0.00000000000E+00 0.  1.
         13    1    5    5    0    0 -0.41103223525E+02 -0.12017533907E+03  0.56800185741E+02  0.13913248437E+03  0.00000000000E+00 0. -1.
        -13    1    5    5    0    0 -0.32240344201E+03 -0.47869126330E+03  0.37471439153E+03  0.68811349369E+03  0.00000000000E+00 0.  1.
          2    1    6    6  503    0 -0.22704387305E+02  0.27264703822E+02  0.41343122628E+02  0.54480336508E+02  0.00000000000E+00 0. -1.
         -2    1    6    6    0  503  0.36218364904E+02  0.27521359467E+03  0.17563443527E+03  0.32848401407E+03  0.00000000000E+00 0.  1.
<mgrwt>
<rscale>  0 0.15427662E+04</rscale>
<asrwt>0</asrwt>
<pdfrwt beam="1">  1        2 0.17920768E+00 0.15427662E+04</pdfrwt>
<pdfrwt beam="2">  1       -1 0.78588124E-01 0.15427662E+04</pdfrwt>
<totfact> 0.35388938E+01</totfact>
</mgrwt>
</event>
<event>
12    7  0.1675873E-007  0.1319459E+04  0.7818608E-02  0.9014275E-01
         -1   -1    0    0    0  501 -0.00000000000E+00  0.00000000000E+00  0.64878961001E+03  0.64878961001E+03  0.00000000000E+00 0.  1.
          2   -1    0    0  501    0  0.00000000000E+00 -0.00000000000E+00 -0.67085367782E+03  0.67085367782E+03  0.00000000000E+00 0. -1.
         24    2    1    2    0    0  0.11907796346E+02  0.20069486653E+03 -0.28468565391E+03  0.35755973343E+03  0.79892530073E+02 0.  0.
        254    2    1    2    0    0 -0.11907796346E+02 -0.20069486653E+03  0.26262158610E+03  0.96208355441E+03  0.90344587171E+03 0.  0.
         23    2    4    4    0    0  0.35954586982E+03 -0.31974008342E+03  0.27370829595E+03  0.56092855734E+03  0.90651319481E+02 0.  0.
         23    2    4    4    0    0 -0.37145366617E+03  0.11904521689E+03 -0.11086709849E+02  0.40115499706E+03  0.93020571702E+02 0.  0.
          4    1    3    3  502    0  0.13592275432E+00  0.19857487729E+03 -0.28264208980E+03  0.34542517466E+03  0.00000000000E+00 0. -1.
         -3    1    3    3    0  502  0.11771873592E+02  0.21199892432E+01 -0.20435641172E+01  0.12134558771E+02  0.00000000000E+00 0.  1.
         13    1    5    5    0    0  0.19710533317E+02 -0.30645319723E+02  0.49866980073E+02  0.61760476408E+02  0.00000000000E+00 0.  1.
        -13    1    5    5    0    0  0.33983533650E+03 -0.28909476369E+03  0.22384131588E+03  0.49916808094E+03  0.00000000000E+00 0. -1.
          1    1    6    6  503    0 -0.19220152815E+03  0.15857976930E+02  0.10878776391E+02  0.19316120374E+03  0.00000000000E+00 0. -1.
         -1    1    6    6    0  503 -0.17925213802E+03  0.10318723996E+03 -0.21965486239E+02  0.20799379332E+03  0.00000000000E+00 0.  1.
<mgrwt>
<rscale>  0 0.13194588E+04</rscale>
<asrwt>0</asrwt>
<pdfrwt beam="1">  1        2 0.10320826E+00 0.13194588E+04</pdfrwt>
<pdfrwt beam="2">  1       -1 0.99813786E-01 0.13194588E+04</pdfrwt>
<totfact> 0.46293799E+01</totfact>
</mgrwt>
</event>
<event>
12    7  0.1744709E-007  0.2011467E+04  0.7818608E-02  0.8601278E-01
          2   -1    0    0  501    0  0.00000000000E+00  0.00000000000E+00  0.12913786813E+04  0.12913786813E+04  0.00000000000E+00 0. -1.
         -1   -1    0    0    0  501 -0.00000000000E+00 -0.00000000000E+00 -0.78327093640E+03  0.78327093640E+03  0.00000000000E+00 0.  1.
         24    2    1    2    0    0  0.64720386646E+03 -0.13417968570E+02  0.68450486170E+03  0.94555088141E+03  0.80415651494E+02 0.  0.
        254    2    1    2    0    0 -0.64720386646E+03  0.13417968570E+02 -0.17639711676E+03  0.11290987363E+04  0.90812726362E+03 0.  0.
         23    2    4    4    0    0 -0.53310352954E+02 -0.13084768784E+03 -0.42983743570E+03  0.46113716477E+03  0.89017708689E+02 0.  0.
         23    2    4    4    0    0 -0.59389351350E+03  0.14426565641E+03  0.25344031894E+03  0.66796157156E+03  0.91752824562E+02 0.  0.
          4    1    3    3  502    0  0.61178859552E+03 -0.20691315791E+02  0.66720698297E+03  0.90547146519E+03  0.00000000000E+00 0. -1.
         -3    1    3    3    0  502  0.35415270939E+02  0.72733472209E+01  0.17297878723E+02  0.40079416211E+02  0.00000000000E+00 0.  1.
         13    1    5    5    0    0 -0.72722011204E+01  0.14462685919E+01  0.15522951181E+01  0.75753694372E+01  0.00000000000E+00 0. -1.
        -13    1    5    5    0    0 -0.46038151834E+02 -0.13229395643E+03 -0.43138973081E+03  0.45356179533E+03  0.00000000000E+00 0.  1.
          3    1    6    6  503    0 -0.54396229012E+02  0.35558593989E+02  0.46887955464E+02  0.80136406862E+02  0.00000000000E+00 0. -1.
         -3    1    6    6    0  503 -0.53949728449E+03  0.10870706242E+03  0.20655236347E+03  0.58782516469E+03  0.00000000000E+00 0.  1.
<mgrwt>
<rscale>  0 0.20114665E+04</rscale>
<asrwt>0</asrwt>
<pdfrwt beam="1">  1        2 0.19867364E+00 0.20114665E+04</pdfrwt>
<pdfrwt beam="2">  1       -1 0.12050322E+00 0.20114665E+04</pdfrwt>
<totfact> 0.10843636E+01</totfact>
</mgrwt>
</event>
<event>
12    7  0.1675873E-007  0.1527836E+04  0.7818608E-02  0.8866151E-01
          2   -1    0    0  501    0  0.00000000000E+00  0.00000000000E+00  0.43206431091E+03  0.43206431091E+03  0.00000000000E+00 0. -1.
         -1   -1    0    0    0  501 -0.00000000000E+00 -0.00000000000E+00 -0.13506564961E+04  0.13506564961E+04  0.00000000000E+00 0.  1.
         24    2    1    2    0    0  0.43642569968E+03  0.97220050299E+02 -0.54278057691E+03  0.70758784868E+03  0.78426267311E+02 0.  0.
        254    2    1    2    0    0 -0.43642569968E+03 -0.97220050299E+02 -0.37581160824E+03  0.10751329583E+04  0.90263912147E+03 0.  0.
         23    2    4    4    0    0 -0.50849827073E+03 -0.10036970191E+03 -0.61543892313E+03  0.80979299816E+03  0.91406035685E+02 0.  0.
         23    2    4    4    0    0  0.72072571049E+02  0.31496516117E+01  0.23962731489E+03  0.26533996014E+03  0.88202429676E+02 0.  0.
          4    1    3    3  502    0  0.10538745137E+03  0.47393573296E+02 -0.18047452017E+03  0.21429819907E+03  0.00000000000E+00 0. -1.
         -3    1    3    3    0  502  0.33103824831E+03  0.49826477002E+02 -0.36230605674E+03  0.49328964961E+03  0.00000000000E+00 0.  1.
         13    1    5    5    0    0 -0.96897186743E+02 -0.56789235634E+02 -0.12517069211E+03  0.16817188899E+03  0.00000000000E+00 0.  1.
        -13    1    5    5    0    0 -0.41160108399E+03 -0.43580466276E+02 -0.49026823102E+03  0.64162110917E+03  0.00000000000E+00 0. -1.
          3    1    6    6  503    0  0.17481903473E+02 -0.31402154503E+02  0.15363198401E+03  0.15777990610E+03  0.00000000000E+00 0. -1.
         -3    1    6    6    0  503  0.54590667576E+02  0.34551806115E+02  0.85995330881E+02  0.10756005404E+03  0.00000000000E+00 0.  1.
<mgrwt>
<rscale>  0 0.15278357E+04</rscale>
<asrwt>0</asrwt>
<pdfrwt beam="1">  1        2 0.66471434E-01 0.15278357E+04</pdfrwt>
<pdfrwt beam="2">  1       -1 0.20779330E+00 0.15278357E+04</pdfrwt>
<totfact> 0.10690543E+01</totfact>
</mgrwt>
</event>
<event>
12    7  0.1675873E-007  0.1754959E+04  0.7818608E-02  0.8730625E-01
          2   -1    0    0  501    0  0.00000000000E+00  0.00000000000E+00  0.22077026632E+04  0.22077026632E+04  0.00000000000E+00 0. -1.
         -1   -1    0    0    0  501 -0.00000000000E+00 -0.00000000000E+00 -0.34876542668E+03  0.34876542668E+03  0.00000000000E+00 0.  1.
         24    2    1    2    0    0  0.24359435237E+03 -0.32167943198E+02 -0.17876299819E+03  0.31430438237E+03  0.80361994612E+02 0.  0.
        254    2    1    2    0    0 -0.24359435237E+03  0.32167943198E+02  0.20377002347E+04  0.22421637075E+04  0.90260891842E+03 0.  0.
         23    2    4    4    0    0  0.62355447874E+01 -0.12958896682E+03 -0.21271419736E+02  0.15974095938E+03  0.90733226915E+02 0.  0.
         23    2    4    4    0    0 -0.24982989715E+03  0.16175691002E+03  0.20589716544E+04  0.20824227481E+04  0.92411864048E+02 0.  0.
          4    1    3    3  502    0  0.58233259326E+02 -0.97062900942E+01 -0.50101107744E+01  0.59248846141E+02  0.00000000000E+00 0. -1.
         -3    1    3    3    0  502  0.18536109304E+03 -0.22461653103E+02 -0.17375288742E+03  0.25505553622E+03  0.00000000000E+00 0.  1.
         13    1    5    5    0    0  0.35278426453E+02 -0.12318516834E+03 -0.21892453740E+02  0.12999397141E+03  0.00000000000E+00 0. -1.
        -13    1    5    5    0    0 -0.29042881666E+02 -0.64037984859E+01  0.62103400385E+00  0.29746987978E+02  0.00000000000E+00 0.  1.
          2    1    6    6  503    0 -0.14026307147E+03  0.11292485775E+03  0.14969792675E+04  0.15077707651E+04  0.00000000000E+00 0. -1.
         -2    1    6    6    0  503 -0.10956682569E+03  0.48832052269E+02  0.56199238690E+03  0.57465198299E+03  0.00000000000E+00 0.  1.
<mgrwt>
<rscale>  0 0.17549591E+04</rscale>
<asrwt>0</asrwt>
<pdfrwt beam="1">  1        2 0.33964655E+00 0.17549591E+04</pdfrwt>
<pdfrwt beam="2">  1       -1 0.53656221E-01 0.17549591E+04</pdfrwt>
<totfact> 0.19342686E+01</totfact>
</mgrwt>
</event>
<event>
12    7  0.1675873E-007  0.3176334E+04  0.7818608E-02  0.8195095E-01
          2   -1    0    0  501    0  0.00000000000E+00  0.00000000000E+00  0.39508456166E+04  0.39508456166E+04  0.00000000000E+00 0. -1.
         -1   -1    0    0    0  501 -0.00000000000E+00 -0.00000000000E+00 -0.63841390521E+03  0.63841390521E+03  0.00000000000E+00 0.  1.
         24    2    1    2    0    0  0.13281319392E+04  0.49898277985E+03  0.20110214336E+04  0.24623167695E+04  0.76670753210E+02 0.  0.
        254    2    1    2    0    0 -0.13281319392E+04 -0.49898277985E+03  0.13014102778E+04  0.21269427523E+04  0.90404562821E+03 0.  0.
         23    2    4    4    0    0 -0.14021164226E+04 -0.33578012078E+03  0.97258113362E+03  0.17415950934E+04  0.92523813630E+02 0.  0.
         23    2    4    4    0    0  0.73984483342E+02 -0.16320265906E+03  0.32882914416E+03  0.38534765886E+03  0.90859234190E+02 0.  0.
          4    1    3    3  502    0  0.14191276314E+03  0.59920379185E+02  0.26047289643E+03  0.30261495991E+03  0.00000000000E+00 0. -1.
         -3    1    3    3    0  502  0.11862191761E+04  0.43906240066E+03  0.17505485372E+04  0.21597018096E+04  0.00000000000E+00 0.  1.
         13    1    5    5    0    0 -0.11898144552E+03 -0.49914553815E+02  0.68053624658E+02  0.14587440793E+03  0.00000000000E+00 0. -1.
        -13    1    5    5    0    0 -0.12831349770E+04 -0.28586556697E+03  0.90452750896E+03  0.15957206855E+04  0.00000000000E+00 0.  1.
          3    1    6    6  503    0  0.37874543142E+02 -0.10644406496E+03  0.11511401196E+03  0.16129493400E+03  0.00000000000E+00 0. -1.
         -3    1    6    6    0  503  0.36109940200E+02 -0.56758594101E+02  0.21371513220E+03  0.22405272486E+03  0.00000000000E+00 0.  1.
<mgrwt>
<rscale>  0 0.31763342E+04</rscale>
<asrwt>0</asrwt>
<pdfrwt beam="1">  1        2 0.60782239E+00 0.31763342E+04</pdfrwt>
<pdfrwt beam="2">  1       -1 0.98217527E-01 0.31763342E+04</pdfrwt>
<totfact> 0.35598029E-01</totfact>
</mgrwt>
</event>
<event>
12    7  0.1675873E-007  0.1672532E+04  0.7818608E-02  0.8777187E-01
          2   -1    0    0  501    0  0.00000000000E+00  0.00000000000E+00  0.83107731375E+03  0.83107731375E+03  0.00000000000E+00 0. -1.
         -1   -1    0    0    0  501 -0.00000000000E+00 -0.00000000000E+00 -0.84148726333E+03  0.84148726333E+03  0.00000000000E+00 0.  1.
         24    2    1    2    0    0 -0.28153179492E+03 -0.63211041580E+02 -0.51901985553E+03  0.59910063496E+03  0.79272776164E+02 0.  0.
        254    2    1    2    0    0  0.28153179492E+03  0.63211041580E+02  0.50860990596E+03  0.10734639421E+04  0.90021386974E+03 0.  0.
         23    2    4    4    0    0  0.51236943069E+03 -0.16398362153E+03  0.49514537973E+03  0.73666660532E+03  0.89975989516E+02 0.  0.
         23    2    4    4    0    0 -0.23083763577E+03  0.22719466311E+03  0.13464526235E+02  0.33679733680E+03  0.91365877527E+02 0.  0.
          4    1    3    3  502    0 -0.38080039515E+01 -0.12665591220E+02 -0.84610207622E+01  0.15700540353E+02  0.00000000000E+00 0. -1.
         -3    1    3    3    0  502 -0.27772379097E+03 -0.50545450360E+02 -0.51055883477E+03  0.58340009461E+03  0.00000000000E+00 0.  1.
         13    1    5    5    0    0  0.47804907297E+03 -0.12656337129E+03  0.44392602729E+03  0.66454459656E+03  0.00000000000E+00 0. -1.
        -13    1    5    5    0    0  0.34320357724E+02 -0.37420250248E+02  0.51219352436E+02  0.72122008755E+02  0.00000000000E+00 0.  1.
          1    1    6    6  503    0 -0.21003590334E+03  0.21532370343E+03 -0.13032449350E+02  0.30108009347E+03  0.00000000000E+00 0. -1.
         -1    1    6    6    0  503 -0.20801732435E+02  0.11870959681E+02  0.26496975584E+02  0.35717243331E+02  0.00000000000E+00 0.  1.
<mgrwt>
<rscale>  0 0.16725322E+04</rscale>
<asrwt>0</asrwt>
<pdfrwt beam="1">  1        2 0.12785805E+00 0.16725322E+04</pdfrwt>
<pdfrwt beam="2">  1       -1 0.12945958E+00 0.16725322E+04</pdfrwt>
<totfact> 0.18260771E+01</totfact>
</mgrwt>
</event>
<event>
12    7  0.1675873E-007  0.1430551E+04  0.7818608E-02  0.8931996E-01
         -1   -1    0    0    0  501 -0.00000000000E+00  0.00000000000E+00  0.12960795926E+04  0.12960795926E+04  0.00000000000E+00 0.  1.
          2   -1    0    0  501    0  0.00000000000E+00 -0.00000000000E+00 -0.39474362768E+03  0.39474362768E+03  0.00000000000E+00 0. -1.
         24    2    1    2    0    0 -0.28006361290E+03  0.26822574973E+03  0.49878125865E+03  0.63737309187E+03  0.84148881005E+02 0.  0.
        254    2    1    2    0    0  0.28006361290E+03 -0.26822574973E+03  0.40255470627E+03  0.10534501284E+04  0.89293124115E+03 0.  0.
         23    2    4    4    0    0  0.29332636728E+02  0.17720546087E+03 -0.18255576217E+03  0.27118619450E+03  0.89180529511E+02 0.  0.
         23    2    4    4    0    0  0.25073097617E+03 -0.44543121060E+03  0.58511046844E+03  0.78226393391E+03  0.91146125749E+02 0.  0.
          4    1    3    3  502    0 -0.99825968617E+01  0.39830765776E+02  0.34010759861E+02  0.53318607715E+02  0.00000000000E+00 0. -1.
         -3    1    3    3    0  502 -0.27008101604E+03  0.22839498395E+03  0.46477049879E+03  0.58405448416E+03  0.00000000000E+00 0.  1.
         13    1    5    5    0    0  0.43092576431E+02  0.46658568553E+02 -0.30971254380E+02  0.70662654640E+02  0.00000000000E+00 0. -1.
        -13    1    5    5    0    0 -0.13759939703E+02  0.13054689232E+03 -0.15158450779E+03  0.20052353986E+03  0.00000000000E+00 0.  1.
          3    1    6    6  503    0  0.49193430918E+02 -0.17366998509E+03  0.21783132224E+03  0.28289881992E+03  0.00000000000E+00 0. -1.
         -3    1    6    6    0  503  0.20153754525E+03 -0.27176122552E+03  0.36727914620E+03  0.49936511399E+03  0.00000000000E+00 0.  1.
<mgrwt>
<rscale>  0 0.14305512E+04</rscale>
<asrwt>0</asrwt>
<pdfrwt beam="1">  1        2 0.60729790E-01 0.14305512E+04</pdfrwt>
<pdfrwt beam="2">  1       -1 0.19939686E+00 0.14305512E+04</pdfrwt>
<totfact> 0.13628167E+01</totfact>
</mgrwt>
</event>
<event>
12    7  0.1675873E-007  0.1603779E+04  0.7818608E-02  0.8818230E-01
         -1   -1    0    0    0  501 -0.00000000000E+00  0.00000000000E+00  0.60052825260E+03  0.60052825260E+03  0.00000000000E+00 0.  1.
          2   -1    0    0  501    0  0.00000000000E+00 -0.00000000000E+00 -0.10707686625E+04  0.10707686625E+04  0.00000000000E+00 0. -1.
         24    2    1    2    0    0 -0.21173525900E+03 -0.41415579113E+03 -0.46885231137E+03  0.66538126064E+03  0.80949940719E+02 0.  0.
        254    2    1    2    0    0  0.21173525900E+03  0.41415579113E+03 -0.13880985278E+01  0.10059156545E+04  0.89191229268E+03 0.  0.
         23    2    4    4    0    0  0.48504060672E+02  0.39864291232E+03  0.39304223584E+03  0.56930280509E+03  0.91403880055E+02 0.  0.
         23    2    4    4    0    0  0.16323119833E+03  0.15512878812E+02 -0.39443033437E+03  0.43661284937E+03  0.90390364804E+02 0.  0.
          4    1    3    3  502    0 -0.14680399454E+03 -0.35544213986E+03 -0.37912385644E+03  0.54002354219E+03  0.00000000000E+00 0. -1.
         -3    1    3    3    0  502 -0.64931264459E+02 -0.58713651270E+02 -0.89728454932E+02  0.12535771845E+03  0.00000000000E+00 0.  1.
         13    1    5    5    0    0  0.57239621027E+02  0.39644329042E+03  0.39161193510E+03  0.56018172449E+03  0.00000000000E+00 0. -1.
        -13    1    5    5    0    0 -0.87355603552E+01  0.21996218957E+01  0.14303007393E+01  0.91210806052E+01  0.00000000000E+00 0.  1.
          4    1    6    6  503    0  0.16141072892E+03  0.36392907112E+02 -0.33587337271E+03  0.37441793439E+03  0.00000000000E+00 0. -1.
         -4    1    6    6    0  503  0.18204694083E+01 -0.20880028300E+02 -0.58556961656E+02  0.62194914977E+02  0.00000000000E+00 0.  1.
<mgrwt>
<rscale>  0 0.16037791E+04</rscale>
<asrwt>0</asrwt>
<pdfrwt beam="1">  1        2 0.16473364E+00 0.16037791E+04</pdfrwt>
<pdfrwt beam="2">  1       -1 0.92388963E-01 0.16037791E+04</pdfrwt>
<totfact> 0.28316945E+01</totfact>
</mgrwt>
</event>
<event>
12    7  0.1675873E-007  0.1155835E+04  0.7818608E-02  0.9152417E-01
         -1   -1    0    0    0  501 -0.00000000000E+00  0.00000000000E+00  0.18118980330E+03  0.18118980330E+03  0.00000000000E+00 0.  1.
          2   -1    0    0  501    0  0.00000000000E+00 -0.00000000000E+00 -0.18433086568E+04  0.18433086568E+04  0.00000000000E+00 0. -1.
         24    2    1    2    0    0  0.71931147927E+02  0.17464323719E+03 -0.26955400229E+03  0.33869916828E+03  0.79896283433E+02 0.  0.
        254    2    1    2    0    0 -0.71931147927E+02 -0.17464323719E+03 -0.13925648512E+04  0.16857992918E+04  0.93113266356E+03 0.  0.
         23    2    4    4    0    0  0.47225284738E+01 -0.10180886602E+03  0.11053364966E+03  0.17624196724E+03  0.91957576267E+02 0.  0.
         23    2    4    4    0    0 -0.76653676401E+02 -0.72834371164E+02 -0.15030985008E+04  0.15095573245E+04  0.90981213312E+02 0.  0.
          2    1    3    3  502    0  0.80833283157E+02  0.15677305249E+03 -0.26481372182E+03  0.31817937853E+03  0.00000000000E+00 0. -1.
         -1    1    3    3    0  502 -0.89021352303E+01  0.17870184693E+02 -0.47402804670E+01  0.20519789754E+02  0.00000000000E+00 0.  1.
         13    1    5    5    0    0 -0.40959991054E+01  0.17010216411E+02  0.20194608400E+02  0.26719784420E+02  0.00000000000E+00 0. -1.
        -13    1    5    5    0    0  0.88185275792E+01 -0.11881908243E+03  0.90339041260E+02  0.14952218282E+03  0.00000000000E+00 0.  1.
          1    1    6    6  503    0 -0.80828308182E+02 -0.51999124846E+02 -0.74663383004E+03  0.75279426177E+03  0.00000000000E+00 0. -1.
         -1    1    6    6    0  503  0.41746317816E+01 -0.20835246318E+02 -0.75646467079E+03  0.75676306278E+03  0.00000000000E+00 0.  1.
<mgrwt>
<rscale>  0 0.11558352E+04</rscale>
<asrwt>0</asrwt>
<pdfrwt beam="1">  1        2 0.28358596E+00 0.11558352E+04</pdfrwt>
<pdfrwt beam="2">  1       -1 0.27875353E-01 0.11558352E+04</pdfrwt>
<totfact> 0.10685003E+02</totfact>
</mgrwt>
</event>
<event>
12    7  0.1675873E-007  0.3143358E+04  0.7818608E-02  0.8203938E-01
         -1   -1    0    0    0  501 -0.00000000000E+00  0.00000000000E+00  0.26855962732E+04  0.26855962732E+04  0.00000000000E+00 0.  1.
          2   -1    0    0  501    0  0.00000000000E+00 -0.00000000000E+00 -0.91978657235E+03  0.91978657235E+03  0.00000000000E+00 0. -1.
         24    2    1    2    0    0 -0.10168242673E+04 -0.63549518345E+03 -0.10992994205E+03  0.12068563711E+04  0.81437028643E+02 0.  0.
        254    2    1    2    0    0  0.10168242673E+04  0.63549518345E+03  0.18757396429E+04  0.23985264744E+04  0.89260535626E+03 0.  0.
         23    2    4    4    0    0  0.21346916220E+03  0.35875727573E+03  0.12988886663E+04  0.13674926000E+04  0.92996652595E+02 0.  0.
         23    2    4    4    0    0  0.80335510505E+03  0.27673790772E+03  0.57685097653E+03  0.10310338744E+04  0.91161980702E+02 0.  0.
          2    1    3    3  502    0 -0.51500397124E+03 -0.34100253575E+03 -0.94081466627E+02  0.62479047860E+03  0.00000000000E+00 0. -1.
         -1    1    3    3    0  502 -0.50182029601E+03 -0.29449264770E+03 -0.15848475425E+02  0.58206589250E+03  0.00000000000E+00 0.  1.
         13    1    5    5    0    0  0.16781033748E+03  0.31195457218E+03  0.98216095095E+03  0.10440862503E+04  0.00000000000E+00 0.  1.
        -13    1    5    5    0    0  0.45658824720E+02  0.46802703550E+02  0.31672771539E+03  0.32340634971E+03  0.00000000000E+00 0. -1.
          2    1    6    6  503    0  0.52893600322E+03  0.22158188881E+03  0.41280410545E+03  0.70659681462E+03  0.00000000000E+00 0. -1.
         -2    1    6    6    0  503  0.27441910183E+03  0.55156018916E+02  0.16404687108E+03  0.32443705982E+03  0.00000000000E+00 0.  1.
<mgrwt>
<rscale>  0 0.31433583E+04</rscale>
<asrwt>0</asrwt>
<pdfrwt beam="1">  1        2 0.14150563E+00 0.31433583E+04</pdfrwt>
<pdfrwt beam="2">  1       -1 0.41316865E+00 0.31433583E+04</pdfrwt>
<totfact> 0.15915988E-01</totfact>
</mgrwt>
</event>
<event>
12    7  0.1675873E-007  0.2894360E+04  0.7818608E-02  0.8274558E-01
          2   -1    0    0  501    0  0.00000000000E+00  0.00000000000E+00  0.25891694101E+04  0.25891694101E+04  0.00000000000E+00 0. -1.
         -1   -1    0    0    0  501 -0.00000000000E+00 -0.00000000000E+00 -0.80888080681E+03  0.80888080681E+03  0.00000000000E+00 0.  1.
         24    2    1    2    0    0 -0.29106084536E+03 -0.11694784011E+04  0.21087876028E+03  0.12260685436E+04  0.79862856450E+02 0.  0.
        254    2    1    2    0    0  0.29106084536E+03  0.11694784011E+04  0.15694098430E+04  0.21719816733E+04  0.89557857703E+03 0.  0.
         23    2    4    4    0    0  0.48751919522E+03  0.11843635438E+04  0.12962076577E+04  0.18246048144E+04  0.92932596208E+02 0.  0.
         23    2    4    4    0    0 -0.19645834986E+03 -0.14885142763E+02  0.27320218535E+03  0.34737685888E+03  0.84934076215E+02 0.  0.
          4    1    3    3  502    0 -0.10317243086E+02 -0.13261025404E+03  0.35250144712E+02  0.13760268051E+03  0.00000000000E+00 0. -1.
         -3    1    3    3    0  502 -0.28074360227E+03 -0.10368681470E+04  0.17562861557E+03  0.10884658631E+04  0.00000000000E+00 0.  1.
         13    1    5    5    0    0  0.44494874342E+03  0.10321549799E+04  0.11002803517E+04  0.15728763903E+04  0.00000000000E+00 0.  1.
        -13    1    5    5    0    0  0.42570451796E+02  0.15220856388E+03  0.19592730599E+03  0.25172842414E+03  0.00000000000E+00 0. -1.
          4    1    6    6  503    0 -0.31889169090E+02  0.28821542338E+02  0.40728823950E+02  0.59215179712E+02  0.00000000000E+00 0. -1.
         -4    1    6    6    0  503 -0.16456918077E+03 -0.43706685101E+02  0.23247336140E+03  0.28816167917E+03  0.00000000000E+00 0.  1.
<mgrwt>
<rscale>  0 0.28943596E+04</rscale>
<asrwt>0</asrwt>
<pdfrwt beam="1">  1        2 0.39833375E+00 0.28943596E+04</pdfrwt>
<pdfrwt beam="2">  1       -1 0.12444320E+00 0.28943596E+04</pdfrwt>
<totfact> 0.17146036E+00</totfact>
</mgrwt>
</event>
<event>
12    7  0.1675873E-007  0.1349964E+04  0.7818608E-02  0.8990855E-01
          2   -1    0    0  501    0  0.00000000000E+00  0.00000000000E+00  0.82523508333E+03  0.82523508333E+03  0.00000000000E+00 0. -1.
         -1   -1    0    0    0  501 -0.00000000000E+00 -0.00000000000E+00 -0.55208581414E+03  0.55208581414E+03  0.00000000000E+00 0.  1.
         24    2    1    2    0    0 -0.12946748252E+03  0.31828797831E+03 -0.39509672259E+02  0.35453592863E+03  0.77882246510E+02 0.  0.
        254    2    1    2    0    0  0.12946748252E+03 -0.31828797831E+03  0.31265894145E+03  0.10227849688E+04  0.91118846165E+03 0.  0.
         23    2    4    4    0    0 -0.14515849471E+03  0.24122180386E+03 -0.42639150158E+02  0.29962104611E+03  0.93250881515E+02 0.  0.
         23    2    4    4    0    0  0.27462597722E+03 -0.55950978217E+03  0.35529809161E+03  0.72316392273E+03  0.90877398353E+02 0.  0.
          4    1    3    3  502    0 -0.65262785844E+02  0.10215204955E+03  0.16165709336E+02  0.12229310120E+03  0.00000000000E+00 0. -1.
         -3    1    3    3    0  502 -0.64204696672E+02  0.21613592875E+03 -0.55675381595E+02  0.23224282742E+03  0.00000000000E+00 0.  1.
         13    1    5    5    0    0 -0.15511805944E+03  0.22404993500E+03 -0.52401459225E+02  0.27749936696E+03  0.00000000000E+00 0. -1.
        -13    1    5    5    0    0  0.99595647342E+01  0.17171868863E+02  0.97623090665E+01  0.22121679146E+02  0.00000000000E+00 0.  1.
          1    1    6    6  503    0  0.78776206399E+02 -0.26266330789E+03  0.15664122965E+03  0.31580718617E+03  0.00000000000E+00 0. -1.
         -1    1    6    6    0  503  0.19584977082E+03 -0.29684647427E+03  0.19865686195E+03  0.40735673656E+03  0.00000000000E+00 0.  1.
<mgrwt>
<rscale>  0 0.13499638E+04</rscale>
<asrwt>0</asrwt>
<pdfrwt beam="1">  1        2 0.12695924E+00 0.13499638E+04</pdfrwt>
<pdfrwt beam="2">  1       -1 0.84936279E-01 0.13499638E+04</pdfrwt>
<totfact> 0.50543554E+01</totfact>
</mgrwt>
</event>
<event>
12    7  0.1675873E-007  0.1043825E+04  0.7818608E-02  0.9261743E-01
         -3   -1    0    0    0  501 -0.00000000000E+00  0.00000000000E+00  0.18881885160E+04  0.18881885160E+04  0.00000000000E+00 0.  1.
          4   -1    0    0  501    0  0.00000000000E+00 -0.00000000000E+00 -0.14426128793E+03  0.14426128793E+03  0.00000000000E+00 0. -1.
         24    2    1    2    0    0  0.85833112606E+02  0.40993943080E+02  0.23673229670E+03  0.26792857481E+03  0.81827344519E+02 0.  0.
        254    2    1    2    0    0 -0.85833112606E+02 -0.40993943080E+02  0.15071949314E+04  0.17645212291E+04  0.91260658570E+03 0.  0.
         23    2    4    4    0    0 -0.29139625999E+03 -0.39408582104E+03  0.84572246645E+03  0.98191976552E+03  0.93298022331E+02 0.  0.
         23    2    4    4    0    0  0.20556314739E+03  0.35309187796E+03  0.66147246490E+03  0.78260146358E+03  0.89382029116E+02 0.  0.
          2    1    3    3  502    0  0.46546048589E+02  0.14832673293E+02  0.33372782583E+02  0.59163210305E+02  0.00000000000E+00 0. -1.
         -1    1    3    3    0  502  0.39287064016E+02  0.26161269787E+02  0.20335951411E+03  0.20876536450E+03  0.00000000000E+00 0.  1.
         13    1    5    5    0    0 -0.16937003407E+03 -0.15548785434E+03  0.42176776859E+03  0.48036520681E+03  0.00000000000E+00 0. -1.
        -13    1    5    5    0    0 -0.12202622593E+03 -0.23859796670E+03  0.42395469786E+03  0.50155455871E+03  0.00000000000E+00 0.  1.
          4    1    6    6  503    0  0.21810869471E+02  0.11276882259E+02  0.15547314394E+02  0.29062021358E+02  0.00000000000E+00 0. -1.
         -4    1    6    6    0  503  0.18375227792E+03  0.34181499570E+03  0.64592515051E+03  0.75353944222E+03  0.00000000000E+00 0.  1.
<mgrwt>
<rscale>  0 0.10438247E+04</rscale>
<asrwt>0</asrwt>
<pdfrwt beam="1">  1        4 0.22194046E-01 0.10438247E+04</pdfrwt>
<pdfrwt beam="2">  1       -3 0.29049052E+00 0.10438247E+04</pdfrwt>
<totfact> 0.18906556E+00</totfact>
</mgrwt>
</event>
<event>
12    7  0.1675873E-007  0.1523613E+04  0.7818608E-02  0.8868901E-01
         -1   -1    0    0    0  501 -0.00000000000E+00  0.00000000000E+00  0.48735969833E+03  0.48735969833E+03  0.00000000000E+00 0.  1.
          2   -1    0    0  501    0  0.00000000000E+00 -0.00000000000E+00 -0.11908024781E+04  0.11908024781E+04  0.00000000000E+00 0. -1.
         24    2    1    2    0    0  0.28527199976E+03 -0.24190216297E+03  0.12477775431E+03  0.40218852145E+03  0.79305412941E+02 0.  0.
        254    2    1    2    0    0 -0.28527199976E+03  0.24190216297E+03 -0.82822053406E+03  0.12759736550E+04  0.89569121066E+03 0.  0.
         23    2    4    4    0    0 -0.11217257233E+03 -0.13653107423E+03  0.12508968332E+03  0.23158778094E+03  0.82231692150E+02 0.  0.
         23    2    4    4    0    0 -0.17309942742E+03  0.37843323719E+03 -0.95331021738E+03  0.10443858740E+04  0.93628823205E+02 0.  0.
          4    1    3    3  502    0  0.69289419564E+02 -0.99741878575E+02  0.19473973005E+02  0.12299878711E+03  0.00000000000E+00 0. -1.
         -3    1    3    3    0  502  0.21598258019E+03 -0.14216028439E+03  0.10530378130E+03  0.27918973434E+03  0.00000000000E+00 0.  1.
         13    1    5    5    0    0 -0.93828007562E+02 -0.14307829350E+03  0.94887566160E+02  0.19564954200E+03  0.00000000000E+00 0.  1.
        -13    1    5    5    0    0 -0.18344564771E+02  0.65472192751E+01  0.30202117159E+02  0.35938238935E+02  0.00000000000E+00 0. -1.
          2    1    6    6  503    0 -0.13742826166E+02  0.78098580532E+02 -0.26619094608E+03  0.27775145963E+03  0.00000000000E+00 0. -1.
         -2    1    6    6    0  503 -0.15935660126E+03  0.30033465666E+03 -0.68711927130E+03  0.76663441441E+03  0.00000000000E+00 0.  1.
<mgrwt>
<rscale>  0 0.15236130E+04</rscale>
<asrwt>0</asrwt>
<pdfrwt beam="1">  1        2 0.18320038E+00 0.15236130E+04</pdfrwt>
<pdfrwt beam="2">  1       -1 0.74978416E-01 0.15236130E+04</pdfrwt>
<totfact> 0.37745904E+01</totfact>
</mgrwt>
</event>
<event>
12    7  0.1675873E-007  0.1951384E+04  0.7818608E-02  0.8629694E-01
         -1   -1    0    0    0  501 -0.00000000000E+00  0.00000000000E+00  0.77551829126E+03  0.77551829126E+03  0.00000000000E+00 0.  1.
          2   -1    0    0  501    0  0.00000000000E+00 -0.00000000000E+00 -0.12275332089E+04  0.12275332089E+04  0.00000000000E+00 0. -1.
         24    2    1    2    0    0 -0.48516336257E+03 -0.15905237725E+03 -0.73320810775E+03  0.89712790182E+03  0.81013553522E+02 0.  0.
        254    2    1    2    0    0  0.48516336257E+03  0.15905237725E+03  0.28119319011E+03  0.11059235983E+04  0.93984905603E+03 0.  0.
         23    2    4    4    0    0  0.64550086657E+03  0.30349489111E+03  0.42107421198E+03  0.83275657383E+03  0.86020355685E+02 0.  0.
         23    2    4    4    0    0 -0.16033750400E+03 -0.14444251387E+03 -0.13988102188E+03  0.27316702451E+03  0.92096514591E+02 0.  0.
          2    1    3    3  502    0 -0.15050847632E+03 -0.47069451244E+02 -0.29486667783E+03  0.33438703979E+03  0.00000000000E+00 0. -1.
         -1    1    3    3    0  502 -0.33465488626E+03 -0.11198292600E+03 -0.43834142992E+03  0.56274086203E+03  0.00000000000E+00 0.  1.
         13    1    5    5    0    0  0.59849049040E+03  0.25389881860E+03  0.38153343247E+03  0.75380583526E+03  0.00000000000E+00 0.  1.
        -13    1    5    5    0    0  0.47010376176E+02  0.49596072514E+02  0.39540779512E+02  0.78950738574E+02  0.00000000000E+00 0. -1.
          3    1    6    6  503    0 -0.95931547805E+01 -0.55999472786E+02 -0.16274346406E+02  0.59100117782E+02  0.00000000000E+00 0. -1.
         -3    1    6    6    0  503 -0.15074434922E+03 -0.88443041080E+02 -0.12360667547E+03  0.21406690673E+03  0.00000000000E+00 0.  1.
<mgrwt>
<rscale>  0 0.19513836E+04</rscale>
<asrwt>0</asrwt>
<pdfrwt beam="1">  1        2 0.18885126E+00 0.19513836E+04</pdfrwt>
<pdfrwt beam="2">  1       -1 0.11931051E+00 0.19513836E+04</pdfrwt>
<totfact> 0.12178605E+01</totfact>
</mgrwt>
</event>
<event>
12    7  0.1675873E-007  0.1119367E+04  0.7818608E-02  0.9186519E-01
          2   -1    0    0  501    0  0.00000000000E+00  0.00000000000E+00  0.28611257588E+04  0.28611257588E+04  0.00000000000E+00 0. -1.
         -1   -1    0    0    0  501 -0.00000000000E+00 -0.00000000000E+00 -0.10948325488E+03  0.10948325488E+03  0.00000000000E+00 0.  1.
         24    2    1    2    0    0  0.59256298853E+01 -0.92060796201E+02  0.94722799761E+03  0.95506122361E+03  0.79942217207E+02 0.  0.
        254    2    1    2    0    0 -0.59256298853E+01  0.92060796201E+02  0.18044145063E+04  0.20155477901E+04  0.89331454718E+03 0.  0.
         23    2    4    4    0    0  0.21496460003E+03  0.92685754168E+02  0.17531307426E+04  0.17710572611E+04  0.91520450759E+02 0.  0.
         23    2    4    4    0    0 -0.22089022991E+03 -0.62495796666E+00  0.51283763696E+02  0.24449052903E+03  0.91393162345E+02 0.  0.
          2    1    3    3  502    0  0.29278130313E+02 -0.59977644272E+02  0.79322554555E+03  0.79602844977E+03  0.00000000000E+00 0. -1.
         -1    1    3    3    0  502 -0.23352500428E+02 -0.32083151929E+02  0.15400245206E+03  0.15903277384E+03  0.00000000000E+00 0.  1.
         13    1    5    5    0    0  0.19618221239E+03  0.10976904244E+03  0.16204562998E+04  0.16359753430E+04  0.00000000000E+00 0.  1.
        -13    1    5    5    0    0  0.18782387635E+02 -0.17083288269E+02  0.13267444281E+03  0.13508191810E+03  0.00000000000E+00 0. -1.
          2    1    6    6  503    0 -0.11656067766E+03  0.45150294711E+02  0.22931777608E+02  0.12708582578E+03  0.00000000000E+00 0. -1.
         -2    1    6    6    0  503 -0.10432955225E+03 -0.45775252678E+02  0.28351986088E+02  0.11740470325E+03  0.00000000000E+00 0.  1.
<mgrwt>
<rscale>  0 0.11193665E+04</rscale>
<asrwt>0</asrwt>
<pdfrwt beam="1">  1        2 0.44017314E+00 0.11193665E+04</pdfrwt>
<pdfrwt beam="2">  1       -1 0.16843580E-01 0.11193665E+04</pdfrwt>
<totfact> 0.66219869E+01</totfact>
</mgrwt>
</event>
<event>
12    7  0.1675873E-007  0.2311747E+04  0.7818608E-02  0.8473304E-01
         -1   -1    0    0    0  501 -0.00000000000E+00  0.00000000000E+00  0.97418317342E+03  0.97418317342E+03  0.00000000000E+00 0.  1.
          2   -1    0    0  501    0  0.00000000000E+00 -0.00000000000E+00 -0.13714503558E+04  0.13714503558E+04  0.00000000000E+00 0. -1.
         24    2    1    2    0    0  0.18270070051E+03  0.69761651226E+03  0.47824518696E+03  0.86957422464E+03  0.85979818307E+02 0.  0.
        254    2    1    2    0    0 -0.18270070051E+03 -0.69761651226E+03 -0.87551236938E+03  0.14760593046E+04  0.94455323706E+03 0.  0.
         23    2    4    4    0    0 -0.36739142904E+03 -0.39319621997E+03 -0.21795590397E+02  0.54633310444E+03  0.91788254830E+02 0.  0.
         23    2    4    4    0    0  0.18469072853E+03 -0.30442029230E+03 -0.85371677898E+03  0.92972620017E+03  0.93680782415E+02 0.  0.
          2    1    3    3  502    0  0.39745839074E+01  0.13726508248E+03  0.75197928919E+02  0.15656381670E+03  0.00000000000E+00 0. -1.
         -1    1    3    3    0  502  0.17872611661E+03  0.56035142978E+03  0.40304725804E+03  0.71301040794E+03  0.00000000000E+00 0.  1.
         13    1    5    5    0    0 -0.68941857205E+02 -0.49749194351E+02 -0.32985735941E+02  0.91192218906E+02  0.00000000000E+00 0.  1.
        -13    1    5    5    0    0 -0.29844957183E+03 -0.34344702562E+03  0.11190145544E+02  0.45514088554E+03  0.00000000000E+00 0. -1.
          3    1    6    6  503    0  0.13243648053E+03 -0.13266459355E+03 -0.47349779664E+03  0.50925384552E+03  0.00000000000E+00 0. -1.
         -3    1    6    6    0  503  0.52254248000E+02 -0.17175569875E+03 -0.38021898234E+03  0.42047235464E+03  0.00000000000E+00 0.  1.
<mgrwt>
<rscale>  0 0.23117473E+04</rscale>
<asrwt>0</asrwt>
<pdfrwt beam="1">  1        2 0.21099236E+00 0.23117473E+04</pdfrwt>
<pdfrwt beam="2">  1       -1 0.14987434E+00 0.23117473E+04</pdfrwt>
<totfact> 0.54237460E+00</totfact>
</mgrwt>
</event>
<event>
12    7  0.1675873E-007  0.2333906E+04  0.7818608E-02  0.8464671E-01
          2   -1    0    0  501    0  0.00000000000E+00  0.00000000000E+00  0.17503242481E+04  0.17503242481E+04  0.00000000000E+00 0. -1.
         -1   -1    0    0    0  501 -0.00000000000E+00 -0.00000000000E+00 -0.77801578038E+03  0.77801578038E+03  0.00000000000E+00 0.  1.
         24    2    1    2    0    0  0.89423925240E+02 -0.60694052742E+03 -0.42927536511E+03  0.75319698844E+03  0.81577705766E+02 0.  0.
        254    2    1    2    0    0 -0.89423925240E+02  0.60694052742E+03  0.14015838329E+04  0.17751430401E+04  0.90017894329E+03 0.  0.
         23    2    4    4    0    0 -0.37124078966E+03  0.46332080187E+03  0.12973124380E+04  0.14298193076E+04  0.94222085063E+02 0.  0.
         23    2    4    4    0    0  0.28181686442E+03  0.14361972554E+03  0.10427139488E+03  0.34532373246E+03  0.91261085746E+02 0.  0.
          2    1    3    3  502    0  0.11481109894E+02 -0.27887978347E+03 -0.16035337764E+03  0.32189898296E+03  0.00000000000E+00 0. -1.
         -1    1    3    3    0  502  0.77942815346E+02 -0.32806074395E+03 -0.26892198747E+03  0.43129800548E+03  0.00000000000E+00 0.  1.
         13    1    5    5    0    0 -0.36767340640E+03  0.46804249006E+03  0.12830504832E+04  0.14143783258E+04  0.00000000000E+00 0.  1.
        -13    1    5    5    0    0 -0.35673832634E+01 -0.47216881832E+01  0.14261954823E+02  0.15440981770E+02  0.00000000000E+00 0. -1.
          4    1    6    6  503    0  0.18328808197E+03  0.67102292126E+02  0.10271695438E+03  0.22056294185E+03  0.00000000000E+00 0.  1.
         -4    1    6    6    0  503  0.98528782450E+02  0.76517433418E+02  0.15544405029E+01  0.12476079061E+03  0.00000000000E+00 0. -1.
<mgrwt>
<rscale>  0 0.23339065E+04</rscale>
<asrwt>0</asrwt>
<pdfrwt beam="1">  1        2 0.26928065E+00 0.23339065E+04</pdfrwt>
<pdfrwt beam="2">  1       -1 0.11969474E+00 0.23339065E+04</pdfrwt>
<totfact> 0.58961323E+00</totfact>
</mgrwt>
</event>
<event>
12    7  0.1675873E-007  0.2187216E+04  0.7818608E-02  0.8523768E-01
          2   -1    0    0  501    0  0.00000000000E+00  0.00000000000E+00  0.11525080178E+04  0.11525080178E+04  0.00000000000E+00 0. -1.
         -1   -1    0    0    0  501 -0.00000000000E+00 -0.00000000000E+00 -0.10377183004E+04  0.10377183004E+04  0.00000000000E+00 0.  1.
         24    2    1    2    0    0  0.86696063880E+03 -0.22972560952E+03  0.90705991814E+01  0.90082872845E+03  0.83758685128E+02 0.  0.
        254    2    1    2    0    0 -0.86696063880E+03  0.22972560952E+03  0.10571911820E+03  0.12893975898E+04  0.92031245110E+03 0.  0.
         23    2    4    4    0    0 -0.15025144672E+03  0.32623975187E+03 -0.28033555845E+03  0.46454386151E+03  0.90582012501E+02 0.  0.
         23    2    4    4    0    0 -0.71670919209E+03 -0.96514142357E+02  0.38605467665E+03  0.82485372827E+03  0.91424362061E+02 0.  0.
          4    1    3    3  502    0  0.79612029146E+03 -0.22591725539E+03  0.25738000056E+02  0.82795444887E+03  0.00000000000E+00 0. -1.
         -3    1    3    3    0  502  0.70840347339E+02 -0.38083541305E+01 -0.16667400875E+02  0.72874279579E+02  0.00000000000E+00 0.  1.
         13    1    5    5    0    0 -0.36868883707E+02  0.78431516068E+02 -0.22851355515E+02  0.89627014607E+02  0.00000000000E+00 0. -1.
        -13    1    5    5    0    0 -0.11338256301E+03  0.24780823581E+03 -0.25748420293E+03  0.37491684690E+03  0.00000000000E+00 0.  1.
          2    1    6    6  503    0 -0.63421337469E+03 -0.68044653221E+02  0.36566631122E+03  0.73523365717E+03  0.00000000000E+00 0.  1.
         -2    1    6    6    0  503 -0.82495817396E+02 -0.28469489135E+02  0.20388365430E+02  0.89620071103E+02  0.00000000000E+00 0. -1.
<mgrwt>
<rscale>  0 0.21872162E+04</rscale>
<asrwt>0</asrwt>
<pdfrwt beam="1">  1        2 0.17730893E+00 0.21872162E+04</pdfrwt>
<pdfrwt beam="2">  1       -1 0.15964897E+00 0.21872162E+04</pdfrwt>
<totfact> 0.62061114E+00</totfact>
</mgrwt>
</event>
<event>
12    7  0.1675873E-007  0.1489197E+04  0.7818608E-02  0.8891669E-01
          2   -1    0    0  501    0  0.00000000000E+00  0.00000000000E+00  0.64748637486E+03  0.64748637486E+03  0.00000000000E+00 0. -1.
         -1   -1    0    0    0  501 -0.00000000000E+00 -0.00000000000E+00 -0.85627574597E+03  0.85627574597E+03  0.00000000000E+00 0.  1.
         24    2    1    2    0    0 -0.16009673470E+02 -0.68705125665E+02 -0.53411526137E+03  0.54487219397E+03  0.81424145065E+02 0.  0.
        254    2    1    2    0    0  0.16009673470E+02  0.68705125665E+02  0.32532589026E+03  0.95888992686E+03  0.89925316404E+03 0.  0.
         23    2    4    4    0    0 -0.20253785578E+03  0.30972955511E+03  0.45647735758E+03  0.59505047793E+03  0.93592269778E+02 0.  0.
         23    2    4    4    0    0  0.21854752925E+03 -0.24102442945E+03 -0.13115146733E+03  0.36383944893E+03  0.96553814435E+02 0.  0.
          2    1    3    3  502    0  0.16222910034E+02 -0.28576353941E+02 -0.63955144669E+02  0.71903069087E+02  0.00000000000E+00 0. -1.
         -1    1    3    3    0  502 -0.32232583504E+02 -0.40128771724E+02 -0.47016011670E+03  0.47296912488E+03  0.00000000000E+00 0.  1.
         13    1    5    5    0    0 -0.17329947896E+03  0.29160230183E+03  0.44334179252E+03  0.55822625954E+03  0.00000000000E+00 0.  1.
        -13    1    5    5    0    0 -0.29238376823E+02  0.18127253283E+02  0.13135565064E+02  0.36824218394E+02  0.00000000000E+00 0. -1.
          4    1    6    6  503    0  0.16345128285E+03 -0.11564582651E+03 -0.57388242872E+02  0.20828751636E+03  0.00000000000E+00 0. -1.
         -4    1    6    6    0  503  0.55096246407E+02 -0.12537860294E+03 -0.73763224455E+02  0.15555193257E+03  0.00000000000E+00 0.  1.
<mgrwt>
<rscale>  0 0.14891969E+04</rscale>
<asrwt>0</asrwt>
<pdfrwt beam="1">  1        2 0.99613288E-01 0.14891969E+04</pdfrwt>
<pdfrwt beam="2">  1       -1 0.13173473E+00 0.14891969E+04</pdfrwt>
<totfact> 0.24479964E+01</totfact>
</mgrwt>
</event>
<event>
12    7  0.1675873E-007  0.1141751E+04  0.7818608E-02  0.9165428E-01
          2   -1    0    0  501    0  0.00000000000E+00  0.00000000000E+00  0.17121230233E+04  0.17121230233E+04  0.00000000000E+00 0. -1.
         -1   -1    0    0    0  501 -0.00000000000E+00 -0.00000000000E+00 -0.19034767699E+03  0.19034767699E+03  0.00000000000E+00 0.  1.
         24    2    1    2    0    0  0.14013458263E+03  0.69842877221E+02  0.51370389936E+03  0.54227066319E+03  0.75166795834E+02 0.  0.
        254    2    1    2    0    0 -0.14013458263E+03 -0.69842877221E+02  0.10080714469E+04  0.13602000371E+04  0.89967792572E+03 0.  0.
         23    2    4    4    0    0 -0.50083727391E+03 -0.15110958331E+03  0.55536323418E+03  0.76837289330E+03  0.91085126003E+02 0.  0.
         23    2    4    4    0    0  0.36070269128E+03  0.81266706094E+02  0.45270821276E+03  0.59182714379E+03  0.92757388959E+02 0.  0.
          2    1    3    3  502    0  0.13178541575E+03  0.78759746628E+02  0.50339649660E+03  0.52628749395E+03  0.00000000000E+00 0. -1.
         -1    1    3    3    0  502  0.83491668780E+01 -0.89168694072E+01  0.10307402760E+02  0.15983169249E+02  0.00000000000E+00 0.  1.
         13    1    5    5    0    0 -0.48366655915E+03 -0.15772645921E+03  0.51445109202E+03  0.72351289032E+03  0.00000000000E+00 0.  1.
        -13    1    5    5    0    0 -0.17170714761E+02  0.66168758944E+01  0.40912142157E+02  0.44860002985E+02  0.00000000000E+00 0. -1.
          1    1    6    6  503    0  0.42659121139E+02 -0.50394886985E+01  0.10151156758E+03  0.11022611041E+03  0.00000000000E+00 0. -1.
         -1    1    6    6    0  503  0.31804357014E+03  0.86306194792E+02  0.35119664518E+03  0.48160103338E+03  0.00000000000E+00 0.  1.
<mgrwt>
<rscale>  0 0.11417507E+04</rscale>
<asrwt>0</asrwt>
<pdfrwt beam="1">  1        2 0.26340353E+00 0.11417507E+04</pdfrwt>
<pdfrwt beam="2">  1       -1 0.29284259E-01 0.11417507E+04</pdfrwt>
<totfact> 0.11597681E+02</totfact>
</mgrwt>
</event>
<event>
12    7  0.1675873E-007  0.3337131E+04  0.7818608E-02  0.8153511E-01
         -1   -1    0    0    0  501 -0.00000000000E+00  0.00000000000E+00  0.72515490449E+03  0.72515490449E+03  0.00000000000E+00 0.  1.
          2   -1    0    0  501    0  0.00000000000E+00 -0.00000000000E+00 -0.38393324086E+04  0.38393324086E+04  0.00000000000E+00 0. -1.
         24    2    1    2    0    0 -0.67926557072E+03 -0.48137317688E+03  0.33682966238E+03  0.90182714769E+03  0.81952009507E+02 0.  0.
        254    2    1    2    0    0  0.67926557072E+03  0.48137317688E+03 -0.34510071665E+04  0.36626601654E+04  0.90139179773E+03 0.  0.
         23    2    4    4    0    0 -0.17525370099E+02  0.48081401442E+03 -0.10082589223E+04  0.11208283930E+04  0.90448753842E+02 0.  0.
         23    2    4    4    0    0  0.69679094082E+03  0.55916245365E+00 -0.24427482441E+04  0.25418317723E+04  0.91497796986E+02 0.  0.
          2    1    3    3  502    0 -0.21903748774E+03 -0.10985440800E+03  0.94095913933E+02  0.26248705303E+03  0.00000000000E+00 0. -1.
         -1    1    3    3    0  502 -0.46022808298E+03 -0.37151876888E+03  0.24273374845E+03  0.63934009466E+03  0.00000000000E+00 0.  1.
         13    1    5    5    0    0  0.21940612536E+02  0.30834797774E+02 -0.75993743858E+02  0.84895372888E+02  0.00000000000E+00 0. -1.
        -13    1    5    5    0    0 -0.39465982636E+02  0.44997921665E+03 -0.93226517848E+03  0.10359330201E+04  0.00000000000E+00 0.  1.
          4    1    6    6  503    0  0.12883407089E+03  0.26958755582E+02 -0.54996583294E+03  0.56549748870E+03  0.00000000000E+00 0. -1.
         -4    1    6    6    0  503  0.56795686993E+03 -0.26399593129E+02 -0.18927824112E+04  0.19763342836E+04  0.00000000000E+00 0.  1.
<mgrwt>
<rscale>  0 0.33371309E+04</rscale>
<asrwt>0</asrwt>
<pdfrwt beam="1">  1        2 0.59066652E+00 0.33371309E+04</pdfrwt>
<pdfrwt beam="2">  1       -1 0.11156229E+00 0.33371309E+04</pdfrwt>
<totfact> 0.31907912E-01</totfact>
</mgrwt>
</event>
<event>
12    7  0.1675873E-007  0.2729195E+04  0.7818608E-02  0.8325594E-01
          2   -1    0    0  501    0  0.00000000000E+00  0.00000000000E+00  0.12678180968E+04  0.12678180968E+04  0.00000000000E+00 0. -1.
         -1   -1    0    0    0  501 -0.00000000000E+00 -0.00000000000E+00 -0.14687642271E+04  0.14687642271E+04  0.00000000000E+00 0.  1.
         24    2    1    2    0    0 -0.17369085691E+03  0.10752037027E+04 -0.64914763884E+03  0.12701712576E+04  0.75570168434E+02 0.  0.
        254    2    1    2    0    0  0.17369085691E+03 -0.10752037027E+04  0.44820150854E+03  0.14664110664E+04  0.87363911729E+03 0.  0.
         23    2    4    4    0    0  0.47467251482E+03 -0.53442825044E+03  0.43325553765E+03  0.84053071923E+03  0.88622671336E+02 0.  0.
         23    2    4    4    0    0 -0.30098165792E+03 -0.54077545231E+03  0.14945970891E+02  0.62588034718E+03  0.92058561331E+02 0.  0.
          4    1    3    3  502    0 -0.16106018747E+02  0.23025378463E+03 -0.11138462011E+03  0.25628644673E+03  0.00000000000E+00 0. -1.
         -3    1    3    3    0  502 -0.15758483816E+03  0.84494991812E+03 -0.53776301873E+03  0.10138848108E+04  0.00000000000E+00 0.  1.
         13    1    5    5    0    0  0.13110037227E+03 -0.10450788769E+03  0.13012435812E+03  0.21222995730E+03  0.00000000000E+00 0.  1.
        -13    1    5    5    0    0  0.34357214256E+03 -0.42992036275E+03  0.30313117952E+03  0.62830076193E+03  0.00000000000E+00 0. -1.
          1    1    6    6  503    0 -0.13722360464E+03 -0.17733028142E+03 -0.23222382653E+02  0.22542321405E+03  0.00000000000E+00 0. -1.
         -1    1    6    6    0  503 -0.16375805328E+03 -0.36344517089E+03  0.38168353544E+02  0.40045713312E+03  0.00000000000E+00 0.  1.
<mgrwt>
<rscale>  0 0.27291947E+04</rscale>
<asrwt>0</asrwt>
<pdfrwt beam="1">  1        2 0.19504894E+00 0.27291947E+04</pdfrwt>
<pdfrwt beam="2">  1       -1 0.22596373E+00 0.27291947E+04</pdfrwt>
<totfact> 0.17285527E+00</totfact>
</mgrwt>
</event>
<event>
12    7  0.1675873E-007  0.1164723E+04  0.7818608E-02  0.9144308E-01
         -1   -1    0    0    0  501 -0.00000000000E+00  0.00000000000E+00  0.54234467712E+03  0.54234467712E+03  0.00000000000E+00 0.  1.
          2   -1    0    0  501    0  0.00000000000E+00 -0.00000000000E+00 -0.62533074516E+03  0.62533074516E+03  0.00000000000E+00 0. -1.
         24    2    1    2    0    0 -0.85468217463E+02  0.14756590157E+03 -0.17251161031E+03  0.25594323887E+03  0.81646643103E+02 0.  0.
        254    2    1    2    0    0  0.85468217463E+02 -0.14756590157E+03  0.89525542271E+02  0.91173218341E+03  0.89115668659E+03 0.  0.
         23    2    4    4    0    0 -0.63462170538E+01 -0.11434439939E+03  0.47850983454E+03  0.50007860445E+03  0.89398169674E+02 0.  0.
         23    2    4    4    0    0  0.91814434517E+02 -0.33221502178E+02 -0.38898429227E+03  0.41165357896E+03  0.92824193219E+02 0.  0.
          4    1    3    3  502    0 -0.97462915359E+02  0.11074128410E+03 -0.11714820933E+03  0.18837822280E+03  0.00000000000E+00 0. -1.
         -3    1    3    3    0  502  0.11994697897E+02  0.36824617465E+02 -0.55363400972E+02  0.67565016067E+02  0.00000000000E+00 0.  1.
         13    1    5    5    0    0  0.28523112943E+02 -0.31670412209E+01  0.10073083569E+03  0.10473919696E+03  0.00000000000E+00 0. -1.
        -13    1    5    5    0    0 -0.34869329997E+02 -0.11117735817E+03  0.37777899885E+03  0.39533940749E+03  0.00000000000E+00 0.  1.
          1    1    6    6  503    0 -0.75091127839E+01 -0.28279310036E+02 -0.45776770635E+02  0.54328803417E+02  0.00000000000E+00 0. -1.
         -1    1    6    6    0  503  0.99323547301E+02 -0.49421921413E+01 -0.34320752163E+03  0.35732477554E+03  0.00000000000E+00 0.  1.
<mgrwt>
<rscale>  0 0.11647228E+04</rscale>
<asrwt>0</asrwt>
<pdfrwt beam="1">  1        2 0.96204731E-01 0.11647228E+04</pdfrwt>
<pdfrwt beam="2">  1       -1 0.83437642E-01 0.11647228E+04</pdfrwt>
<totfact> 0.75993005E+01</totfact>
</mgrwt>
</event>
<event>
12    7  0.1675873E-007  0.2037262E+04  0.7818608E-02  0.8589395E-01
         -1   -1    0    0    0  501 -0.00000000000E+00  0.00000000000E+00  0.14540560253E+04  0.14540560253E+04  0.00000000000E+00 0.  1.
          2   -1    0    0  501    0  0.00000000000E+00 -0.00000000000E+00 -0.71359629954E+03  0.71359629954E+03  0.00000000000E+00 0. -1.
         24    2    1    2    0    0  0.53886078348E+03  0.41934725080E+03 -0.17364131305E+03  0.70916250319E+03  0.80852270240E+02 0.  0.
        254    2    1    2    0    0 -0.53886078348E+03 -0.41934725080E+03  0.91410103882E+03  0.14584898217E+04  0.90850910286E+03 0.  0.
         23    2    4    4    0    0 -0.77345349660E+03 -0.41167208327E+03  0.67184831536E+03  0.11083702517E+04  0.96954836698E+02 0.  0.
         23    2    4    4    0    0  0.23459271312E+03 -0.76751675284E+01  0.24225272346E+03  0.35011957000E+03  0.93833267179E+02 0.  0.
          2    1    3    3  502    0  0.53797467537E+03  0.40550392294E+03 -0.17089137523E+03  0.69502089536E+03  0.00000000000E+00 0. -1.
         -1    1    3    3    0  502  0.88610810454E+00  0.13843327859E+02 -0.27499378200E+01  0.14141607822E+02  0.00000000000E+00 0.  1.
         13    1    5    5    0    0 -0.28988805523E+03 -0.10203587911E+03  0.23170331217E+03  0.38488028017E+03  0.00000000000E+00 0.  1.
        -13    1    5    5    0    0 -0.48356544137E+03 -0.30963620415E+03  0.44014500319E+03  0.72348997148E+03  0.00000000000E+00 0. -1.
          1    1    6    6  503    0  0.23791335812E+03 -0.90012705546E+01  0.20938566295E+03  0.31705858244E+03  0.00000000000E+00 0. -1.
         -1    1    6    6    0  503 -0.33206450058E+01  0.13261030262E+01  0.32867060507E+02  0.33060987566E+02  0.00000000000E+00 0.  1.
<mgrwt>
<rscale>  0 0.20372619E+04</rscale>
<asrwt>0</asrwt>
<pdfrwt beam="1">  1        2 0.10978405E+00 0.20372619E+04</pdfrwt>
<pdfrwt beam="2">  1       -1 0.22370093E+00 0.20372619E+04</pdfrwt>
<totfact> 0.43938992E+00</totfact>
</mgrwt>
</event>
<event>
12    7  0.1675873E-007  0.2058107E+04  0.7818608E-02  0.8579926E-01
         -1   -1    0    0    0  501 -0.00000000000E+00  0.00000000000E+00  0.44734704452E+03  0.44734704452E+03  0.00000000000E+00 0.  1.
          2   -1    0    0  501    0  0.00000000000E+00 -0.00000000000E+00 -0.23671799875E+04  0.23671799875E+04  0.00000000000E+00 0. -1.
         24    2    1    2    0    0 -0.69738523193E+03 -0.37614048820E+03 -0.44823292807E+03  0.91388080608E+03  0.80234290278E+02 0.  0.
        254    2    1    2    0    0  0.69738523193E+03  0.37614048820E+03 -0.14716000149E+04  0.19006462259E+04  0.90499814571E+03 0.  0.
         23    2    4    4    0    0  0.51201696007E+03  0.62352443682E+03 -0.73163033879E+03  0.10929455688E+04  0.91120650506E+02 0.  0.
         23    2    4    4    0    0  0.18536827186E+03 -0.24738394861E+03 -0.73996967611E+03  0.80770065716E+03  0.96254951988E+02 0.  0.
          4    1    3    3  502    0 -0.57018470528E+03 -0.31798830483E+03 -0.33423122658E+03  0.73344234468E+03  0.00000000000E+00 0. -1.
         -3    1    3    3    0  502 -0.12720052665E+03 -0.58152183372E+02 -0.11400170149E+03  0.18043846140E+03  0.00000000000E+00 0.  1.
         13    1    5    5    0    0  0.38895665222E+03  0.52530402006E+03 -0.60901972777E+03  0.89338492243E+03  0.00000000000E+00 0. -1.
        -13    1    5    5    0    0  0.12306030785E+03  0.98220416753E+02 -0.12261061102E+03  0.19956064635E+03  0.00000000000E+00 0.  1.
          3    1    6    6  503    0  0.14837499766E+03 -0.24050051801E+03 -0.60783417059E+03  0.67031188116E+03  0.00000000000E+00 0. -1.
         -3    1    6    6    0  503  0.36993274193E+02 -0.68834306075E+01 -0.13213550552E+03  0.13738877600E+03  0.00000000000E+00 0.  1.
<mgrwt>
<rscale>  0 0.20581069E+04</rscale>
<asrwt>0</asrwt>
<pdfrwt beam="1">  1        2 0.36418153E+00 0.20581069E+04</pdfrwt>
<pdfrwt beam="2">  1       -1 0.68822624E-01 0.20581069E+04</pdfrwt>
<totfact> 0.93362457E+00</totfact>
</mgrwt>
</event>
<event>
12    7  0.1675873E-007  0.2697076E+04  0.7818608E-02  0.8335954E-01
          2   -1    0    0  501    0  0.00000000000E+00  0.00000000000E+00  0.17365920419E+04  0.17365920419E+04  0.00000000000E+00 0. -1.
         -1   -1    0    0    0  501 -0.00000000000E+00 -0.00000000000E+00 -0.10471970553E+04  0.10471970553E+04  0.00000000000E+00 0.  1.
         24    2    1    2    0    0 -0.63522565593E+03  0.85431899187E+03  0.85275655268E+03  0.13663421806E+04  0.79527620455E+02 0.  0.
        254    2    1    2    0    0  0.63522565593E+03 -0.85431899187E+03 -0.16336156603E+03  0.14174469167E+04  0.92146415367E+03 0.  0.
         23    2    4    4    0    0 -0.10180029624E+03  0.11732722049E+03  0.13500325570E+01  0.18360663363E+03  0.97880520749E+02 0.  0.
         23    2    4    4    0    0  0.73702595217E+03 -0.97164621236E+03 -0.16471159859E+03  0.12338402830E+04  0.89041098316E+02 0.  0.
          4    1    3    3  502    0 -0.63025979705E+03  0.84899378723E+03  0.85372882775E+03  0.13589962376E+04  0.00000000000E+00 0. -1.
         -3    1    3    3    0  502 -0.49658588707E+01  0.53252046398E+01 -0.97227507152E+00  0.73459429343E+01  0.00000000000E+00 0.  1.
         13    1    5    5    0    0 -0.87325294601E+02  0.11112777268E+03  0.35740716197E+02  0.14578232998E+03  0.00000000000E+00 0.  1.
        -13    1    5    5    0    0 -0.14475001640E+02  0.61994478039E+01 -0.34390683640E+02  0.37824303652E+02  0.00000000000E+00 0. -1.
          3    1    6    6  503    0  0.32904598111E+03 -0.43225054034E+03 -0.28771450104E+02  0.54400329379E+03  0.00000000000E+00 0. -1.
         -3    1    6    6    0  503  0.40797997105E+03 -0.53939567201E+03 -0.13594014848E+03  0.68983698925E+03  0.00000000000E+00 0.  1.
<mgrwt>
<rscale>  0 0.26970755E+04</rscale>
<asrwt>0</asrwt>
<pdfrwt beam="1">  1        2 0.26716801E+00 0.26970755E+04</pdfrwt>
<pdfrwt beam="2">  1       -1 0.16110724E+00 0.26970755E+04</pdfrwt>
<totfact> 0.26794640E+00</totfact>
</mgrwt>
</event>
<event>
12    7  0.1675873E-007  0.1966763E+04  0.7818608E-02  0.8622320E-01
          2   -1    0    0  501    0  0.00000000000E+00  0.00000000000E+00  0.10506927045E+04  0.10506927045E+04  0.00000000000E+00 0. -1.
         -1   -1    0    0    0  501 -0.00000000000E+00 -0.00000000000E+00 -0.92038230115E+03  0.92038230115E+03  0.00000000000E+00 0.  1.
         24    2    1    2    0    0  0.64132003310E+03  0.37662174279E+03  0.24565052807E+03  0.78760556010E+03  0.82722514237E+02 0.  0.
        254    2    1    2    0    0 -0.64132003310E+03 -0.37662174279E+03 -0.11534012467E+03  0.11834694456E+04  0.91332429197E+03 0.  0.
         23    2    4    4    0    0 -0.24667283282E+03  0.22594241087E+03 -0.27272682598E+03  0.44133282090E+03  0.92180679728E+02 0.  0.
         23    2    4    4    0    0 -0.39464720028E+03 -0.60256415366E+03  0.15738670131E+03  0.74213662469E+03  0.84653552777E+02 0.  0.
          4    1    3    3  502    0  0.29170642935E+03  0.18911317357E+03  0.15513340508E+03  0.38068728204E+03  0.00000000000E+00 0. -1.
         -3    1    3    3    0  502  0.34961360375E+03  0.18750856922E+03  0.90517122993E+02  0.40691827805E+03  0.00000000000E+00 0.  1.
         13    1    5    5    0    0 -0.23256702283E+03  0.22951987539E+03 -0.23970671050E+03  0.40524819601E+03  0.00000000000E+00 0. -1.
        -13    1    5    5    0    0 -0.14105809990E+02 -0.35774645164E+01 -0.33020115475E+02  0.36084624895E+02  0.00000000000E+00 0.  1.
          2    1    6    6  503    0 -0.14055661710E+03 -0.23676807593E+03  0.20129926948E+02  0.27608060118E+03  0.00000000000E+00 0. -1.
         -2    1    6    6    0  503 -0.25409058318E+03 -0.36579607773E+03  0.13725677436E+03  0.46605602351E+03  0.00000000000E+00 0.  1.
<mgrwt>
<rscale>  0 0.19667628E+04</rscale>
<asrwt>0</asrwt>
<pdfrwt beam="1">  1        2 0.16164503E+00 0.19667628E+04</pdfrwt>
<pdfrwt beam="2">  1       -1 0.14159728E+00 0.19667628E+04</pdfrwt>
<totfact> 0.10110017E+01</totfact>
</mgrwt>
</event>
<event>
12    7  0.1675873E-007  0.1730102E+04  0.7818608E-02  0.8744380E-01
         -1   -1    0    0    0  501 -0.00000000000E+00  0.00000000000E+00  0.97057915223E+03  0.97057915223E+03  0.00000000000E+00 0.  1.
          2   -1    0    0  501    0  0.00000000000E+00 -0.00000000000E+00 -0.77099628111E+03  0.77099628111E+03  0.00000000000E+00 0. -1.
         24    2    1    2    0    0  0.14813146859E+03  0.23747687913E+03 -0.48988869647E+03  0.56990555897E+03  0.80394098672E+02 0.  0.
        254    2    1    2    0    0 -0.14813146859E+03 -0.23747687913E+03  0.68947156759E+03  0.11716698744E+04  0.90504201664E+03 0.  0.
         23    2    4    4    0    0 -0.33638913314E+03 -0.50152081148E+03  0.44679755795E+03  0.75664169883E+03  0.90541865350E+02 0.  0.
         23    2    4    4    0    0  0.18825766455E+03  0.26404393235E+03  0.24267400964E+03  0.41502817554E+03  0.90540405689E+02 0.  0.
          2    1    3    3  502    0  0.90744575893E+02  0.20372984266E+03 -0.35060073023E+03  0.41552532881E+03  0.00000000000E+00 0. -1.
         -1    1    3    3    0  502  0.57386892695E+02  0.33747036476E+02 -0.13928796624E+03  0.15438023016E+03  0.00000000000E+00 0.  1.
         13    1    5    5    0    0 -0.10859944190E+03 -0.23721777926E+03  0.17179287526E+03  0.31237622439E+03  0.00000000000E+00 0. -1.
        -13    1    5    5    0    0 -0.22778969124E+03 -0.26430303222E+03  0.27500468269E+03  0.44426547444E+03  0.00000000000E+00 0.  1.
          2    1    6    6  503    0  0.14025595976E+01  0.42893918046E+02  0.11211546487E+02  0.44357120662E+02  0.00000000000E+00 0. -1.
         -2    1    6    6    0  503  0.18685510496E+03  0.22115001430E+03  0.23146246315E+03  0.37067105488E+03  0.00000000000E+00 0.  1.
<mgrwt>
<rscale>  0 0.17301016E+04</rscale>
<asrwt>0</asrwt>
<pdfrwt beam="1">  1        2 0.11861481E+00 0.17301016E+04</pdfrwt>
<pdfrwt beam="2">  1       -1 0.14931987E+00 0.17301016E+04</pdfrwt>
<totfact> 0.13847412E+01</totfact>
</mgrwt>
</event>
<event>
12    7  0.1675873E-007  0.2245265E+04  0.7818608E-02  0.8499821E-01
          2   -1    0    0  501    0  0.00000000000E+00  0.00000000000E+00  0.32921647998E+04  0.32921647998E+04  0.00000000000E+00 0. -1.
         -1   -1    0    0    0  501 -0.00000000000E+00 -0.00000000000E+00 -0.38281904695E+03  0.38281904695E+03  0.00000000000E+00 0.  1.
         24    2    1    2    0    0  0.76133385216E+02  0.22848492177E+03  0.27052052024E+04  0.27170872689E+04  0.80164753329E+02 0.  0.
        254    2    1    2    0    0 -0.76133385216E+02 -0.22848492177E+03  0.20414055041E+03  0.95789657786E+03  0.90437317394E+03 0.  0.
         23    2    4    4    0    0 -0.32798215048E+03 -0.19883985624E+03  0.44604775727E+03  0.59531089879E+03  0.91251767062E+02 0.  0.
         23    2    4    4    0    0  0.25184876527E+03 -0.29645065525E+02 -0.24190720686E+03  0.36258567907E+03  0.92965840283E+02 0.  0.
          4    1    3    3  502    0  0.87072392337E+02  0.17028884128E+03  0.22349062726E+04  0.22430751076E+04  0.00000000000E+00 0. -1.
         -3    1    3    3    0  502 -0.10939007121E+02  0.58196080485E+02  0.47029892978E+03  0.47401216125E+03  0.00000000000E+00 0.  1.
         13    1    5    5    0    0 -0.97338480171E+02 -0.74709545081E+02  0.85033306184E+02  0.14928817438E+03  0.00000000000E+00 0. -1.
        -13    1    5    5    0    0 -0.23064367031E+03 -0.12413031116E+03  0.36101445108E+03  0.44602272442E+03  0.00000000000E+00 0.  1.
          3    1    6    6  503    0 -0.97112853705E+00  0.46835052662E+01 -0.31548120587E+02  0.31908654387E+02  0.00000000000E+00 0. -1.
         -3    1    6    6    0  503  0.25281989380E+03 -0.34328570791E+02 -0.21035908627E+03  0.33067702468E+03  0.00000000000E+00 0.  1.
<mgrwt>
<rscale>  0 0.22452647E+04</rscale>
<asrwt>0</asrwt>
<pdfrwt beam="1">  1        2 0.50648687E+00 0.22452647E+04</pdfrwt>
<pdfrwt beam="2">  1       -1 0.58895240E-01 0.22452647E+04</pdfrwt>
<totfact> 0.34202715E+00</totfact>
</mgrwt>
</event>
<event>
12    7  0.1675873E-007  0.1987499E+04  0.7818608E-02  0.8612487E-01
         -1   -1    0    0    0  501 -0.00000000000E+00  0.00000000000E+00  0.56642814421E+03  0.56642814421E+03  0.00000000000E+00 0.  1.
          2   -1    0    0  501    0  0.00000000000E+00 -0.00000000000E+00 -0.17434489509E+04  0.17434489509E+04  0.00000000000E+00 0. -1.
         24    2    1    2    0    0 -0.69761565873E+03 -0.30953534837E+03 -0.43419778734E+03  0.88309939105E+03  0.94112043533E+02 0.  0.
        254    2    1    2    0    0  0.69761565873E+03  0.30953534837E+03 -0.74282301931E+03  0.14267777040E+04  0.94943606393E+03 0.  0.
         23    2    4    4    0    0  0.23505349628E+03 -0.73769325382E+02  0.18209359025E+03  0.32036183012E+03  0.93710016035E+02 0.  0.
         23    2    4    4    0    0  0.46256216245E+03  0.38330467375E+03 -0.92491660957E+03  0.11064158739E+04  0.88312651045E+02 0.  0.
          4    1    3    3  502    0 -0.43494502531E+03 -0.20602409287E+03 -0.32324239658E+03  0.57974886704E+03  0.00000000000E+00 0. -1.
         -3    1    3    3    0  502 -0.26267063342E+03 -0.10351125549E+03 -0.11095539076E+03  0.30335052401E+03  0.00000000000E+00 0.  1.
         13    1    5    5    0    0  0.50007872252E+02 -0.59673491586E+02  0.58616047069E+02  0.97455394203E+02  0.00000000000E+00 0.  1.
        -13    1    5    5    0    0  0.18504562402E+03 -0.14095833796E+02  0.12347754318E+03  0.22290643591E+03  0.00000000000E+00 0. -1.
          3    1    6    6  503    0  0.35930565322E+03  0.29283075613E+03 -0.64080634535E+03  0.79087494360E+03  0.00000000000E+00 0. -1.
         -3    1    6    6    0  503  0.10325650924E+03  0.90473917620E+02 -0.28411026421E+03  0.31554093031E+03  0.00000000000E+00 0.  1.
<mgrwt>
<rscale>  0 0.19874995E+04</rscale>
<asrwt>0</asrwt>
<pdfrwt beam="1">  1        2 0.26822292E+00 0.19874995E+04</pdfrwt>
<pdfrwt beam="2">  1       -1 0.87142791E-01 0.19874995E+04</pdfrwt>
<totfact> 0.12739988E+01</totfact>
</mgrwt>
</event>
<event>
12    7  0.1675873E-007  0.2568797E+04  0.7818608E-02  0.8378878E-01
         -1   -1    0    0    0  501 -0.00000000000E+00  0.00000000000E+00  0.33999512758E+03  0.33999512758E+03  0.00000000000E+00 0.  1.
          2   -1    0    0  501    0  0.00000000000E+00 -0.00000000000E+00 -0.48520677005E+04  0.48520677005E+04  0.00000000000E+00 0. -1.
         24    2    1    2    0    0 -0.48432306718E+03 -0.65633082258E+03 -0.41750389190E+03  0.92079542553E+03  0.90640685415E+02 0.  0.
        254    2    1    2    0    0  0.48432306718E+03  0.65633082258E+03 -0.40945686810E+04  0.42712674025E+04  0.90160609936E+03 0.  0.
         23    2    4    4    0    0  0.63214812848E+03  0.77354562518E+03 -0.35097903255E+04  0.36503564908E+04  0.92142770721E+02 0.  0.
         23    2    4    4    0    0 -0.14782506129E+03 -0.11721480259E+03 -0.58477835548E+03  0.62091091174E+03  0.89292085775E+02 0.  0.
          4    1    3    3  502    0 -0.19133106206E+03 -0.31279425644E+03 -0.22311171129E+03  0.42921632994E+03  0.00000000000E+00 0. -1.
         -3    1    3    3    0  502 -0.29299200512E+03 -0.34353656615E+03 -0.19439218061E+03  0.49157909560E+03  0.00000000000E+00 0.  1.
         13    1    5    5    0    0  0.47651380957E+03  0.59775256021E+03 -0.25393963051E+04  0.26519628822E+04  0.00000000000E+00 0.  1.
        -13    1    5    5    0    0  0.15563431890E+03  0.17579306496E+03 -0.97039402038E+03  0.99839360860E+03  0.00000000000E+00 0. -1.
          1    1    6    6  503    0 -0.33799593802E+02 -0.99347479987E+01 -0.36542701877E+02  0.50759046675E+02  0.00000000000E+00 0. -1.
         -1    1    6    6    0  503 -0.11402546749E+03 -0.10728005459E+03 -0.54823565360E+03  0.57015186506E+03  0.00000000000E+00 0.  1.
<mgrwt>
<rscale>  0 0.25687969E+04</rscale>
<asrwt>0</asrwt>
<pdfrwt beam="1">  1        2 0.74647193E+00 0.25687969E+04</pdfrwt>
<pdfrwt beam="2">  1       -1 0.52306944E-01 0.25687969E+04</pdfrwt>
<totfact> 0.19396784E-01</totfact>
</mgrwt>
</event>
<event>
12    7  0.1675873E-007  0.2350375E+04  0.7818608E-02  0.8458320E-01
          2   -1    0    0  501    0  0.00000000000E+00  0.00000000000E+00  0.23241245285E+04  0.23241245285E+04  0.00000000000E+00 0. -1.
         -1   -1    0    0    0  501 -0.00000000000E+00 -0.00000000000E+00 -0.59423025381E+03  0.59423025381E+03  0.00000000000E+00 0.  1.
         24    2    1    2    0    0 -0.57599901037E+03 -0.22117844864E+03 -0.24179827392E+03  0.66741296365E+03  0.79239464192E+02 0.  0.
        254    2    1    2    0    0  0.57599901037E+03  0.22117844864E+03  0.19716925486E+04  0.22509418187E+04  0.89357305168E+03 0.  0.
         23    2    4    4    0    0  0.62057869403E+02 -0.22135448873E+03  0.11568257216E+03  0.27278937521E+03  0.90457707747E+02 0.  0.
         23    2    4    4    0    0  0.51394114097E+03  0.44253293737E+03  0.18560099765E+04  0.19781524435E+04  0.91340898965E+02 0.  0.
          2    1    3    3  502    0 -0.18506508149E+02 -0.29658875308E+01  0.57049068975E+01  0.19591663926E+02  0.00000000000E+00 0. -1.
         -1    1    3    3    0  502 -0.55749250222E+03 -0.21821256111E+03 -0.24750318082E+03  0.64782129972E+03  0.00000000000E+00 0.  1.
         13    1    5    5    0    0  0.36924274466E+02 -0.21685839428E+03  0.11244513323E+03  0.24705236935E+03  0.00000000000E+00 0. -1.
        -13    1    5    5    0    0  0.25133594937E+02 -0.44960944481E+01  0.32374389293E+01  0.25737005859E+02  0.00000000000E+00 0.  1.
          1    1    6    6  503    0  0.22613079978E+03  0.25113160563E+03  0.87117531829E+03  0.93442423832E+03  0.00000000000E+00 0. -1.
         -1    1    6    6    0  503  0.28781034119E+03  0.19140133174E+03  0.98483465818E+03  0.10437282052E+04  0.00000000000E+00 0.  1.
<mgrwt>
<rscale>  0 0.23503745E+04</rscale>
<asrwt>0</asrwt>
<pdfrwt beam="1">  1        2 0.35755762E+00 0.23503745E+04</pdfrwt>
<pdfrwt beam="2">  1       -1 0.91420040E-01 0.23503745E+04</pdfrwt>
<totfact> 0.52642566E+00</totfact>
</mgrwt>
</event>
<event>
12    7  0.1675873E-007  0.1870128E+04  0.7818608E-02  0.8669870E-01
         -1   -1    0    0    0  501 -0.00000000000E+00  0.00000000000E+00  0.76596950467E+03  0.76596950467E+03  0.00000000000E+00 0.  1.
          2   -1    0    0  501    0  0.00000000000E+00 -0.00000000000E+00 -0.11414873635E+04  0.11414873635E+04  0.00000000000E+00 0. -1.
         24    2    1    2    0    0 -0.25596349503E+03 -0.26512219149E+03  0.48301369707E+03  0.61263178981E+03  0.78793344364E+02 0.  0.
        254    2    1    2    0    0  0.25596349503E+03  0.26512219149E+03 -0.85853155594E+03  0.12948250784E+04  0.89648673381E+03 0.  0.
         23    2    4    4    0    0  0.45096469664E+03 -0.48404314253E+02 -0.78135311156E+03  0.90774456189E+03  0.88178055293E+02 0.  0.
         23    2    4    4    0    0 -0.19500120161E+03  0.31352650574E+03 -0.77178444385E+02  0.38708051651E+03  0.86893472450E+02 0.  0.
          2    1    3    3  502    0 -0.92928935613E+02 -0.12921742318E+03  0.15665508054E+03  0.22332430183E+03  0.00000000000E+00 0. -1.
         -1    1    3    3    0  502 -0.16303455942E+03 -0.13590476831E+03  0.32635861653E+03  0.38930748798E+03  0.00000000000E+00 0.  1.
         13    1    5    5    0    0  0.88671787021E+02 -0.32484177874E+02 -0.22039736170E+03  0.23977678093E+03  0.00000000000E+00 0. -1.
        -13    1    5    5    0    0  0.36229290962E+03 -0.15920136378E+02 -0.56095574985E+03  0.66796778096E+03  0.00000000000E+00 0.  1.
          3    1    6    6  503    0  0.61735860464E+00  0.35155392401E+02 -0.24358148156E+02  0.42773848647E+02  0.00000000000E+00 0. -1.
         -3    1    6    6    0  503 -0.19561856021E+03  0.27837111334E+03 -0.52820296229E+02  0.34430666787E+03  0.00000000000E+00 0.  1.
<mgrwt>
<rscale>  0 0.18701278E+04</rscale>
<asrwt>0</asrwt>
<pdfrwt beam="1">  1        2 0.17561344E+00 0.18701278E+04</pdfrwt>
<pdfrwt beam="2">  1       -1 0.11784146E+00 0.18701278E+04</pdfrwt>
<totfact> 0.14236572E+01</totfact>
</mgrwt>
</event>
<event>
12    7  0.1675873E-007  0.2435527E+04  0.7818608E-02  0.8426321E-01
          2   -1    0    0  501    0  0.00000000000E+00  0.00000000000E+00  0.24164257744E+04  0.24164257744E+04  0.00000000000E+00 0. -1.
         -1   -1    0    0    0  501 -0.00000000000E+00 -0.00000000000E+00 -0.61369458705E+03  0.61369458705E+03  0.00000000000E+00 0.  1.
         24    2    1    2    0    0  0.44160480454E+03  0.42930653493E+03  0.18413767327E+04  0.19428949013E+04  0.69666499660E+02 0.  0.
        254    2    1    2    0    0 -0.44160480454E+03 -0.42930653493E+03 -0.38645545379E+02  0.10872254602E+04  0.89512391254E+03 0.  0.
         23    2    4    4    0    0 -0.34267565065E+03  0.16277877426E+03  0.19612629620E+03  0.43607706426E+03  0.88171146137E+02 0.  0.
         23    2    4    4    0    0 -0.98929153894E+02 -0.59208530919E+03 -0.23477184158E+03  0.65114839594E+03  0.92327813212E+02 0.  0.
          4    1    3    3  502    0  0.43083926100E+03  0.41433450378E+03  0.18135020762E+04  0.19094725267E+04  0.00000000000E+00 0. -1.
         -3    1    3    3    0  502  0.10765543541E+02  0.14972031150E+02  0.27874656524E+02  0.33422374554E+02  0.00000000000E+00 0.  1.
         13    1    5    5    0    0 -0.31483969820E+03  0.11746595116E+03  0.17475987383E+03  0.37876549308E+03  0.00000000000E+00 0. -1.
        -13    1    5    5    0    0 -0.27835952449E+02  0.45312823099E+02  0.21366422364E+02  0.57311571175E+02  0.00000000000E+00 0.  1.
          1    1    6    6  503    0 -0.10733208650E+03 -0.49885061133E+03 -0.17215905381E+03  0.53852655369E+03  0.00000000000E+00 0. -1.
         -1    1    6    6    0  503  0.84029326046E+01 -0.93234697859E+02 -0.62612787764E+02  0.11262184225E+03  0.00000000000E+00 0.  1.
<mgrwt>
<rscale>  0 0.24355266E+04</rscale>
<asrwt>0</asrwt>
<pdfrwt beam="1">  1        2 0.37175781E+00 0.24355266E+04</pdfrwt>
<pdfrwt beam="2">  1       -1 0.94414553E-01 0.24355266E+04</pdfrwt>
<totfact> 0.43071851E+00</totfact>
</mgrwt>
</event>
<event>
12    7  0.1675873E-007  0.1335783E+04  0.7818608E-02  0.9001660E-01
          2   -1    0    0  501    0  0.00000000000E+00  0.00000000000E+00  0.22233069565E+04  0.22233069565E+04  0.00000000000E+00 0. -1.
         -1   -1    0    0    0  501 -0.00000000000E+00 -0.00000000000E+00 -0.20063771953E+03  0.20063771953E+03  0.00000000000E+00 0.  1.
         24    2    1    2    0    0  0.10001978368E+03  0.20912203660E+03  0.57978650440E+02  0.25232664292E+03  0.81063108133E+02 0.  0.
        254    2    1    2    0    0 -0.10001978368E+03 -0.20912203660E+03  0.19646905866E+04  0.21716180331E+04  0.89564490601E+03 0.  0.
         23    2    4    4    0    0 -0.31191635081E+03 -0.26855524591E+03  0.18687606294E+04  0.19157742723E+04  0.92255310439E+02 0.  0.
         23    2    4    4    0    0  0.21189656713E+03  0.59433209306E+02  0.95929957184E+02  0.25584376090E+03  0.88436484405E+02 0.  0.
          2    1    3    3  502    0  0.14987590375E+02  0.56750254567E+02 -0.18879092596E+02  0.61657435853E+02  0.00000000000E+00 0. -1.
         -1    1    3    3    0  502  0.85032193304E+02  0.15237178204E+03  0.76857743037E+02  0.19066920707E+03  0.00000000000E+00 0.  1.
         13    1    5    5    0    0 -0.13659939988E+03 -0.61153889788E+02  0.71259534068E+03  0.72814237196E+03  0.00000000000E+00 0. -1.
        -13    1    5    5    0    0 -0.17531695093E+03 -0.20740135612E+03  0.11561652887E+04  0.11876319003E+04  0.00000000000E+00 0.  1.
          1    1    6    6  503    0 -0.16325875720E+00 -0.12675979285E+02  0.14929012700E+01  0.12764633111E+02  0.00000000000E+00 0. -1.
         -1    1    6    6    0  503  0.21205982589E+03  0.72109188591E+02  0.94437055914E+02  0.24307912779E+03  0.00000000000E+00 0.  1.
<mgrwt>
<rscale>  0 0.13357833E+04</rscale>
<asrwt>0</asrwt>
<pdfrwt beam="1">  1        2 0.34204721E+00 0.13357833E+04</pdfrwt>
<pdfrwt beam="2">  1       -1 0.30867343E-01 0.13357833E+04</pdfrwt>
<totfact> 0.54256624E+01</totfact>
</mgrwt>
</event>
<event>
12    7  0.1675873E-007  0.1831557E+04  0.7818608E-02  0.8689695E-01
         -1   -1    0    0    0  501 -0.00000000000E+00  0.00000000000E+00  0.75306266459E+03  0.75306266459E+03  0.00000000000E+00 0.  1.
          2   -1    0    0  501    0  0.00000000000E+00 -0.00000000000E+00 -0.11136528430E+04  0.11136528430E+04  0.00000000000E+00 0. -1.
         24    2    1    2    0    0 -0.25738817204E+03  0.63509125935E+03 -0.42104343991E+02  0.69123500029E+03  0.80271234153E+02 0.  0.
        254    2    1    2    0    0  0.25738817204E+03 -0.63509125935E+03 -0.31848583441E+03  0.11754805073E+04  0.90040636244E+03 0.  0.
         23    2    4    4    0    0  0.34097255210E+03 -0.60183350010E+03  0.12922192530E+03  0.70957998041E+03  0.91321407655E+02 0.  0.
         23    2    4    4    0    0 -0.83584380063E+02 -0.33257759247E+02 -0.44770775971E+03  0.46590052689E+03  0.92350612947E+02 0.  0.
          4    1    3    3  502    0 -0.47047544915E+02  0.13353694174E+03  0.23138913580E+02  0.14346078075E+03  0.00000000000E+00 0. -1.
         -3    1    3    3    0  502 -0.21034062712E+03  0.50155431761E+03 -0.65243257571E+02  0.54777421954E+03  0.00000000000E+00 0.  1.
         13    1    5    5    0    0  0.10851996058E+03 -0.28070752834E+03  0.44944807395E+02  0.30429152802E+03  0.00000000000E+00 0. -1.
        -13    1    5    5    0    0  0.23245259152E+03 -0.32112597176E+03  0.84277117900E+02  0.40528845240E+03  0.00000000000E+00 0.  1.
          2    1    6    6  503    0  0.18072186825E+02  0.43703497212E+01 -0.41430313640E+02  0.45411174634E+02  0.00000000000E+00 0. -1.
         -2    1    6    6    0  503 -0.10165656689E+03 -0.37628108968E+02 -0.40627744607E+03  0.42048935225E+03  0.00000000000E+00 0.  1.
<mgrwt>
<rscale>  0 0.18315571E+04</rscale>
<asrwt>0</asrwt>
<pdfrwt beam="1">  1        2 0.17133121E+00 0.18315571E+04</pdfrwt>
<pdfrwt beam="2">  1       -1 0.11585579E+00 0.18315571E+04</pdfrwt>
<totfact> 0.15475769E+01</totfact>
</mgrwt>
</event>
<event>
12    7  0.1675873E-007  0.1161165E+04  0.7818608E-02  0.9147545E-01
         -1   -1    0    0    0  501 -0.00000000000E+00  0.00000000000E+00  0.23987970119E+03  0.23987970119E+03  0.00000000000E+00 0.  1.
          2   -1    0    0  501    0  0.00000000000E+00 -0.00000000000E+00 -0.14051877790E+04  0.14051877790E+04  0.00000000000E+00 0. -1.
         24    2    1    2    0    0 -0.20856974240E+03  0.74297390673E+02 -0.19171642803E+03  0.30333857527E+03  0.78978875439E+02 0.  0.
        254    2    1    2    0    0  0.20856974240E+03 -0.74297390673E+02 -0.97359164975E+03  0.13417289049E+04  0.89628919109E+03 0.  0.
         23    2    4    4    0    0  0.19241832813E+02 -0.33486609506E+03 -0.38707465298E+02  0.34881550684E+03  0.87569630549E+02 0.  0.
         23    2    4    4    0    0  0.18932790958E+03  0.26056870439E+03 -0.93488418445E+03  0.99291339805E+03  0.90152485437E+02 0.  0.
          4    1    3    3  502    0 -0.29143993627E+02  0.26579169236E+02 -0.45484195232E+01  0.39705323598E+02  0.00000000000E+00 0. -1.
         -3    1    3    3    0  502 -0.17942574877E+03  0.47718221436E+02 -0.18716800851E+03  0.26363325167E+03  0.00000000000E+00 0.  1.
         13    1    5    5    0    0  0.44760106773E+02 -0.30039563024E+03 -0.31757659605E+02  0.30536789414E+03  0.00000000000E+00 0.  1.
        -13    1    5    5    0    0 -0.25518273960E+02 -0.34470464817E+02 -0.69498056934E+01  0.43447612705E+02  0.00000000000E+00 0. -1.
          3    1    6    6  503    0  0.38568874541E+02  0.84962517873E+01 -0.14144563149E+03  0.14685574910E+03  0.00000000000E+00 0. -1.
         -3    1    6    6    0  503  0.15075903504E+03  0.25207245260E+03 -0.79343855297E+03  0.84605764895E+03  0.00000000000E+00 0.  1.
<mgrwt>
<rscale>  0 0.11611650E+04</rscale>
<asrwt>0</asrwt>
<pdfrwt beam="1">  1        2 0.21618274E+00 0.11611650E+04</pdfrwt>
<pdfrwt beam="2">  1       -1 0.36904569E-01 0.11611650E+04</pdfrwt>
<totfact> 0.11418448E+02</totfact>
</mgrwt>
</event>
<event>
12    7  0.1675873E-007  0.3212546E+04  0.7818608E-02  0.8185512E-01
          2   -1    0    0  501    0  0.00000000000E+00  0.00000000000E+00  0.16239070803E+04  0.16239070803E+04  0.00000000000E+00 0. -1.
         -1   -1    0    0    0  501 -0.00000000000E+00 -0.00000000000E+00 -0.15888305391E+04  0.15888305391E+04  0.00000000000E+00 0.  1.
         24    2    1    2    0    0 -0.67238043620E+03  0.10654697106E+04 -0.75631964482E+03  0.14716141816E+04  0.79421277090E+02 0.  0.
        254    2    1    2    0    0  0.67238043620E+03 -0.10654697106E+04  0.79139618600E+03  0.17411234377E+04  0.90436814798E+03 0.  0.
         23    2    4    4    0    0 -0.13966184448E+03 -0.56736672645E+03  0.26074791059E+03  0.64674174575E+03  0.94207110856E+02 0.  0.
         23    2    4    4    0    0  0.81204228067E+03 -0.49810298412E+03  0.53064827541E+03  0.10943816920E+04  0.92544298316E+02 0.  0.
          4    1    3    3  502    0 -0.26703891904E+03  0.36042021744E+03 -0.24797921651E+03  0.51254873840E+03  0.00000000000E+00 0. -1.
         -3    1    3    3    0  502 -0.40534151716E+03  0.70504949313E+03 -0.50834042831E+03  0.95906544321E+03  0.00000000000E+00 0.  1.
         13    1    5    5    0    0 -0.94166492288E+02 -0.45345046400E+03  0.24235569145E+03  0.52270539767E+03  0.00000000000E+00 0. -1.
        -13    1    5    5    0    0 -0.45495352188E+02 -0.11391626245E+03  0.18392219138E+02  0.12403634808E+03  0.00000000000E+00 0.  1.
          3    1    6    6  503    0  0.59042592876E+03 -0.40716148202E+03  0.41082363901E+03  0.82653451964E+03  0.00000000000E+00 0. -1.
         -3    1    6    6    0  503  0.22161635191E+03 -0.90941502099E+02  0.11982463641E+03  0.26784717233E+03  0.00000000000E+00 0.  1.
<mgrwt>
<rscale>  0 0.32125461E+04</rscale>
<asrwt>0</asrwt>
<pdfrwt beam="1">  1        2 0.24983186E+00 0.32125461E+04</pdfrwt>
<pdfrwt beam="2">  1       -1 0.24443547E+00 0.32125461E+04</pdfrwt>
<totfact> 0.78503699E-01</totfact>
</mgrwt>
</event>
<event>
12    7  0.1675873E-007  0.1348847E+04  0.7818608E-02  0.8991701E-01
         -1   -1    0    0    0  501 -0.00000000000E+00  0.00000000000E+00  0.23062496476E+03  0.23062496476E+03  0.00000000000E+00 0.  1.
          2   -1    0    0  501    0  0.00000000000E+00 -0.00000000000E+00 -0.19722383256E+04  0.19722383256E+04  0.00000000000E+00 0. -1.
         24    2    1    2    0    0 -0.37548456831E+02  0.36828909274E+03 -0.49312394846E+03  0.62180771351E+03  0.80167709114E+02 0.  0.
        254    2    1    2    0    0  0.37548456831E+02 -0.36828909274E+03 -0.12484894124E+04  0.15810555769E+04  0.89664049758E+03 0.  0.
         23    2    4    4    0    0 -0.25204637430E+03  0.64233351369E+02 -0.63265703432E+02  0.28297448130E+03  0.91753526411E+02 0.  0.
         23    2    4    4    0    0  0.28959483113E+03 -0.43252244411E+03 -0.11852237090E+04  0.12980810956E+04  0.96532168429E+02 0.  0.
          2    1    3    3  502    0 -0.53372770522E+02  0.34984287875E+03 -0.45226266514E+03  0.57426493078E+03  0.00000000000E+00 0. -1.
         -1    1    3    3    0  502  0.15824313692E+02  0.18446213994E+02 -0.40861283327E+02  0.47542782730E+02  0.00000000000E+00 0.  1.
         13    1    5    5    0    0 -0.25259910746E+02 -0.97638990408E+01 -0.32720018743E+02  0.42473479277E+02  0.00000000000E+00 0.  1.
        -13    1    5    5    0    0 -0.22678646356E+03  0.73997250410E+02 -0.30545684689E+02  0.24050100202E+03  0.00000000000E+00 0. -1.
          1    1    6    6  503    0  0.27644707341E+03 -0.42115128850E+03 -0.11736372991E+04  0.12771906287E+04  0.00000000000E+00 0. -1.
         -1    1    6    6    0  503  0.13147757725E+02 -0.11371155606E+02 -0.11586409866E+02  0.20890466883E+02  0.00000000000E+00 0.  1.
<mgrwt>
<rscale>  0 0.13488475E+04</rscale>
<asrwt>0</asrwt>
<pdfrwt beam="1">  1        2 0.30342128E+00 0.13488475E+04</pdfrwt>
<pdfrwt beam="2">  1       -1 0.35480763E-01 0.13488475E+04</pdfrwt>
<totfact> 0.58369436E+01</totfact>
</mgrwt>
</event>
<event>
12    7  0.1675873E-007  0.1589236E+04  0.7818608E-02  0.8827188E-01
          2   -1    0    0  501    0  0.00000000000E+00  0.00000000000E+00  0.12442853899E+04  0.12442853899E+04  0.00000000000E+00 0. -1.
         -1   -1    0    0    0  501 -0.00000000000E+00 -0.00000000000E+00 -0.50745439519E+03  0.50745439519E+03  0.00000000000E+00 0.  1.
         24    2    1    2    0    0 -0.46389145588E+03  0.27643126724E+02  0.53564468050E+03  0.71352725522E+03  0.79034770227E+02 0.  0.
        254    2    1    2    0    0  0.46389145588E+03 -0.27643126724E+02  0.20118631416E+03  0.10382125298E+04  0.90633873291E+03 0.  0.
         23    2    4    4    0    0  0.72449612167E+03 -0.91738309088E+02  0.14171841979E+03  0.74897380415E+03  0.86989086243E+02 0.  0.
         23    2    4    4    0    0 -0.26060466580E+03  0.64095182365E+02  0.59467894365E+02  0.28923872566E+03  0.89997920677E+02 0.  0.
          4    1    3    3  502    0 -0.39117403085E+03  0.27991889483E+01  0.47682565699E+03  0.61675575800E+03  0.00000000000E+00 0. -1.
         -3    1    3    3    0  502 -0.72717425029E+02  0.24843937775E+02  0.58819023519E+02  0.96771497223E+02  0.00000000000E+00 0.  1.
         13    1    5    5    0    0  0.27649354610E+03 -0.75595579863E+02  0.41705515033E+02  0.28965966705E+03  0.00000000000E+00 0.  1.
        -13    1    5    5    0    0  0.44800257557E+03 -0.16142729226E+02  0.10001290476E+03  0.45931413710E+03  0.00000000000E+00 0. -1.
          3    1    6    6  503    0 -0.10083785713E+03 -0.19012791114E+02  0.14642855444E+02  0.10365410205E+03  0.00000000000E+00 0. -1.
         -3    1    6    6    0  503 -0.15976680867E+03  0.83107973479E+02  0.44825038921E+02  0.18558462361E+03  0.00000000000E+00 0.  1.
<mgrwt>
<rscale>  0 0.15892364E+04</rscale>
<asrwt>0</asrwt>
<pdfrwt beam="1">  1        2 0.19142852E+00 0.15892364E+04</pdfrwt>
<pdfrwt beam="2">  1       -1 0.78069908E-01 0.15892364E+04</pdfrwt>
<totfact> 0.32050288E+01</totfact>
</mgrwt>
</event>
<event>
12    7  0.1675873E-007  0.1625944E+04  0.7818608E-02  0.8804767E-01
          2   -1    0    0  501    0  0.00000000000E+00  0.00000000000E+00  0.94986751809E+03  0.94986751809E+03  0.00000000000E+00 0. -1.
         -1   -1    0    0    0  501 -0.00000000000E+00 -0.00000000000E+00 -0.69580559990E+03  0.69580559990E+03  0.00000000000E+00 0.  1.
         24    2    1    2    0    0 -0.44300273136E+03 -0.71155918102E+02  0.43852575003E+03  0.63243730951E+03  0.79734135381E+02 0.  0.
        254    2    1    2    0    0  0.44300273136E+03  0.71155918102E+02 -0.18446383184E+03  0.10132358085E+04  0.88955343495E+03 0.  0.
         23    2    4    4    0    0 -0.26115945946E+03 -0.33173779966E+02 -0.60847560066E+02  0.28490304047E+03  0.90346853649E+02 0.  0.
         23    2    4    4    0    0  0.70416219082E+03  0.10432969807E+03 -0.12361627178E+03  0.72833276800E+03  0.91970437741E+02 0.  0.
          4    1    3    3  502    0 -0.42678461547E+03 -0.51076575396E+02  0.41107110521E+03  0.59475488909E+03  0.00000000000E+00 0. -1.
         -3    1    3    3    0  502 -0.16218115893E+02 -0.20079342707E+02  0.27454644818E+02  0.37682420420E+02  0.00000000000E+00 0.  1.
         13    1    5    5    0    0 -0.64344271689E+02 -0.84654290848E+01  0.23951242866E+02  0.69177386650E+02  0.00000000000E+00 0.  1.
        -13    1    5    5    0    0 -0.19681518777E+03 -0.24708350881E+02 -0.84798802932E+02  0.21572565382E+03  0.00000000000E+00 0. -1.
          1    1    6    6  503    0  0.61632440205E+03  0.59784483624E+02 -0.10991795242E+03  0.62889737582E+03  0.00000000000E+00 0. -1.
         -1    1    6    6    0  503  0.87837788768E+02  0.44545214444E+02 -0.13698319353E+02  0.99435392183E+02  0.00000000000E+00 0.  1.
<mgrwt>
<rscale>  0 0.16259436E+04</rscale>
<asrwt>0</asrwt>
<pdfrwt beam="1">  1        2 0.14613346E+00 0.16259436E+04</pdfrwt>
<pdfrwt beam="2">  1       -1 0.10704702E+00 0.16259436E+04</pdfrwt>
<totfact> 0.24137668E+01</totfact>
</mgrwt>
</event>
<event>
12    7  0.1675873E-007  0.1554145E+04  0.7818608E-02  0.8849224E-01
         -1   -1    0    0    0  501 -0.00000000000E+00  0.00000000000E+00  0.25853209788E+03  0.25853209788E+03  0.00000000000E+00 0.  1.
          2   -1    0    0  501    0  0.00000000000E+00 -0.00000000000E+00 -0.23356553425E+04  0.23356553425E+04  0.00000000000E+00 0. -1.
         24    2    1    2    0    0  0.32185580018E+03  0.17627934829E+03 -0.13271401259E+04  0.13789449404E+04  0.74314668516E+02 0.  0.
        254    2    1    2    0    0 -0.32185580018E+03 -0.17627934829E+03 -0.74998311870E+03  0.12152425000E+04  0.88299155759E+03 0.  0.
         23    2    4    4    0    0  0.24578785067E+03  0.51819167641E+02 -0.34252437143E+02  0.26918648946E+03  0.90505485948E+02 0.  0.
         23    2    4    4    0    0 -0.56764365085E+03 -0.22809851593E+03 -0.71573068156E+03  0.94605601056E+03  0.92213444144E+02 0.  0.
          2    1    3    3  502    0  0.21057753708E+03  0.73925480109E+02 -0.80195577959E+03  0.83243074676E+03  0.00000000000E+00 0. -1.
         -1    1    3    3    0  502  0.11127826310E+03  0.10235386818E+03 -0.52518434634E+03  0.54651419360E+03  0.00000000000E+00 0.  1.
         13    1    5    5    0    0  0.19559381398E+02 -0.21478959033E+02 -0.10099053764E+01  0.29067765492E+02  0.00000000000E+00 0. -1.
        -13    1    5    5    0    0  0.22622846927E+03  0.73298126674E+02 -0.33242531766E+02  0.24011872397E+03  0.00000000000E+00 0.  1.
          4    1    6    6  503    0 -0.73463853766E+02 -0.31271754113E+02 -0.14733310613E+03  0.16757656333E+03  0.00000000000E+00 0. -1.
         -4    1    6    6    0  503 -0.49417979708E+03 -0.19682676182E+03 -0.56839757542E+03  0.77847944723E+03  0.00000000000E+00 0.  1.
<mgrwt>
<rscale>  0 0.15541453E+04</rscale>
<asrwt>0</asrwt>
<pdfrwt beam="1">  1        2 0.35933158E+00 0.15541453E+04</pdfrwt>
<pdfrwt beam="2">  1       -1 0.39774170E-01 0.15541453E+04</pdfrwt>
<totfact> 0.29226990E+01</totfact>
</mgrwt>
</event>
<event>
12    7  0.1675873E-007  0.1769769E+04  0.7818608E-02  0.8722543E-01
          2   -1    0    0  501    0  0.00000000000E+00  0.00000000000E+00  0.23757505216E+04  0.23757505216E+04  0.00000000000E+00 0. -1.
         -1   -1    0    0    0  501 -0.00000000000E+00 -0.00000000000E+00 -0.32958858873E+03  0.32958858873E+03  0.00000000000E+00 0.  1.
         24    2    1    2    0    0 -0.18365001328E+03  0.29469512041E+03  0.15993572047E+04  0.16390685836E+04  0.89609219306E+02 0.  0.
        254    2    1    2    0    0  0.18365001328E+03 -0.29469512041E+03  0.44680472823E+03  0.10662705268E+04  0.90372884747E+03 0.  0.
         23    2    4    4    0    0  0.33119391027E+02 -0.54665976046E+03  0.50935775202E+03  0.75308596677E+03  0.88087263777E+02 0.  0.
         23    2    4    4    0    0  0.15053062225E+03  0.25196464004E+03 -0.62553023786E+02  0.31318456001E+03  0.89588167617E+02 0.  0.
          4    1    3    3  502    0 -0.18658762136E+03  0.25803789308E+03  0.14915328570E+04  0.15251454876E+04  0.00000000000E+00 0. -1.
         -3    1    3    3    0  502  0.29376080813E+01  0.36657227328E+02  0.10782434762E+03  0.11392309597E+03  0.00000000000E+00 0.  1.
         13    1    5    5    0    0  0.18667219576E+02 -0.53384905159E+03  0.48128846835E+03  0.71901450940E+03  0.00000000000E+00 0. -1.
        -13    1    5    5    0    0  0.14452171451E+02 -0.12810708873E+02  0.28069283672E+02  0.34071457370E+02  0.00000000000E+00 0.  1.
          4    1    6    6  503    0  0.11250612319E+03  0.12182898468E+03 -0.50248784423E+01  0.16590713869E+03  0.00000000000E+00 0. -1.
         -4    1    6    6    0  503  0.38024499061E+02  0.13013565536E+03 -0.57528145344E+02  0.14727742132E+03  0.00000000000E+00 0.  1.
<mgrwt>
<rscale>  0 0.17697686E+04</rscale>
<asrwt>0</asrwt>
<pdfrwt beam="1">  1        2 0.36550007E+00 0.17697686E+04</pdfrwt>
<pdfrwt beam="2">  1       -1 0.50705938E-01 0.17697686E+04</pdfrwt>
<totfact> 0.17299570E+01</totfact>
</mgrwt>
</event>
<event>
12    7  0.1675873E-007  0.1597348E+04  0.7818608E-02  0.8822179E-01
         -1   -1    0    0    0  501 -0.00000000000E+00  0.00000000000E+00  0.35839607395E+03  0.35839607395E+03  0.00000000000E+00 0.  1.
          2   -1    0    0  501    0  0.00000000000E+00 -0.00000000000E+00 -0.17798193017E+04  0.17798193017E+04  0.00000000000E+00 0. -1.
         24    2    1    2    0    0 -0.37603534208E+03  0.10751842030E+03 -0.98825536135E+03  0.10657871003E+04  0.79313899950E+02 0.  0.
        254    2    1    2    0    0  0.37603534208E+03 -0.10751842030E+03 -0.43316786636E+03  0.10724282753E+04  0.89972507804E+03 0.  0.
         23    2    4    4    0    0 -0.35993501715E+02  0.33492400946E+03 -0.26544616200E+03  0.43778578155E+03  0.87892555621E+02 0.  0.
         23    2    4    4    0    0  0.41202884380E+03 -0.44244242976E+03 -0.16772170436E+03  0.63464249376E+03  0.95485354915E+02 0.  0.
          2    1    3    3  502    0 -0.26657514079E+03  0.99752484896E+02 -0.78144837059E+03  0.83166965788E+03  0.00000000000E+00 0. -1.
         -1    1    3    3    0  502 -0.10946020130E+03  0.77659354028E+01 -0.20680699076E+03  0.23411744242E+03  0.00000000000E+00 0.  1.
         13    1    5    5    0    0 -0.61000564707E+02  0.23582773222E+03 -0.20940774531E+03  0.32122794395E+03  0.00000000000E+00 0. -1.
        -13    1    5    5    0    0  0.25007062991E+02  0.99096277235E+02 -0.56038416689E+02  0.11655783760E+03  0.00000000000E+00 0.  1.
          1    1    6    6  503    0  0.40711761979E+03 -0.41112084161E+03 -0.16944829687E+03  0.60289122406E+03  0.00000000000E+00 0. -1.
         -1    1    6    6    0  503  0.49112240121E+01 -0.31321588150E+02  0.17265925115E+01  0.31751269695E+02  0.00000000000E+00 0.  1.
<mgrwt>
<rscale>  0 0.15973481E+04</rscale>
<asrwt>0</asrwt>
<pdfrwt beam="1">  1        2 0.27381835E+00 0.15973481E+04</pdfrwt>
<pdfrwt beam="2">  1       -1 0.55137857E-01 0.15973481E+04</pdfrwt>
<totfact> 0.32164801E+01</totfact>
</mgrwt>
</event>
<event>
12    7  0.1675873E-007  0.1687912E+04  0.7818608E-02  0.8768289E-01
         -1   -1    0    0    0  501 -0.00000000000E+00  0.00000000000E+00  0.12064948265E+04  0.12064948265E+04  0.00000000000E+00 0.  1.
          2   -1    0    0  501    0  0.00000000000E+00 -0.00000000000E+00 -0.59035649250E+03  0.59035649250E+03  0.00000000000E+00 0. -1.
         24    2    1    2    0    0 -0.34460662510E+02 -0.52719854354E+03 -0.83603253668E+02  0.54065976287E+03  0.78725050577E+02 0.  0.
        254    2    1    2    0    0  0.34460662510E+02  0.52719854354E+03  0.69974158766E+03  0.12561915561E+04  0.89958495686E+03 0.  0.
         23    2    4    4    0    0  0.18550395110E+03 -0.19909349946E+03  0.13012008711E+03  0.31523205779E+03  0.91597356852E+02 0.  0.
         23    2    4    4    0    0 -0.15104328859E+03  0.72629204301E+03  0.56962150055E+03  0.94095949834E+03  0.10306268417E+03 0.  0.
          4    1    3    3  502    0 -0.19322484670E+01 -0.43158572044E+03 -0.83875874577E+02  0.43966479278E+03  0.00000000000E+00 0. -1.
         -3    1    3    3    0  502 -0.32528414043E+02 -0.95612823104E+02  0.27262090900E+00  0.10099497009E+03  0.00000000000E+00 0.  1.
         13    1    5    5    0    0  0.46581691830E+02 -0.10812098068E+03  0.30618396540E+02  0.12164492050E+03  0.00000000000E+00 0.  1.
        -13    1    5    5    0    0  0.13892225927E+03 -0.90972518784E+02  0.99501690573E+02  0.19358713729E+03  0.00000000000E+00 0. -1.
          3    1    6    6  503    0 -0.11178300401E+03  0.67522388259E+03  0.52540733398E+03  0.86282999381E+03  0.00000000000E+00 0. -1.
         -3    1    6    6    0  503 -0.39260284587E+02  0.51068160415E+02  0.44214166565E+02  0.78129504536E+02  0.00000000000E+00 0.  1.
<mgrwt>
<rscale>  0 0.16879124E+04</rscale>
<asrwt>0</asrwt>
<pdfrwt beam="1">  1        2 0.90824076E-01 0.16879124E+04</pdfrwt>
<pdfrwt beam="2">  1       -1 0.18561459E+00 0.16879124E+04</pdfrwt>
<totfact> 0.10442005E+01</totfact>
</mgrwt>
</event>
<event>
12    7  0.1675873E-007  0.2046989E+04  0.7818608E-02  0.8584962E-01
          2   -1    0    0  501    0  0.00000000000E+00  0.00000000000E+00  0.17331199344E+04  0.17331199344E+04  0.00000000000E+00 0. -1.
         -1   -1    0    0    0  501 -0.00000000000E+00 -0.00000000000E+00 -0.60442492021E+03  0.60442492021E+03  0.00000000000E+00 0.  1.
         24    2    1    2    0    0 -0.63525165085E+03  0.52463280209E+03  0.49100745370E+03  0.96242144397E+03  0.79890420524E+02 0.  0.
        254    2    1    2    0    0  0.63525165085E+03 -0.52463280209E+03  0.63768756047E+03  0.13751234106E+04  0.89751586766E+03 0.  0.
         23    2    4    4    0    0  0.18779770266E+03 -0.67588675361E+03  0.52477900327E+03  0.88064685180E+03  0.89749621123E+02 0.  0.
         23    2    4    4    0    0  0.44745394819E+03  0.15125395152E+03  0.11290855720E+03  0.49447655881E+03  0.93090984086E+02 0.  0.
          4    1    3    3  502    0 -0.49730656637E+03  0.44594299680E+03  0.41470709887E+03  0.78623212552E+03  0.00000000000E+00 0. -1.
         -3    1    3    3    0  502 -0.13794508448E+03  0.78689805289E+02  0.76300354837E+02  0.17618931845E+03  0.00000000000E+00 0.  1.
         13    1    5    5    0    0  0.18187415669E+03 -0.51454102410E+03  0.40241233903E+03  0.67806073840E+03  0.00000000000E+00 0. -1.
        -13    1    5    5    0    0  0.59235459682E+01 -0.16134572951E+03  0.12236666424E+03  0.20258611341E+03  0.00000000000E+00 0.  1.
          2    1    6    6  503    0  0.11742873021E+03  0.48031031979E+02 -0.10542806215E+02  0.12730921992E+03  0.00000000000E+00 0. -1.
         -2    1    6    6    0  503  0.33002521798E+03  0.10322291954E+03  0.12345136341E+03  0.36716733889E+03  0.00000000000E+00 0.  1.
<mgrwt>
<rscale>  0 0.20469889E+04</rscale>
<asrwt>0</asrwt>
<pdfrwt beam="1">  1        2 0.26663384E+00 0.20469889E+04</pdfrwt>
<pdfrwt beam="2">  1       -1 0.92988450E-01 0.20469889E+04</pdfrwt>
<totfact> 0.11129407E+01</totfact>
</mgrwt>
</event>
<event>
12    7  0.1675873E-007  0.1731621E+04  0.7818608E-02  0.8743532E-01
          2   -1    0    0  501    0  0.00000000000E+00  0.00000000000E+00  0.12166361736E+04  0.12166361736E+04  0.00000000000E+00 0. -1.
         -1   -1    0    0    0  501 -0.00000000000E+00 -0.00000000000E+00 -0.61614801799E+03  0.61614801799E+03  0.00000000000E+00 0.  1.
         24    2    1    2    0    0 -0.61925296998E+03 -0.53634228008E+02  0.22292828954E+03  0.66515095112E+03  0.79861719594E+02 0.  0.
        254    2    1    2    0    0  0.61925296998E+03  0.53634228008E+02  0.37755986610E+03  0.11676332405E+04  0.91349059140E+03 0.  0.
         23    2    4    4    0    0  0.11741756159E+03  0.95790102149E+02 -0.28097017100E+03  0.33226676832E+03  0.92164748698E+02 0.  0.
         23    2    4    4    0    0  0.50183540839E+03 -0.42155874141E+02  0.65853003709E+03  0.83536647217E+03  0.10275912726E+03 0.  0.
          2    1    3    3  502    0 -0.54527961970E+02  0.10378323510E+02  0.38814553165E+02  0.67731660048E+02  0.00000000000E+00 0. -1.
         -1    1    3    3    0  502 -0.56472500801E+03 -0.64012551518E+02  0.18411373637E+03  0.59741929107E+03  0.00000000000E+00 0.  1.
         13    1    5    5    0    0  0.63250392982E+02  0.33232485811E+02 -0.21462188209E+03  0.22620248142E+03  0.00000000000E+00 0.  1.
        -13    1    5    5    0    0  0.54167168604E+02  0.62557616338E+02 -0.66348288904E+02  0.10606428691E+03  0.00000000000E+00 0. -1.
          1    1    6    6  503    0  0.21406862482E+03 -0.66487903687E+02  0.31416001547E+03  0.38593073575E+03  0.00000000000E+00 0. -1.
         -1    1    6    6    0  503  0.28776678357E+03  0.24332029546E+02  0.34437002162E+03  0.44943573643E+03  0.00000000000E+00 0.  1.
<mgrwt>
<rscale>  0 0.17316212E+04</rscale>
<asrwt>0</asrwt>
<pdfrwt beam="1">  1        2 0.18717480E+00 0.17316212E+04</pdfrwt>
<pdfrwt beam="2">  1       -1 0.94792003E-01 0.17316212E+04</pdfrwt>
<totfact> 0.21561988E+01</totfact>
</mgrwt>
</event>
<event>
12    7  0.1675873E-007  0.2355493E+04  0.7818608E-02  0.8456357E-01
         -1   -1    0    0    0  501 -0.00000000000E+00  0.00000000000E+00  0.95522400784E+03  0.95522400784E+03  0.00000000000E+00 0.  1.
          2   -1    0    0  501    0  0.00000000000E+00 -0.00000000000E+00 -0.14521064562E+04  0.14521064562E+04  0.00000000000E+00 0. -1.
         24    2    1    2    0    0 -0.14226168951E+03 -0.73430681273E+03  0.47492673082E+03  0.88946622737E+03  0.78421211879E+02 0.  0.
        254    2    1    2    0    0  0.14226168951E+03  0.73430681273E+03 -0.97180917919E+03  0.15178642367E+04  0.89445730846E+03 0.  0.
         23    2    4    4    0    0 -0.23714424923E+03  0.72263017618E+03 -0.73191000825E+03  0.10596273146E+04  0.93198815807E+02 0.  0.
         23    2    4    4    0    0  0.37940593874E+03  0.11676636544E+02 -0.23989917094E+03  0.45823692203E+03  0.91346889924E+02 0.  0.
          4    1    3    3  502    0 -0.71917677268E+02 -0.21416361236E+03  0.11955928742E+03  0.25560248115E+03  0.00000000000E+00 0. -1.
         -3    1    3    3    0  502 -0.70344012243E+02 -0.52014320036E+03  0.35536744340E+03  0.63386374622E+03  0.00000000000E+00 0.  1.
         13    1    5    5    0    0 -0.19563226025E+03  0.65515520074E+03 -0.62337586672E+03  0.92525552660E+03  0.00000000000E+00 0.  1.
        -13    1    5    5    0    0 -0.41511988980E+02  0.67474975446E+02 -0.10853414153E+03  0.13437178803E+03  0.00000000000E+00 0. -1.
          4    1    6    6  503    0  0.12195175271E+03  0.50140294817E+01 -0.29225122667E+02  0.12550489343E+03  0.00000000000E+00 0. -1.
         -4    1    6    6    0  503  0.25745418604E+03  0.66626070621E+01 -0.21067404827E+03  0.33273202860E+03  0.00000000000E+00 0.  1.
<mgrwt>
<rscale>  0 0.23554931E+04</rscale>
<asrwt>0</asrwt>
<pdfrwt beam="1">  1        2 0.22340099E+00 0.23554931E+04</pdfrwt>
<pdfrwt beam="2">  1       -1 0.14695754E+00 0.23554931E+04</pdfrwt>
<totfact> 0.51220918E+00</totfact>
</mgrwt>
</event>
<event>
12    7  0.1675873E-007  0.1458803E+04  0.7818608E-02  0.8912320E-01
         -1   -1    0    0    0  501 -0.00000000000E+00  0.00000000000E+00  0.25080969575E+03  0.25080969575E+03  0.00000000000E+00 0.  1.
          2   -1    0    0  501    0  0.00000000000E+00 -0.00000000000E+00 -0.21212353504E+04  0.21212353504E+04  0.00000000000E+00 0. -1.
         24    2    1    2    0    0 -0.43730813414E+03  0.21841109425E+02 -0.69504901943E+03  0.82535571645E+03  0.80021753407E+02 0.  0.
        254    2    1    2    0    0  0.43730813414E+03 -0.21841109425E+02 -0.11753766352E+04  0.15466893297E+04  0.90499845841E+03 0.  0.
         23    2    4    4    0    0  0.51084660079E+02 -0.32560765240E+03 -0.92366501708E+02  0.35390740457E+03  0.89938282055E+02 0.  0.
         23    2    4    4    0    0  0.38622347406E+03  0.30376654297E+03 -0.10830101335E+04  0.11927819251E+04  0.91515501861E+02 0.  0.
          4    1    3    3  502    0 -0.24671089005E+03  0.33245217597E+02 -0.45479778820E+03  0.51847134531E+03  0.00000000000E+00 0. -1.
         -1    1    3    3    0  502 -0.19059724410E+03 -0.11404108172E+02 -0.24025123124E+03  0.30688437114E+03  0.00000000000E+00 0.  1.
         13    1    5    5    0    0  0.18604642689E+02 -0.18258209408E+03 -0.96155482911E+02  0.20719129012E+03  0.00000000000E+00 0. -1.
        -13    1    5    5    0    0  0.32480017390E+02 -0.14302555831E+03  0.37889812024E+01  0.14671611445E+03  0.00000000000E+00 0.  1.
          3    1    6    6  503    0  0.42889546053E+02  0.92695183227E+01 -0.60974450271E+02  0.75122038820E+02  0.00000000000E+00 0. -1.
         -3    1    6    6    0  503  0.34333392801E+03  0.29449702465E+03 -0.10220356832E+04  0.11176598863E+04  0.00000000000E+00 0.  1.
<mgrwt>
<rscale>  0 0.14588028E+04</rscale>
<asrwt>0</asrwt>
<pdfrwt beam="1">  1        2 0.32634390E+00 0.14588028E+04</pdfrwt>
<pdfrwt beam="2">  1       -1 0.38586107E-01 0.14588028E+04</pdfrwt>
<totfact> 0.41091941E+01</totfact>
</mgrwt>
</event>
<event>
12    7  0.1675873E-007  0.1500617E+04  0.7818608E-02  0.8884043E-01
          2   -1    0    0  501    0  0.00000000000E+00  0.00000000000E+00  0.10122050178E+04  0.10122050178E+04  0.00000000000E+00 0. -1.
         -1   -1    0    0    0  501 -0.00000000000E+00 -0.00000000000E+00 -0.55617462396E+03  0.55617462396E+03  0.00000000000E+00 0.  1.
         24    2    1    2    0    0  0.32788814530E+03  0.18267162655E+03  0.43349056269E+03  0.57911850796E+03  0.81145667466E+02 0.  0.
        254    2    1    2    0    0 -0.32788814530E+03 -0.18267162655E+03  0.22539831151E+02  0.98926113379E+03  0.91501365447E+03 0.  0.
         23    2    4    4    0    0 -0.71297503034E+02 -0.46801302639E+03  0.24178061898E+03  0.53941368090E+03  0.91595439905E+02 0.  0.
         23    2    4    4    0    0 -0.25659064227E+03  0.28534139985E+03 -0.21924078783E+03  0.44984745289E+03  0.83891213247E+02 0.  0.
          2    1    3    3  502    0  0.29847910464E+03  0.14002265886E+03  0.39539445437E+03  0.51481345694E+03  0.00000000000E+00 0. -1.
         -1    1    3    3    0  502  0.29409040655E+02  0.42648967692E+02  0.38096108321E+02  0.64305051020E+02  0.00000000000E+00 0.  1.
         13    1    5    5    0    0 -0.23333996553E+02 -0.19854245027E+03  0.15276584019E+03  0.25159686382E+03  0.00000000000E+00 0. -1.
        -13    1    5    5    0    0 -0.47963506481E+02 -0.26947057613E+03  0.89014778793E+02  0.28781681708E+03  0.00000000000E+00 0.  1.
          3    1    6    6  503    0 -0.13875786147E+03  0.12544532675E+03 -0.14907863366E+03  0.23919597225E+03  0.00000000000E+00 0. -1.
         -3    1    6    6    0  503 -0.11783278079E+03  0.15989607309E+03 -0.70162154165E+02  0.21065148064E+03  0.00000000000E+00 0.  1.
<mgrwt>
<rscale>  0 0.15006169E+04</rscale>
<asrwt>0</asrwt>
<pdfrwt beam="1">  1        2 0.15572385E+00 0.15006169E+04</pdfrwt>
<pdfrwt beam="2">  1       -1 0.85565327E-01 0.15006169E+04</pdfrwt>
<totfact> 0.36806608E+01</totfact>
</mgrwt>
</event>
<event>
12    7  0.1675873E-007  0.2945223E+04  0.7818608E-02  0.8259548E-01
         -1   -1    0    0    0  501 -0.00000000000E+00  0.00000000000E+00  0.10468630219E+04  0.10468630219E+04  0.00000000000E+00 0.  1.
          2   -1    0    0  501    0  0.00000000000E+00 -0.00000000000E+00 -0.20715069219E+04  0.20715069219E+04  0.00000000000E+00 0. -1.
         24    2    1    2    0    0 -0.97072732280E+03 -0.57581172310E+03  0.29097789157E+03  0.11682765595E+04  0.79569531412E+02 0.  0.
        254    2    1    2    0    0  0.97072732280E+03  0.57581172310E+03 -0.13156217916E+04  0.19500933843E+04  0.89338280339E+03 0.  0.
         23    2    4    4    0    0  0.82589101747E+02  0.41043067497E+03 -0.79604520413E+03  0.90381449212E+03  0.88985226067E+02 0.  0.
         23    2    4    4    0    0  0.88813822106E+03  0.16538104813E+03 -0.51957658743E+03  0.10462788922E+04  0.92732406702E+02 0.  0.
          2    1    3    3  502    0 -0.87931799338E+03 -0.50608287826E+03  0.24023967030E+03  0.10426097603E+04  0.00000000000E+00 0. -1.
         -1    1    3    3    0  502 -0.91409329424E+02 -0.69728844843E+02  0.50738221274E+02  0.12566679914E+03  0.00000000000E+00 0.  1.
         13    1    5    5    0    0 -0.15797868905E+02  0.12315936060E+03 -0.24338615698E+03  0.27322998037E+03  0.00000000000E+00 0.  1.
        -13    1    5    5    0    0  0.98386970652E+02  0.28727131437E+03 -0.55265904715E+03  0.63058451174E+03  0.00000000000E+00 0. -1.
          4    1    6    6  503    0  0.60280569531E+03  0.99561579861E+02 -0.30243991717E+03  0.68173097185E+03  0.00000000000E+00 0. -1.
         -4    1    6    6    0  503  0.28533252575E+03  0.65819468272E+02 -0.21713667026E+03  0.36454792034E+03  0.00000000000E+00 0.  1.
<mgrwt>
<rscale>  0 0.29452226E+04</rscale>
<asrwt>0</asrwt>
<pdfrwt beam="1">  1        2 0.31869337E+00 0.29452226E+04</pdfrwt>
<pdfrwt beam="2">  1       -1 0.16105585E+00 0.29452226E+04</pdfrwt>
<totfact> 0.17103126E+00</totfact>
</mgrwt>
</event>
<event>
12    7  0.1675873E-007  0.1211179E+04  0.7818608E-02  0.9103128E-01
          2   -1    0    0  501    0  0.00000000000E+00  0.00000000000E+00  0.22385829634E+04  0.22385829634E+04  0.00000000000E+00 0. -1.
         -1   -1    0    0    0  501 -0.00000000000E+00 -0.00000000000E+00 -0.16382617614E+03  0.16382617614E+03  0.00000000000E+00 0.  1.
         24    2    1    2    0    0 -0.22685997243E+03  0.89158987941E+02  0.39400346622E+03  0.47637936166E+03  0.11083227236E+03 0.  0.
        254    2    1    2    0    0  0.22685997243E+03 -0.89158987941E+02  0.16807533211E+04  0.19260297779E+04  0.90842952775E+03 0.  0.
         23    2    4    4    0    0  0.47040190168E+03  0.20190479426E+03  0.71269029510E+03  0.88221752110E+03  0.91306093744E+02 0.  0.
         23    2    4    4    0    0 -0.24354192925E+03 -0.29106378220E+03  0.96806302595E+03  0.10438122568E+04  0.91472447290E+02 0.  0.
          4    1    3    3  502    0 -0.19314113686E+03  0.10856830601E+03  0.28734630630E+03  0.36284773055E+03  0.00000000000E+00 0. -1.
         -3    1    3    3    0  502 -0.33718835570E+02 -0.19409318073E+02  0.10665715992E+03  0.11353163111E+03  0.00000000000E+00 0.  1.
         13    1    5    5    0    0  0.36959428601E+03  0.13447101229E+03  0.48677482101E+03  0.62580517397E+03  0.00000000000E+00 0.  1.
        -13    1    5    5    0    0  0.10080761567E+03  0.67433781966E+02  0.22591547409E+03  0.25641234713E+03  0.00000000000E+00 0. -1.
          3    1    6    6  503    0 -0.35427297381E+02 -0.10525108740E+03  0.25650634441E+03  0.27951456048E+03  0.00000000000E+00 0. -1.
         -3    1    6    6    0  503 -0.20811463187E+03 -0.18581269480E+03  0.71155668154E+03  0.76429769632E+03  0.00000000000E+00 0.  1.
<mgrwt>
<rscale>  0 0.12111787E+04</rscale>
<asrwt>0</asrwt>
<pdfrwt beam="1">  1        2 0.34439736E+00 0.12111787E+04</pdfrwt>
<pdfrwt beam="2">  1       -1 0.25204029E-01 0.12111787E+04</pdfrwt>
<totfact> 0.76443820E+01</totfact>
</mgrwt>
</event>
<event>
12    7  0.1675873E-007  0.1694607E+04  0.7818608E-02  0.8764446E-01
         -1   -1    0    0    0  501 -0.00000000000E+00  0.00000000000E+00  0.38457721844E+03  0.38457721844E+03  0.00000000000E+00 0.  1.
          2   -1    0    0  501    0  0.00000000000E+00 -0.00000000000E+00 -0.18667848101E+04  0.18667848101E+04  0.00000000000E+00 0. -1.
         24    2    1    2    0    0  0.34564645593E+03 -0.97861016980E+02  0.11281533730E+03  0.38522555720E+03  0.81382912509E+02 0.  0.
        254    2    1    2    0    0 -0.34564645593E+03  0.97861016980E+02 -0.15950229290E+04  0.18661364714E+04  0.89962155075E+03 0.  0.
         23    2    4    4    0    0 -0.82495472063E+02 -0.30618287643E+03 -0.11735209986E+04  0.12193496422E+04  0.95438771671E+02 0.  0.
         23    2    4    4    0    0 -0.26315098387E+03  0.40404389341E+03 -0.42150193042E+03  0.64678682914E+03  0.90384826679E+02 0.  0.
          4    1    3    3  502    0  0.20081258186E+03 -0.51723650696E+02  0.22924154517E+02  0.20863016544E+03  0.00000000000E+00 0. -1.
         -1    1    3    3    0  502  0.14483387408E+03 -0.46137366284E+02  0.89891182787E+02  0.17659539176E+03  0.00000000000E+00 0.  1.
         13    1    5    5    0    0 -0.59585124888E+02 -0.79842571848E+02 -0.27547175367E+03  0.29293328670E+03  0.00000000000E+00 0. -1.
        -13    1    5    5    0    0 -0.22910347175E+02 -0.22634030458E+03 -0.89804924491E+03  0.92641635552E+03  0.00000000000E+00 0.  1.
          2    1    6    6  503    0 -0.88921080148E+02  0.18613493024E+03 -0.22672397321E+03  0.30652394813E+03  0.00000000000E+00 0. -1.
         -2    1    6    6    0  503 -0.17422990372E+03  0.21790896317E+03 -0.19477795721E+03  0.34026288102E+03  0.00000000000E+00 0.  1.
<mgrwt>
<rscale>  0 0.16946066E+04</rscale>
<asrwt>0</asrwt>
<pdfrwt beam="1">  1        2 0.28719766E+00 0.16946066E+04</pdfrwt>
<pdfrwt beam="2">  1       -1 0.59165727E-01 0.16946066E+04</pdfrwt>
<totfact> 0.24875821E+01</totfact>
</mgrwt>
</event>
<event>
12    7  0.1675873E-007  0.1302381E+04  0.7818608E-02  0.9027679E-01
          2   -1    0    0  501    0  0.00000000000E+00  0.00000000000E+00  0.13618580457E+04  0.13618580457E+04  0.00000000000E+00 0. -1.
         -1   -1    0    0    0  501 -0.00000000000E+00 -0.00000000000E+00 -0.31137521002E+03  0.31137521002E+03  0.00000000000E+00 0.  1.
         24    2    1    2    0    0 -0.18048472305E+03 -0.24055129395E+03  0.48814855129E+03  0.57884939546E+03  0.79611269453E+02 0.  0.
        254    2    1    2    0    0  0.18048472305E+03  0.24055129395E+03  0.56233428441E+03  0.10943838603E+04  0.88939109841E+03 0.  0.
         23    2    4    4    0    0 -0.57719527528E+02 -0.29481371132E+03  0.33251573458E+03  0.45696214970E+03  0.89448444795E+02 0.  0.
         23    2    4    4    0    0  0.23820425058E+03  0.53536500527E+03  0.22981854984E+03  0.63742171057E+03  0.10066239317E+03 0.  0.
          2    1    3    3  502    0 -0.12797872590E+03 -0.21933967019E+03  0.41151609613E+03  0.48356379370E+03  0.00000000000E+00 0. -1.
         -1    1    3    3    0  502 -0.52505997150E+02 -0.21211623757E+02  0.76632455153E+02  0.95285601756E+02  0.00000000000E+00 0.  1.
         13    1    5    5    0    0 -0.11943339544E+02 -0.44904148238E+02  0.12051014882E+02  0.48002633763E+02  0.00000000000E+00 0. -1.
        -13    1    5    5    0    0 -0.45776187984E+02 -0.24990956308E+03  0.32046471970E+03  0.40895951594E+03  0.00000000000E+00 0.  1.
          3    1    6    6  503    0  0.20307879812E+03  0.44797648965E+03  0.15072815406E+03  0.51443455362E+03  0.00000000000E+00 0.  1.
         -3    1    6    6    0  503  0.35125452461E+02  0.87388515619E+02  0.79090395776E+02  0.12298715696E+03  0.00000000000E+00 0. -1.
<mgrwt>
<rscale>  0 0.13023806E+04</rscale>
<asrwt>0</asrwt>
<pdfrwt beam="1">  1        2 0.20951662E+00 0.13023806E+04</pdfrwt>
<pdfrwt beam="2">  1       -1 0.47903879E-01 0.13023806E+04</pdfrwt>
<totfact> 0.73996856E+01</totfact>
</mgrwt>
</event>
<event>
12    7  0.1675873E-007  0.2533155E+04  0.7818608E-02  0.8391268E-01
         -1   -1    0    0    0  501 -0.00000000000E+00  0.00000000000E+00  0.11970616981E+04  0.11970616981E+04  0.00000000000E+00 0.  1.
          2   -1    0    0  501    0  0.00000000000E+00 -0.00000000000E+00 -0.13401302476E+04  0.13401302476E+04  0.00000000000E+00 0. -1.
         24    2    1    2    0    0  0.60987965349E+03  0.38098723672E+03  0.77287948670E+03  0.10610285354E+04  0.10646307222E+03 0.  0.
        254    2    1    2    0    0 -0.60987965349E+03 -0.38098723672E+03 -0.91594803616E+03  0.14761634103E+04  0.90718969500E+03 0.  0.
         23    2    4    4    0    0  0.76458405812E+02  0.12236102995E+03  0.58462335136E+02  0.17908540710E+03  0.88519087985E+02 0.  0.
         23    2    4    4    0    0 -0.68633805930E+03 -0.50334826668E+03 -0.97441037130E+03  0.12970780032E+04  0.92284156293E+02 0.  0.
          2    1    3    3  502    0  0.17481811876E+02  0.18877219971E+01  0.47584685524E+02  0.50729474048E+02  0.00000000000E+00 0. -1.
         -1    1    3    3    0  502  0.59239784162E+03  0.37909951473E+03  0.72529480118E+03  0.10102990614E+04  0.00000000000E+00 0.  1.
         13    1    5    5    0    0  0.85778474196E+02  0.85878348572E+02  0.69471497932E+02  0.13985466175E+03  0.00000000000E+00 0.  1.
        -13    1    5    5    0    0 -0.93200683838E+01  0.36482681382E+02 -0.11009162796E+02  0.39230745353E+02  0.00000000000E+00 0. -1.
          1    1    6    6  503    0 -0.30501741087E+02 -0.21361742913E+02 -0.18403030431E+02  0.41537354257E+02  0.00000000000E+00 0. -1.
         -1    1    6    6    0  503 -0.65583631822E+03 -0.48198652376E+03 -0.95600734087E+03  0.12555406490E+04  0.00000000000E+00 0.  1.
<mgrwt>
<rscale>  0 0.25331550E+04</rscale>
<asrwt>0</asrwt>
<pdfrwt beam="1">  1        2 0.20617388E+00 0.25331550E+04</pdfrwt>
<pdfrwt beam="2">  1       -1 0.18416334E+00 0.25331550E+04</pdfrwt>
<totfact> 0.30851343E+00</totfact>
</mgrwt>
</event>
<event>
12    7  0.1675873E-007  0.1984568E+04  0.7818608E-02  0.8613870E-01
         -1   -1    0    0    0  501 -0.00000000000E+00  0.00000000000E+00  0.78670512394E+03  0.78670512394E+03  0.00000000000E+00 0.  1.
          2   -1    0    0  501    0  0.00000000000E+00 -0.00000000000E+00 -0.12515841645E+04  0.12515841645E+04  0.00000000000E+00 0. -1.
         24    2    1    2    0    0  0.11768680456E+03 -0.14004285311E+03 -0.96708416017E+03  0.98746409007E+03  0.79820872336E+02 0.  0.
        254    2    1    2    0    0 -0.11768680456E+03  0.14004285311E+03  0.50220511960E+03  0.10508251984E+04  0.90474384813E+03 0.  0.
         23    2    4    4    0    0 -0.16553634834E+03 -0.22447121325E+03  0.59249318718E+03  0.66128343654E+03  0.91967376764E+02 0.  0.
         23    2    4    4    0    0  0.47849543778E+02  0.36451406636E+03 -0.90288067580E+02  0.38954176185E+03  0.91819200947E+02 0.  0.
          2    1    3    3  502    0  0.12230334886E+03 -0.14393568279E+03 -0.87362074820E+03  0.89380579636E+03  0.00000000000E+00 0. -1.
         -1    1    3    3    0  502 -0.46165443005E+01  0.38928296831E+01 -0.93463411968E+02  0.93658293711E+02  0.00000000000E+00 0.  1.
         13    1    5    5    0    0 -0.17089975187E+03 -0.21523911819E+03  0.58913930960E+03  0.65009209294E+03  0.00000000000E+00 0.  1.
        -13    1    5    5    0    0  0.53634035313E+01 -0.92320950616E+01  0.33538775737E+01  0.11191343594E+02  0.00000000000E+00 0. -1.
          4    1    6    6  503    0 -0.23691846361E+02  0.85657857587E+02 -0.38462844876E+01  0.88957102329E+02  0.00000000000E+00 0. -1.
         -4    1    6    6    0  503  0.71541390139E+02  0.27885620877E+03 -0.86441783093E+02  0.30058465952E+03  0.00000000000E+00 0.  1.
<mgrwt>
<rscale>  0 0.19845681E+04</rscale>
<asrwt>0</asrwt>
<pdfrwt beam="1">  1        2 0.19255141E+00 0.19845681E+04</pdfrwt>
<pdfrwt beam="2">  1       -1 0.12103156E+00 0.19845681E+04</pdfrwt>
<totfact> 0.11347037E+01</totfact>
</mgrwt>
</event>
<event>
12    7  0.1675873E-007  0.2004772E+04  0.7818608E-02  0.8604393E-01
          2   -1    0    0  501    0  0.00000000000E+00  0.00000000000E+00  0.34201801955E+04  0.34201801955E+04  0.00000000000E+00 0. -1.
         -1   -1    0    0    0  501 -0.00000000000E+00 -0.00000000000E+00 -0.29377922129E+03  0.29377922129E+03  0.00000000000E+00 0.  1.
         24    2    1    2    0    0 -0.73424202440E+03 -0.17052153112E+03  0.16827123778E+04  0.18454458148E+04  0.77203405957E+02 0.  0.
        254    2    1    2    0    0  0.73424202440E+03  0.17052153112E+03  0.14436885964E+04  0.18685136020E+04  0.91592432795E+03 0.  0.
         23    2    4    4    0    0 -0.10994119184E+03 -0.20337708884E+03  0.41072355126E+03  0.48002848604E+03  0.91017613203E+02 0.  0.
         23    2    4    4    0    0  0.84418321624E+03  0.37389861996E+03  0.10329650451E+04  0.13884851160E+04  0.91807691351E+02 0.  0.
          4    1    3    3  502    0 -0.51445378975E+03 -0.11134821330E+03  0.12556552739E+04  0.13615180106E+04  0.00000000000E+00 0. -1.
         -3    1    3    3    0  502 -0.21978823465E+03 -0.59173317822E+02  0.42705710390E+03  0.48392780415E+03  0.00000000000E+00 0.  1.
         13    1    5    5    0    0 -0.48756606902E+02 -0.51989268115E+02  0.20710198277E+03  0.21902356491E+03  0.00000000000E+00 0. -1.
        -13    1    5    5    0    0 -0.61184584940E+02 -0.15138782073E+03  0.20362156849E+03  0.26100492113E+03  0.00000000000E+00 0.  1.
          1    1    6    6  503    0  0.17725623079E+03  0.84588347489E+02  0.27829034951E+03  0.34061778949E+03  0.00000000000E+00 0. -1.
         -1    1    6    6    0  503  0.66692698546E+03  0.28931027247E+03  0.75467469564E+03  0.10478673265E+04  0.00000000000E+00 0.  1.
<mgrwt>
<rscale>  0 0.20047722E+04</rscale>
<asrwt>0</asrwt>
<pdfrwt beam="1">  1        2 0.52618154E+00 0.20047722E+04</pdfrwt>
<pdfrwt beam="2">  1       -1 0.45196806E-01 0.20047722E+04</pdfrwt>
<totfact> 0.47655918E+00</totfact>
</mgrwt>
</event>
<event>
12    7  0.1675873E-007  0.2689109E+04  0.7818608E-02  0.8338547E-01
          2   -1    0    0  501    0  0.00000000000E+00  0.00000000000E+00  0.13073502537E+04  0.13073502537E+04  0.00000000000E+00 0. -1.
         -1   -1    0    0    0  501 -0.00000000000E+00 -0.00000000000E+00 -0.13828175384E+04  0.13828175384E+04  0.00000000000E+00 0.  1.
         24    2    1    2    0    0  0.87490193641E+03 -0.67486891984E+03 -0.40216216535E+03  0.11785298054E+04  0.79351355577E+02 0.  0.
        254    2    1    2    0    0 -0.87490193641E+03  0.67486891984E+03  0.32669488065E+03  0.15116379867E+04  0.97847759326E+03 0.  0.
         23    2    4    4    0    0  0.17852416377E+03  0.24176819264E+03  0.17939759458E+03  0.35959011256E+03  0.82454933671E+02 0.  0.
         23    2    4    4    0    0 -0.10534261002E+04  0.43310072720E+03  0.14729728607E+03  0.11520478741E+04  0.90747040680E+02 0.  0.
          4    1    3    3  502    0  0.29921574543E+03 -0.19958212576E+03 -0.10142845234E+03  0.37369883353E+03  0.00000000000E+00 0. -1.
         -3    1    3    3    0  502  0.57568619098E+03 -0.47528679408E+03 -0.30073371301E+03  0.80483097185E+03  0.00000000000E+00 0.  1.
         13    1    5    5    0    0  0.12626957073E+03  0.21326225024E+03  0.11949912095E+03  0.27514511040E+03  0.00000000000E+00 0. -1.
        -13    1    5    5    0    0  0.52254593046E+02  0.28505942401E+02  0.59898473637E+02  0.84445002165E+02  0.00000000000E+00 0.  1.
          2    1    6    6  503    0 -0.10535509184E+04  0.42755730194E+03  0.14729030941E+03  0.11465030394E+04  0.00000000000E+00 0. -1.
         -2    1    6    6    0  503  0.12481826584E+00  0.55434252579E+01  0.69766562447E-02  0.55448347012E+01  0.00000000000E+00 0.  1.
<mgrwt>
<rscale>  0 0.26891090E+04</rscale>
<asrwt>0</asrwt>
<pdfrwt beam="1">  1        2 0.20113081E+00 0.26891090E+04</pdfrwt>
<pdfrwt beam="2">  1       -1 0.21274116E+00 0.26891090E+04</pdfrwt>
<totfact> 0.20169436E+00</totfact>
</mgrwt>
</event>
<event>
12    7  0.1675873E-007  0.1823690E+04  0.7818608E-02  0.8693802E-01
          2   -1    0    0  501    0  0.00000000000E+00  0.00000000000E+00  0.13108417992E+04  0.13108417992E+04  0.00000000000E+00 0. -1.
         -1   -1    0    0    0  501 -0.00000000000E+00 -0.00000000000E+00 -0.63429591928E+03  0.63429591928E+03  0.00000000000E+00 0.  1.
         24    2    1    2    0    0 -0.46202011171E+03 -0.15155323717E+03 -0.25663461669E+03  0.55606098129E+03  0.83135558665E+02 0.  0.
        254    2    1    2    0    0  0.46202011171E+03  0.15155323717E+03  0.93318049663E+03  0.13890767372E+04  0.90679511205E+03 0.  0.
         23    2    4    4    0    0 -0.22705224794E+02 -0.32805830002E+03  0.31991959724E+03  0.46739498025E+03  0.89284620311E+02 0.  0.
         23    2    4    4    0    0  0.48472533650E+03  0.47961153719E+03  0.61326089939E+03  0.92168175695E+03  0.91773917455E+02 0.  0.
          4    1    3    3  502    0 -0.11496931677E+03 -0.61126648872E+02 -0.36407357886E+02  0.13520320525E+03  0.00000000000E+00 0. -1.
         -3    1    3    3    0  502 -0.34705079494E+03 -0.90426588298E+02 -0.22022725881E+03  0.42085777605E+03  0.00000000000E+00 0.  1.
         13    1    5    5    0    0 -0.33741893770E+02 -0.39735376799E+02  0.45239173554E+02  0.69021724033E+02  0.00000000000E+00 0.  1.
        -13    1    5    5    0    0  0.11036668977E+02 -0.28832292322E+03  0.27468042368E+03  0.39837325622E+03  0.00000000000E+00 0. -1.
          3    1    6    6  503    0  0.29335934745E+03  0.28945553905E+03  0.42963330347E+03  0.59533939167E+03  0.00000000000E+00 0. -1.
         -3    1    6    6    0  503  0.19136598905E+03  0.19015599814E+03  0.18362759592E+03  0.32634236528E+03  0.00000000000E+00 0.  1.
<mgrwt>
<rscale>  0 0.18236903E+04</rscale>
<asrwt>0</asrwt>
<pdfrwt beam="1">  1        2 0.20166797E+00 0.18236903E+04</pdfrwt>
<pdfrwt beam="2">  1       -1 0.97583988E-01 0.18236903E+04</pdfrwt>
<totfact> 0.17637492E+01</totfact>
</mgrwt>
</event>
<event>
12    7  0.1675873E-007  0.1712830E+04  0.7818608E-02  0.8754081E-01
         -1   -1    0    0    0  501 -0.00000000000E+00  0.00000000000E+00  0.20193541237E+03  0.20193541237E+03  0.00000000000E+00 0.  1.
          2   -1    0    0  501    0  0.00000000000E+00 -0.00000000000E+00 -0.36320832764E+04  0.36320832764E+04  0.00000000000E+00 0. -1.
         24    2    1    2    0    0  0.15990809727E+03 -0.77648292886E+02  0.76595496115E+02  0.20994969020E+03  0.81315099635E+02 0.  0.
        254    2    1    2    0    0 -0.15990809727E+03  0.77648292886E+02 -0.35067433601E+04  0.36240689986E+04  0.89723311102E+03 0.  0.
         23    2    4    4    0    0 -0.26644729417E+02  0.46531375032E+03 -0.22331592958E+04  0.22829995469E+04  0.88654739914E+02 0.  0.
         23    2    4    4    0    0 -0.13326336785E+03 -0.38766545743E+03 -0.12735840644E+04  0.13410694517E+04  0.91691183526E+02 0.  0.
          4    1    3    3  502    0  0.18345369809E+01 -0.13880581879E+02 -0.11463651913E+02  0.18095618100E+02  0.00000000000E+00 0. -1.
         -3    1    3    3    0  502  0.15807356029E+03 -0.63767711007E+02  0.88059148027E+02  0.19185407210E+03  0.00000000000E+00 0.  1.
         13    1    5    5    0    0 -0.12637903008E+02  0.10979984314E+03 -0.36923503182E+03  0.38542214631E+03  0.00000000000E+00 0.  1.
        -13    1    5    5    0    0 -0.14006826409E+02  0.35551390718E+03 -0.18639242639E+04  0.18975774006E+04  0.00000000000E+00 0. -1.
          4    1    6    6  503    0 -0.95300963958E+02 -0.16116886738E+03 -0.65474415723E+03  0.68099015335E+03  0.00000000000E+00 0.  1.
         -4    1    6    6    0  503 -0.37962403895E+02 -0.22649659006E+03 -0.61883990715E+03  0.66007929834E+03  0.00000000000E+00 0. -1.
<mgrwt>
<rscale>  0 0.17128295E+04</rscale>
<asrwt>0</asrwt>
<pdfrwt beam="1">  1        2 0.55878197E+00 0.17128295E+04</pdfrwt>
<pdfrwt beam="2">  1       -1 0.31066990E-01 0.17128295E+04</pdfrwt>
<totfact> 0.68743739E+00</totfact>
</mgrwt>
</event>
<event>
12    7  0.1675873E-007  0.1938989E+04  0.7818608E-02  0.8635689E-01
          2   -1    0    0  501    0  0.00000000000E+00  0.00000000000E+00  0.16481555791E+04  0.16481555791E+04  0.00000000000E+00 0. -1.
         -1   -1    0    0    0  501 -0.00000000000E+00 -0.00000000000E+00 -0.57028593850E+03  0.57028593850E+03  0.00000000000E+00 0.  1.
         24    2    1    2    0    0  0.17730325493E+03 -0.28692162585E+03 -0.35336866807E+03  0.49474651594E+03  0.78385176356E+02 0.  0.
        254    2    1    2    0    0 -0.17730325493E+03  0.28692162585E+03  0.14312383087E+04  0.17236950017E+04  0.89940029964E+03 0.  0.
         23    2    4    4    0    0  0.17789130419E+03 -0.21099845539E+03  0.74775407801E+03  0.80205439514E+03  0.89383596384E+02 0.  0.
         23    2    4    4    0    0 -0.35519455912E+03  0.49792008125E+03  0.68348423069E+03  0.92164060655E+03  0.90460665006E+02 0.  0.
          4    1    3    3  502    0  0.69385804120E+02 -0.10423935686E+03 -0.79588453076E+02  0.14837302718E+03  0.00000000000E+00 0. -1.
         -3    1    3    3    0  502  0.10791745081E+03 -0.18268226899E+03 -0.27378021499E+03  0.34637348876E+03  0.00000000000E+00 0.  1.
         13    1    5    5    0    0  0.16846724775E+03 -0.19714583044E+03  0.73894225384E+03  0.78312409396E+03  0.00000000000E+00 0. -1.
        -13    1    5    5    0    0  0.94240564345E+01 -0.13852624952E+02  0.88118241691E+01  0.18930301184E+02  0.00000000000E+00 0.  1.
          4    1    6    6  503    0 -0.29013384113E+03  0.35726307139E+03  0.46972959613E+03  0.65761724538E+03  0.00000000000E+00 0. -1.
         -4    1    6    6    0  503 -0.65060717983E+02  0.14065700986E+03  0.21375463456E+03  0.26402336117E+03  0.00000000000E+00 0.  1.
<mgrwt>
<rscale>  0 0.19389894E+04</rscale>
<asrwt>0</asrwt>
<pdfrwt beam="1">  1        2 0.25356239E+00 0.19389894E+04</pdfrwt>
<pdfrwt beam="2">  1       -1 0.87736299E-01 0.19389894E+04</pdfrwt>
<totfact> 0.14241643E+01</totfact>
</mgrwt>
</event>
<event>
12    7  0.1675873E-007  0.2248010E+04  0.7818608E-02  0.8498707E-01
          2   -1    0    0  501    0  0.00000000000E+00  0.00000000000E+00  0.23710460718E+04  0.23710460718E+04  0.00000000000E+00 0. -1.
         -3   -1    0    0    0  501 -0.00000000000E+00 -0.00000000000E+00 -0.53283947281E+03  0.53283947281E+03  0.00000000000E+00 0.  1.
         24    2    1    2    0    0  0.75222054093E+03  0.11584213872E+03  0.66339492762E+02  0.76875361688E+03  0.85592358659E+02 0.  0.
        254    2    1    2    0    0 -0.75222054093E+03 -0.11584213872E+03  0.17718671062E+04  0.21351319277E+04  0.91652613896E+03 0.  0.
         23    2    4    4    0    0 -0.68524371488E+03 -0.26345968823E+03  0.18014265459E+04  0.19474760706E+04  0.92495888413E+02 0.  0.
         23    2    4    4    0    0 -0.66976826051E+02  0.14761754951E+03 -0.29559439668E+02  0.18765585709E+03  0.89800468125E+02 0.  0.
          2    1    3    3  502    0  0.15025956108E+03  0.32616744195E+02 -0.19663119994E+02  0.15501105118E+03  0.00000000000E+00 0. -1.
         -1    1    3    3    0  502  0.60196097985E+03  0.83225394529E+02  0.86002612756E+02  0.61374256570E+03  0.00000000000E+00 0.  1.
         13    1    5    5    0    0 -0.28834887488E+03 -0.15541236517E+03  0.74743707678E+03  0.81606388269E+03  0.00000000000E+00 0. -1.
        -13    1    5    5    0    0 -0.39689484000E+03 -0.10804732307E+03  0.10539894691E+04  0.11314121879E+04  0.00000000000E+00 0.  1.
          4    1    6    6  503    0 -0.79110681815E+01  0.11643729567E+03 -0.60994501372E+01  0.11686501664E+03  0.00000000000E+00 0. -1.
         -4    1    6    6    0  503 -0.59065757870E+02  0.31180253836E+02 -0.23459989531E+02  0.70790840444E+02  0.00000000000E+00 0.  1.
<mgrwt>
<rscale>  0 0.22480097E+04</rscale>
<asrwt>0</asrwt>
<pdfrwt beam="1">  1        2 0.36477631E+00 0.22480097E+04</pdfrwt>
<pdfrwt beam="2">  1       -3 0.81975305E-01 0.22480097E+04</pdfrwt>
<totfact> 0.33148604E+00</totfact>
</mgrwt>
</event>
<event>
12    7  0.1675873E-007  0.1401223E+04  0.7818608E-02  0.8952933E-01
         -1   -1    0    0    0  501 -0.00000000000E+00  0.00000000000E+00  0.43546485946E+03  0.43546485946E+03  0.00000000000E+00 0.  1.
          2   -1    0    0  501    0  0.00000000000E+00 -0.00000000000E+00 -0.11272017399E+04  0.11272017399E+04  0.00000000000E+00 0. -1.
         24    2    1    2    0    0 -0.36590857032E+03 -0.77167582074E+02 -0.38167735920E+03  0.54033889009E+03  0.80278216617E+02 0.  0.
        254    2    1    2    0    0  0.36590857032E+03  0.77167582074E+02 -0.31005952126E+03  0.10223277093E+04  0.89954050542E+03 0.  0.
         23    2    4    4    0    0  0.29299922366E+03 -0.37632535163E+03 -0.26204290928E+03  0.55173192643E+03  0.90952278662E+02 0.  0.
         23    2    4    4    0    0  0.72909346656E+02  0.45349293370E+03 -0.48016611988E+02  0.47059578286E+03  0.90460942224E+02 0.  0.
          2    1    3    3  502    0 -0.32309273413E+03 -0.39904136095E+02 -0.31918517648E+03  0.45591713261E+03  0.00000000000E+00 0. -1.
         -1    1    3    3    0  502 -0.42815836191E+02 -0.37263445979E+02 -0.62492182721E+02  0.84421757481E+02  0.00000000000E+00 0.  1.
         13    1    5    5    0    0 -0.13196072123E+00 -0.39001180237E+01 -0.18432864416E+02  0.18841412495E+02  0.00000000000E+00 0.  1.
        -13    1    5    5    0    0  0.29313118438E+03 -0.37242523360E+03 -0.24361004486E+03  0.53289051393E+03  0.00000000000E+00 0. -1.
          2    1    6    6  503    0  0.33728141749E+02  0.75067067571E+02 -0.36354302719E+02  0.89968258323E+02  0.00000000000E+00 0.  1.
         -2    1    6    6    0  503  0.39181204908E+02  0.37842586613E+03 -0.11662309270E+02  0.38062752453E+03  0.00000000000E+00 0. -1.
<mgrwt>
<rscale>  0 0.14012234E+04</rscale>
<asrwt>0</asrwt>
<pdfrwt beam="1">  1        2 0.17341565E+00 0.14012234E+04</pdfrwt>
<pdfrwt beam="2">  1       -1 0.66994595E-01 0.14012234E+04</pdfrwt>
<totfact> 0.52518367E+01</totfact>
</mgrwt>
</event>
<event>
12    7  0.1675873E-007  0.3064111E+04  0.7818608E-02  0.8225657E-01
         -1   -1    0    0    0  501 -0.00000000000E+00  0.00000000000E+00  0.88595774681E+03  0.88595774681E+03  0.00000000000E+00 0.  1.
          2   -1    0    0  501    0  0.00000000000E+00 -0.00000000000E+00 -0.26493288593E+04  0.26493288593E+04  0.00000000000E+00 0. -1.
         24    2    1    2    0    0  0.78786587722E+03 -0.85683939023E+03 -0.17017825456E+04  0.20633109425E+04  0.79258006654E+02 0.  0.
        254    2    1    2    0    0 -0.78786587722E+03  0.85683939023E+03 -0.61588566848E+02  0.14719756636E+04  0.89889533407E+03 0.  0.
         23    2    4    4    0    0 -0.88897466805E+03  0.37902848930E+03  0.34649422532E+01  0.97062661726E+03  0.90362980092E+02 0.  0.
         23    2    4    4    0    0  0.10110879084E+03  0.47781090093E+03 -0.65053509101E+02  0.50134904637E+03  0.92696615981E+02 0.  0.
          2    1    3    3  502    0  0.64300850578E+03 -0.66396845077E+03 -0.13864417018E+04  0.16662936820E+04  0.00000000000E+00 0. -1.
         -1    1    3    3    0  502  0.14485737143E+03 -0.19287093946E+03 -0.31534084388E+03  0.39701726054E+03  0.00000000000E+00 0.  1.
         13    1    5    5    0    0 -0.12573141289E+03  0.21307755573E+02 -0.58967015511E+01  0.12766040782E+03  0.00000000000E+00 0. -1.
        -13    1    5    5    0    0 -0.76324325516E+03  0.35772073373E+03  0.93616438042E+01  0.84296620944E+03  0.00000000000E+00 0.  1.
          4    1    6    6  503    0 -0.17203108766E+02  0.74331012404E+02 -0.32721770314E+01  0.76365918437E+02  0.00000000000E+00 0. -1.
         -4    1    6    6    0  503  0.11831189960E+03  0.40347988852E+03 -0.61781332070E+02  0.42498312793E+03  0.00000000000E+00 0.  1.
<mgrwt>
<rscale>  0 0.30641106E+04</rscale>
<asrwt>0</asrwt>
<pdfrwt beam="1">  1        2 0.40758905E+00 0.30641106E+04</pdfrwt>
<pdfrwt beam="2">  1       -1 0.13630119E+00 0.30641106E+04</pdfrwt>
<totfact> 0.12372702E+00</totfact>
</mgrwt>
</event>
<event>
12    7  0.1675873E-007  0.2789253E+04  0.7818608E-02  0.8306613E-01
          2   -1    0    0  501    0  0.00000000000E+00  0.00000000000E+00  0.12667317438E+04  0.12667317438E+04  0.00000000000E+00 0. -1.
         -1   -1    0    0    0  501 -0.00000000000E+00 -0.00000000000E+00 -0.15354338718E+04  0.15354338718E+04  0.00000000000E+00 0.  1.
         24    2    1    2    0    0  0.11419494993E+04 -0.30613706442E+03  0.27277084319E+03  0.12159954067E+04  0.80450822990E+02 0.  0.
        254    2    1    2    0    0 -0.11419494993E+04  0.30613706442E+03 -0.54147297122E+03  0.15861702089E+04  0.90828100922E+03 0.  0.
         23    2    4    4    0    0 -0.87544025215E+03  0.21108819216E+03  0.68254646855E+02  0.90746143108E+03  0.88733827460E+02 0.  0.
         23    2    4    4    0    0 -0.26650924718E+03  0.95048872264E+02 -0.60972761808E+03  0.67870877779E+03  0.93895526236E+02 0.  0.
          2    1    3    3  502    0  0.11357515622E+04 -0.30600571828E+03  0.27707802554E+03  0.12084466653E+04  0.00000000000E+00 0. -1.
         -1    1    3    3    0  502  0.61979371786E+01 -0.13134614368E+00 -0.43071823486E+01  0.75487414092E+01  0.00000000000E+00 0.  1.
         13    1    5    5    0    0  0.72371112636E+00 -0.10823115951E+01 -0.28912768754E+01  0.31709049424E+01  0.00000000000E+00 0.  1.
        -13    1    5    5    0    0 -0.87616396328E+03  0.21217050375E+03  0.71145923731E+02  0.90429052614E+03  0.00000000000E+00 0. -1.
          2    1    6    6  503    0 -0.25931825228E+03  0.65156410848E+02 -0.54675891950E+03  0.60863505477E+03  0.00000000000E+00 0. -1.
         -2    1    6    6    0  503 -0.71909949017E+01  0.29892461416E+02 -0.62968698575E+02  0.70073723017E+02  0.00000000000E+00 0.  1.
<mgrwt>
<rscale>  0 0.27892528E+04</rscale>
<asrwt>0</asrwt>
<pdfrwt beam="1">  1        2 0.19488181E+00 0.27892528E+04</pdfrwt>
<pdfrwt beam="2">  1       -1 0.23622059E+00 0.27892528E+04</pdfrwt>
<totfact> 0.14729416E+00</totfact>
</mgrwt>
</event>
<event>
12    7  0.1675873E-007  0.1271671E+04  0.7818608E-02  0.9052337E-01
          2   -1    0    0  501    0  0.00000000000E+00  0.00000000000E+00  0.73373630617E+03  0.73373630617E+03  0.00000000000E+00 0. -1.
         -1   -1    0    0    0  501 -0.00000000000E+00 -0.00000000000E+00 -0.55099772116E+03  0.55099772116E+03  0.00000000000E+00 0.  1.
         24    2    1    2    0    0 -0.19899364285E+03  0.66015280994E+02  0.28386385658E+03  0.36225961237E+03  0.81834286615E+02 0.  0.
        254    2    1    2    0    0  0.19899364285E+03 -0.66015280994E+02 -0.10112527157E+03  0.92247441496E+03  0.89262323434E+03 0.  0.
         23    2    4    4    0    0 -0.15512749605E+03  0.20640032902E+03  0.23079537866E+03  0.35821658050E+03  0.91580433937E+02 0.  0.
         23    2    4    4    0    0  0.35412113890E+03 -0.27241561002E+03 -0.33192065023E+03  0.56425783446E+03  0.92755269966E+02 0.  0.
          2    1    3    3  502    0 -0.13312246699E+03  0.18396265834E+02  0.22434815917E+03  0.26151885274E+03  0.00000000000E+00 0. -1.
         -1    1    3    3    0  502 -0.65871175856E+02  0.47619015160E+02  0.59515697406E+02  0.10074075963E+03  0.00000000000E+00 0.  1.
         13    1    5    5    0    0 -0.53148467035E+02  0.54712983041E+02  0.19296998449E+02  0.78680646989E+02  0.00000000000E+00 0. -1.
        -13    1    5    5    0    0 -0.10197902901E+03  0.15168734598E+03  0.21149838021E+03  0.27953593351E+03  0.00000000000E+00 0.  1.
          1    1    6    6  503    0  0.22217855028E+03 -0.15642893202E+03 -0.14597811805E+03  0.30845247596E+03  0.00000000000E+00 0. -1.
         -1    1    6    6    0  503  0.13194258862E+03 -0.11598667800E+03 -0.18594253218E+03  0.25580535850E+03  0.00000000000E+00 0.  1.
<mgrwt>
<rscale>  0 0.12716714E+04</rscale>
<asrwt>0</asrwt>
<pdfrwt beam="1">  1        2 0.11288251E+00 0.12716714E+04</pdfrwt>
<pdfrwt beam="2">  1       -1 0.84768880E-01 0.12716714E+04</pdfrwt>
<totfact> 0.59618498E+01</totfact>
</mgrwt>
</event>
<event>
12    7  0.1675873E-007  0.1855422E+04  0.7818608E-02  0.8677369E-01
          2   -1    0    0  501    0  0.00000000000E+00  0.00000000000E+00  0.10368361963E+04  0.10368361963E+04  0.00000000000E+00 0. -1.
         -1   -1    0    0    0  501 -0.00000000000E+00 -0.00000000000E+00 -0.83007123608E+03  0.83007123608E+03  0.00000000000E+00 0.  1.
         24    2    1    2    0    0  0.13065598441E+03 -0.26735680628E+03  0.73344857185E+03  0.79465811835E+03  0.70597941822E+02 0.  0.
        254    2    1    2    0    0 -0.13065598441E+03  0.26735680628E+03 -0.52668361160E+03  0.10722493140E+04  0.88530916443E+03 0.  0.
         23    2    4    4    0    0 -0.33479117974E+03  0.19956541296E+03  0.92888508795E+02  0.41019167221E+03  0.87848988634E+02 0.  0.
         23    2    4    4    0    0  0.20413519533E+03  0.67791393317E+02 -0.61957212040E+03  0.66205764184E+03  0.90464676888E+02 0.  0.
          2    1    3    3  502    0  0.76033991013E+02 -0.12943177936E+03  0.45551764147E+03  0.47961450665E+03  0.00000000000E+00 0. -1.
         -1    1    3    3    0  502  0.54621993393E+02 -0.13792502692E+03  0.27793093038E+03  0.31504361170E+03  0.00000000000E+00 0.  1.
         13    1    5    5    0    0 -0.40051101855E+02  0.53191671428E+02 -0.52341141771E+01  0.66789524780E+02  0.00000000000E+00 0. -1.
        -13    1    5    5    0    0 -0.29474007788E+03  0.14637374153E+03  0.98122622972E+02  0.34340214743E+03  0.00000000000E+00 0.  1.
          4    1    6    6  503    0  0.11972893673E+03  0.13013701614E+02 -0.22907285596E+03  0.25880252715E+03  0.00000000000E+00 0. -1.
         -4    1    6    6    0  503  0.84406258599E+02  0.54777691703E+02 -0.39049926444E+03  0.40325511470E+03  0.00000000000E+00 0.  1.
<mgrwt>
<rscale>  0 0.18554222E+04</rscale>
<asrwt>0</asrwt>
<pdfrwt beam="1">  1        2 0.15951326E+00 0.18554222E+04</pdfrwt>
<pdfrwt beam="2">  1       -1 0.12770327E+00 0.18554222E+04</pdfrwt>
<totfact> 0.13571913E+01</totfact>
</mgrwt>
</event>
<event>
12    7  0.1675873E-007  0.1691812E+04  0.7818608E-02  0.8766048E-01
          2   -1    0    0  501    0  0.00000000000E+00  0.00000000000E+00  0.35779013508E+04  0.35779013508E+04  0.00000000000E+00 0. -1.
         -1   -1    0    0    0  501 -0.00000000000E+00 -0.00000000000E+00 -0.19999350134E+03  0.19999350134E+03  0.00000000000E+00 0.  1.
         24    2    1    2    0    0  0.81110586673E+02 -0.32846817828E+03  0.23073032753E+04  0.23332105650E+04  0.75847642461E+02 0.  0.
        254    2    1    2    0    0 -0.81110586673E+02  0.32846817828E+03  0.10706045742E+04  0.14446842872E+04  0.90909199974E+03 0.  0.
         23    2    4    4    0    0 -0.32308335374E+03  0.52766213642E+03  0.57173900701E+03  0.84833771364E+03  0.99905958619E+02 0.  0.
         23    2    4    4    0    0  0.24197276707E+03 -0.19919395814E+03  0.49886556716E+03  0.59634657355E+03  0.92376018103E+02 0.  0.
          4    1    3    3  502    0  0.17826657338E+02 -0.22060750527E+03  0.15240146374E+04  0.15400019728E+04  0.00000000000E+00 0. -1.
         -1    1    3    3    0  502  0.63283929335E+02 -0.10786067301E+03  0.78328863788E+03  0.79320859219E+03  0.00000000000E+00 0.  1.
         13    1    5    5    0    0 -0.87892933109E+02  0.81500780260E+02  0.81243136837E+02  0.14480328780E+03  0.00000000000E+00 0.  1.
        -13    1    5    5    0    0 -0.23519042064E+03  0.44616135616E+03  0.49049587018E+03  0.70353442584E+03  0.00000000000E+00 0. -1.
          4    1    6    6  503    0  0.23854607598E+03 -0.17193163864E+03  0.41898320556E+03  0.51187073102E+03  0.00000000000E+00 0. -1.
         -4    1    6    6    0  503  0.34266910913E+01 -0.27262319496E+02  0.79882361603E+02  0.84475842532E+02  0.00000000000E+00 0.  1.
<mgrwt>
<rscale>  0 0.16918121E+04</rscale>
<asrwt>0</asrwt>
<pdfrwt beam="1">  1        2 0.55044631E+00 0.16918121E+04</pdfrwt>
<pdfrwt beam="2">  1       -1 0.30768234E-01 0.16918121E+04</pdfrwt>
<totfact> 0.76604273E+00</totfact>
</mgrwt>
</event>
<event>
12    7  0.1675873E-007  0.2107473E+04  0.7818608E-02  0.8557959E-01
          2   -1    0    0  501    0  0.00000000000E+00  0.00000000000E+00  0.24698650336E+04  0.24698650336E+04  0.00000000000E+00 0. -1.
         -1   -1    0    0    0  501 -0.00000000000E+00 -0.00000000000E+00 -0.44956328298E+03  0.44956328298E+03  0.00000000000E+00 0.  1.
         24    2    1    2    0    0  0.58420517000E+03  0.22427013755E+03  0.16476423218E+04  0.17640955278E+04  0.75597852566E+02 0.  0.
        254    2    1    2    0    0 -0.58420517000E+03 -0.22427013755E+03  0.37265942877E+03  0.11553327888E+04  0.89684225350E+03 0.  0.
         23    2    4    4    0    0 -0.63577755609E+03 -0.47603335395E+03  0.17182295176E+03  0.81775818544E+03  0.91566741803E+02 0.  0.
         23    2    4    4    0    0  0.51572386092E+02  0.25176321640E+03  0.20083647701E+03  0.33757460331E+03  0.87045356923E+02 0.  0.
          2    1    3    3  502    0  0.45362626804E+03  0.18151513495E+03  0.11939787228E+04  0.12900812865E+04  0.00000000000E+00 0. -1.
         -1    1    3    3    0  502  0.13057890196E+03  0.42755002603E+02  0.45366359906E+03  0.47401424134E+03  0.00000000000E+00 0.  1.
         13    1    5    5    0    0 -0.90211023636E+02 -0.52323478973E+02  0.52481686687E+02  0.11674803071E+03  0.00000000000E+00 0.  1.
        -13    1    5    5    0    0 -0.54556653246E+03 -0.42370987498E+03  0.11934126508E+03  0.70101015473E+03  0.00000000000E+00 0. -1.
          1    1    6    6  503    0  0.73144110732E+02  0.15439865662E+03  0.11449175154E+03  0.20566323753E+03  0.00000000000E+00 0. -1.
         -1    1    6    6    0  503 -0.21571724640E+02  0.97364559782E+02  0.86344725464E+02  0.13191136578E+03  0.00000000000E+00 0.  1.
<mgrwt>
<rscale>  0 0.21074730E+04</rscale>
<asrwt>0</asrwt>
<pdfrwt beam="1">  1        2 0.37997923E+00 0.21074730E+04</pdfrwt>
<pdfrwt beam="2">  1       -1 0.69163584E-01 0.21074730E+04</pdfrwt>
<totfact> 0.80352615E+00</totfact>
</mgrwt>
</event>
<event>
12    7  0.1675873E-007  0.1631195E+04  0.7818608E-02  0.8801609E-01
          2   -1    0    0  501    0  0.00000000000E+00  0.00000000000E+00  0.16376499627E+04  0.16376499627E+04  0.00000000000E+00 0. -1.
         -1   -1    0    0    0  501 -0.00000000000E+00 -0.00000000000E+00 -0.40619156089E+03  0.40619156089E+03  0.00000000000E+00 0.  1.
         24    2    1    2    0    0 -0.26397332915E+03 -0.17346364382E+03 -0.15857302830E+03  0.36130651356E+03  0.75002914668E+02 0.  0.
        254    2    1    2    0    0  0.26397332915E+03  0.17346364382E+03  0.13900314301E+04  0.16825350100E+04  0.89384849334E+03 0.  0.
         23    2    4    4    0    0  0.56003496914E+03  0.16037093531E+02  0.10641612644E+04  0.12062197379E+04  0.92900508403E+02 0.  0.
         23    2    4    4    0    0 -0.29606164000E+03  0.15742655029E+03  0.32587016571E+03  0.47631527211E+03  0.90825437691E+02 0.  0.
          4    1    3    3  502    0 -0.17357225493E+03 -0.10381399806E+03 -0.61243609374E+02  0.21131837016E+03  0.00000000000E+00 0. -1.
         -3    1    3    3    0  502 -0.90401074212E+02 -0.69649645761E+02 -0.97329418928E+02  0.14998814341E+03  0.00000000000E+00 0.  1.
         13    1    5    5    0    0  0.31487309962E+03  0.36304870141E+02  0.67687290535E+03  0.74740888572E+03  0.00000000000E+00 0.  1.
        -13    1    5    5    0    0  0.24516186952E+03 -0.20267776610E+02  0.38728835904E+03  0.45881085219E+03  0.00000000000E+00 0. -1.
          1    1    6    6  503    0 -0.11825874231E+03  0.99406772046E+02  0.19136615316E+03  0.24594275968E+03  0.00000000000E+00 0. -1.
         -1    1    6    6    0  503 -0.17780289769E+03  0.58019778247E+02  0.13450401254E+03  0.23037251243E+03  0.00000000000E+00 0.  1.
<mgrwt>
<rscale>  0 0.16311954E+04</rscale>
<asrwt>0</asrwt>
<pdfrwt beam="1">  1        2 0.25194614E+00 0.16311954E+04</pdfrwt>
<pdfrwt beam="2">  1       -1 0.62491010E-01 0.16311954E+04</pdfrwt>
<totfact> 0.30073424E+01</totfact>
</mgrwt>
</event>
<event>
12    7  0.1675873E-007  0.1347443E+04  0.7818608E-02  0.8992766E-01
         -1   -1    0    0    0  501 -0.00000000000E+00  0.00000000000E+00  0.96441114644E+03  0.96441114644E+03  0.00000000000E+00 0.  1.
          2   -1    0    0  501    0  0.00000000000E+00 -0.00000000000E+00 -0.47065025568E+03  0.47065025568E+03  0.00000000000E+00 0. -1.
         24    2    1    2    0    0 -0.45255831423E+02 -0.88479513342E+02 -0.23914315452E+03  0.27264697060E+03  0.85265512754E+02 0.  0.
        254    2    1    2    0    0  0.45255831423E+02  0.88479513342E+02  0.73290404528E+03  0.11624144315E+04  0.89676209580E+03 0.  0.
         23    2    4    4    0    0 -0.92271807870E+02  0.45138512232E+03  0.55289427274E+03  0.72575908339E+03  0.93656580757E+02 0.  0.
         23    2    4    4    0    0  0.13752763929E+03 -0.36290560898E+03  0.18000977254E+03  0.43665534812E+03  0.87464519881E+02 0.  0.
          4    1    3    3  502    0 -0.14028486364E+02 -0.60926869776E+02 -0.21628737878E+03  0.22514242628E+03  0.00000000000E+00 0. -1.
         -3    1    3    3    0  502 -0.31227345059E+02 -0.27552643566E+02 -0.22855775743E+02  0.47504544327E+02  0.00000000000E+00 0.  1.
         13    1    5    5    0    0 -0.82215267053E+02  0.44837083973E+03  0.55095071799E+03  0.71508213075E+03  0.00000000000E+00 0. -1.
        -13    1    5    5    0    0 -0.10056540817E+02  0.30142825901E+01  0.19435547458E+01  0.10676952645E+02  0.00000000000E+00 0.  1.
          1    1    6    6  503    0  0.83086935859E+02 -0.31342621820E+03  0.14766174997E+03  0.35629120894E+03  0.00000000000E+00 0. -1.
         -1    1    6    6    0  503  0.54440703434E+02 -0.49479390779E+02  0.32348022565E+02  0.80364139180E+02  0.00000000000E+00 0.  1.
<mgrwt>
<rscale>  0 0.13474425E+04</rscale>
<asrwt>0</asrwt>
<pdfrwt beam="1">  1        2 0.72407732E-01 0.13474425E+04</pdfrwt>
<pdfrwt beam="2">  1       -1 0.14837095E+00 0.13474425E+04</pdfrwt>
<totfact> 0.26521260E+01</totfact>
</mgrwt>
</event>
<event>
12    7  0.1675873E-007  0.1287734E+04  0.7818608E-02  0.9039349E-01
         -1   -1    0    0    0  501 -0.00000000000E+00  0.00000000000E+00  0.40597699915E+03  0.40597699915E+03  0.00000000000E+00 0.  1.
          2   -1    0    0  501    0  0.00000000000E+00 -0.00000000000E+00 -0.10211527276E+04  0.10211527276E+04  0.00000000000E+00 0. -1.
         24    2    1    2    0    0 -0.18652259809E+03 -0.17615972563E+03  0.65385897190E+02  0.27691459152E+03  0.81138442863E+02 0.  0.
        254    2    1    2    0    0  0.18652259809E+03  0.17615972563E+03 -0.68056162563E+03  0.11502151352E+04  0.89107115456E+03 0.  0.
         23    2    4    4    0    0  0.44048963261E+03  0.85719191519E+02 -0.52708591834E+02  0.46100414573E+03  0.91475299947E+02 0.  0.
         23    2    4    4    0    0 -0.25396703452E+03  0.90440534115E+02 -0.62785303379E+03  0.68921098949E+03  0.90186535377E+02 0.  0.
          4    1    3    3  502    0 -0.42903509636E+00  0.43893650065E+01  0.11187546897E+02  0.12025464724E+02  0.00000000000E+00 0. -1.
         -3    1    3    3    0  502 -0.18609356299E+03 -0.18054909064E+03  0.54198350294E+02  0.26488912679E+03  0.00000000000E+00 0.  1.
         13    1    5    5    0    0  0.13716372338E+03 -0.13907367105E+02 -0.30759077878E+01  0.13790128019E+03  0.00000000000E+00 0. -1.
        -13    1    5    5    0    0  0.30332590923E+03  0.99626558623E+02 -0.49632684046E+02  0.32310286554E+03  0.00000000000E+00 0.  1.
          3    1    6    6  503    0 -0.30596916133E+02  0.46811219401E+02 -0.10478476383E+03  0.11877419025E+03  0.00000000000E+00 0. -1.
         -3    1    6    6    0  503 -0.22337011839E+03  0.43629314714E+02 -0.52306826996E+03  0.57043679924E+03  0.00000000000E+00 0.  1.
<mgrwt>
<rscale>  0 0.12877337E+04</rscale>
<asrwt>0</asrwt>
<pdfrwt beam="1">  1        2 0.15710042E+00 0.12877337E+04</pdfrwt>
<pdfrwt beam="2">  1       -1 0.62458001E-01 0.12877337E+04</pdfrwt>
<totfact> 0.71040655E+01</totfact>
</mgrwt>
</event>
<event>
12    7  0.1675873E-007  0.1379704E+04  0.7818608E-02  0.8968642E-01
         -1   -1    0    0    0  501 -0.00000000000E+00  0.00000000000E+00  0.39920859508E+03  0.39920859508E+03  0.00000000000E+00 0.  1.
          2   -1    0    0  501    0  0.00000000000E+00 -0.00000000000E+00 -0.11920983537E+04  0.11920983537E+04  0.00000000000E+00 0. -1.
         24    2    1    2    0    0 -0.35109821946E+02 -0.36710803174E+03 -0.15588554733E+03  0.40784121316E+03  0.77673320513E+02 0.  0.
        254    2    1    2    0    0  0.35109821946E+02  0.36710803174E+03 -0.63700421130E+03  0.11834657356E+04  0.92672313860E+03 0.  0.
         23    2    4    4    0    0 -0.19381390268E+03  0.41352063426E+03  0.34899826162E+02  0.46679389962E+03  0.90085531697E+02 0.  0.
         23    2    4    4    0    0  0.22892372462E+03 -0.46412602526E+02 -0.67190403746E+03  0.71667183601E+03  0.87196809599E+02 0.  0.
          2    1    3    3  502    0 -0.78899780733E+01 -0.15834038991E+03 -0.26526321026E+02  0.16074071213E+03  0.00000000000E+00 0. -1.
         -1    1    3    3    0  502 -0.27219843873E+02 -0.20876764183E+03 -0.12935922630E+03  0.24710050102E+03  0.00000000000E+00 0.  1.
         13    1    5    5    0    0 -0.37415396564E+02  0.76188101161E+02 -0.28635638478E+02  0.89579788176E+02  0.00000000000E+00 0.  1.
        -13    1    5    5    0    0 -0.15639850611E+03  0.33733253310E+03  0.63535464639E+02  0.37721411144E+03  0.00000000000E+00 0. -1.
          1    1    6    6  503    0  0.22388766658E+03 -0.24719231084E+02 -0.63248209302E+03  0.67139431456E+03  0.00000000000E+00 0. -1.
         -1    1    6    6    0  503  0.50360580439E+01 -0.21693371441E+02 -0.39421944433E+02  0.45277521443E+02  0.00000000000E+00 0.  1.
<mgrwt>
<rscale>  0 0.13797042E+04</rscale>
<asrwt>0</asrwt>
<pdfrwt beam="1">  1        2 0.18339974E+00 0.13797042E+04</pdfrwt>
<pdfrwt beam="2">  1       -1 0.61416708E-01 0.13797042E+04</pdfrwt>
<totfact> 0.57222342E+01</totfact>
</mgrwt>
</event>
<event>
12    7  0.1675873E-007  0.3407508E+04  0.7818608E-02  0.8136066E-01
         -1   -1    0    0    0  501 -0.00000000000E+00  0.00000000000E+00  0.89921804351E+03  0.89921804351E+03  0.00000000000E+00 0.  1.
          2   -1    0    0  501    0  0.00000000000E+00 -0.00000000000E+00 -0.32281126346E+04  0.32281126346E+04  0.00000000000E+00 0. -1.
         24    2    1    2    0    0  0.17741542429E+03  0.40229352350E+01  0.82313992814E+03  0.84575482388E+03  0.79053551652E+02 0.  0.
        254    2    1    2    0    0 -0.17741542429E+03 -0.40229352350E+01 -0.31520345192E+04  0.32815758542E+04  0.89550324396E+03 0.  0.
         23    2    4    4    0    0 -0.28162257823E+03  0.24968769280E+03 -0.27947028003E+04  0.28214356407E+04  0.92087524981E+02 0.  0.
         23    2    4    4    0    0  0.10420715393E+03 -0.25371062803E+03 -0.35733171892E+03  0.46014021350E+03  0.93887406141E+02 0.  0.
          4    1    3    3  502    0 -0.40178476452E+01  0.10933720396E+02  0.32182907729E+02  0.34226143389E+02  0.00000000000E+00 0. -1.
         -3    1    3    3    0  502  0.18143327194E+03 -0.69107851611E+01  0.79095702041E+03  0.81152868049E+03  0.00000000000E+00 0.  1.
         13    1    5    5    0    0 -0.26272687272E+03  0.24241186070E+03 -0.24280372268E+04  0.24542114201E+04  0.00000000000E+00 0. -1.
        -13    1    5    5    0    0 -0.18895705507E+02  0.72758320957E+01 -0.36666557354E+03  0.36722422066E+03  0.00000000000E+00 0.  1.
          3    1    6    6  503    0  0.89274393125E+02 -0.18177004700E+03 -0.31744145627E+03  0.37653598156E+03  0.00000000000E+00 0. -1.
         -3    1    6    6    0  503  0.14932760809E+02 -0.71940581027E+02 -0.39890262651E+02  0.83604231940E+02  0.00000000000E+00 0.  1.
<mgrwt>
<rscale>  0 0.34075077E+04</rscale>
<asrwt>0</asrwt>
<pdfrwt beam="1">  1        2 0.49663271E+00 0.34075077E+04</pdfrwt>
<pdfrwt beam="2">  1       -1 0.13834124E+00 0.34075077E+04</pdfrwt>
<totfact> 0.50471892E-01</totfact>
</mgrwt>
</event>
<event>
12    7  0.1675873E-007  0.1796673E+04  0.7818608E-02  0.8708071E-01
          2   -1    0    0  501    0  0.00000000000E+00  0.00000000000E+00  0.30778807981E+04  0.30778807981E+04  0.00000000000E+00 0. -1.
         -1   -1    0    0    0  501 -0.00000000000E+00 -0.00000000000E+00 -0.26219624472E+03  0.26219624472E+03  0.00000000000E+00 0.  1.
         24    2    1    2    0    0  0.23980199175E+03  0.54535123442E+03  0.16317400485E+04  0.17383882326E+04  0.67120021727E+02 0.  0.
        254    2    1    2    0    0 -0.23980199175E+03 -0.54535123442E+03  0.11839445049E+04  0.16016888102E+04  0.89931612347E+03 0.  0.
         23    2    4    4    0    0  0.35557594502E+02  0.17994845224E+03  0.57724777694E+03  0.61254632965E+03  0.91390491799E+02 0.  0.
         23    2    4    4    0    0 -0.27535958626E+03 -0.72529968666E+03  0.60669672794E+03  0.98914248054E+03  0.91866152165E+02 0.  0.
          4    1    3    3  502    0  0.19929815475E+03  0.47519143831E+03  0.14656364838E+04  0.15535819773E+04  0.00000000000E+00 0. -1.
         -3    1    3    3    0  502  0.40503837009E+02  0.70159796115E+02  0.16610356467E+03  0.18480625531E+03  0.00000000000E+00 0.  1.
         13    1    5    5    0    0  0.52242661751E+02  0.82348832814E+02  0.37337361790E+03  0.38589957828E+03  0.00000000000E+00 0.  1.
        -13    1    5    5    0    0 -0.16685067249E+02  0.97599619426E+02  0.20387415905E+03  0.22664675137E+03  0.00000000000E+00 0. -1.
          4    1    6    6  503    0 -0.24146788526E+03 -0.54014105818E+03  0.43494814662E+03  0.73432894032E+03  0.00000000000E+00 0.  1.
         -4    1    6    6    0  503 -0.33891700999E+02 -0.18515862849E+03  0.17174858131E+03  0.25481354023E+03  0.00000000000E+00 0. -1.
<mgrwt>
<rscale>  0 0.17966734E+04</rscale>
<asrwt>0</asrwt>
<pdfrwt beam="1">  1        2 0.47352010E+00 0.17966734E+04</pdfrwt>
<pdfrwt beam="2">  1       -1 0.40337886E-01 0.17966734E+04</pdfrwt>
<totfact> 0.10068724E+01</totfact>
</mgrwt>
</event>
<event>
12    7  0.1675873E-007  0.2658285E+04  0.7818608E-02  0.8348668E-01
          2   -1    0    0  501    0  0.00000000000E+00  0.00000000000E+00  0.23425696504E+04  0.23425696504E+04  0.00000000000E+00 0. -1.
         -1   -1    0    0    0  501 -0.00000000000E+00 -0.00000000000E+00 -0.75413751513E+03  0.75413751513E+03  0.00000000000E+00 0.  1.
         24    2    1    2    0    0 -0.94384184653E+03  0.32449890844E+02 -0.10883838901E+03  0.95380169629E+03  0.77469053486E+02 0.  0.
        254    2    1    2    0    0  0.94384184653E+03 -0.32449890844E+02  0.16972705242E+04  0.21429054692E+04  0.90522162522E+03 0.  0.
         23    2    4    4    0    0  0.27457875274E+03 -0.10822735610E+03 -0.64028410500E+01  0.30869522965E+03  0.90250187640E+02 0.  0.
         23    2    4    4    0    0  0.66926309379E+03  0.75777465253E+02  0.17036733653E+04  0.18342102395E+04  0.90382267619E+02 0.  0.
          4    1    3    3  502    0 -0.35030711123E+03  0.34266040426E+01 -0.37912844562E+01  0.35034438433E+03  0.00000000000E+00 0. -1.
         -3    1    3    3    0  502 -0.59353473530E+03  0.29023286801E+02 -0.10504710455E+03  0.60345731196E+03  0.00000000000E+00 0.  1.
         13    1    5    5    0    0  0.16040481543E+03 -0.22099651654E+02 -0.27154546036E+02  0.16418120717E+03  0.00000000000E+00 0. -1.
        -13    1    5    5    0    0  0.11417393731E+03 -0.86127704442E+02  0.20751704985E+02  0.14451402248E+03  0.00000000000E+00 0.  1.
          2    1    6    6  503    0  0.10906244274E+03  0.88265371610E+01  0.19666530708E+03  0.22505503146E+03  0.00000000000E+00 0. -1.
         -2    1    6    6    0  503  0.56020065105E+03  0.66950928092E+02  0.15070080582E+04  0.16091552081E+04  0.00000000000E+00 0.  1.
<mgrwt>
<rscale>  0 0.26582849E+04</rscale>
<asrwt>0</asrwt>
<pdfrwt beam="1">  1        2 0.36039533E+00 0.26582849E+04</pdfrwt>
<pdfrwt beam="2">  1       -1 0.11602116E+00 0.26582849E+04</pdfrwt>
<totfact> 0.28838065E+00</totfact>
</mgrwt>
</event>
<event>
12    7  0.1675873E-007  0.1235113E+04  0.7818608E-02  0.9082665E-01
          2   -1    0    0  501    0  0.00000000000E+00  0.00000000000E+00  0.24275186056E+03  0.24275186056E+03  0.00000000000E+00 0. -1.
         -1   -1    0    0    0  501 -0.00000000000E+00 -0.00000000000E+00 -0.15710538564E+04  0.15710538564E+04  0.00000000000E+00 0.  1.
         24    2    1    2    0    0  0.12322531163E+03 -0.25076118785E+02  0.54000832279E+02  0.15815378497E+03  0.79266895074E+02 0.  0.
        254    2    1    2    0    0 -0.12322531163E+03  0.25076118785E+02 -0.13823028281E+04  0.16556519319E+04  0.90255688026E+03 0.  0.
         23    2    4    4    0    0 -0.21666746830E+03 -0.41901385452E+01 -0.14734487952E+04  0.14920989558E+04  0.91354216259E+02 0.  0.
         23    2    4    4    0    0  0.93442156669E+02  0.29266257331E+02  0.91145967146E+02  0.16355297610E+03  0.94095898976E+02 0.  0.
          4    1    3    3  502    0  0.73369454339E+02 -0.29695056028E+02  0.69923797557E+02  0.10561349652E+03  0.00000000000E+00 0. -1.
         -3    1    3    3    0  502  0.49855857290E+02  0.46189372425E+01 -0.15922965277E+02  0.52540288452E+02  0.00000000000E+00 0.  1.
         13    1    5    5    0    0 -0.14370691230E+03 -0.13968011891E+02 -0.67530047099E+03  0.69056318185E+03  0.00000000000E+00 0.  1.
        -13    1    5    5    0    0 -0.72960556003E+02  0.97778733457E+01 -0.79814832422E+03  0.80153577399E+03  0.00000000000E+00 0. -1.
          1    1    6    6  503    0  0.16488364569E+02 -0.34005228319E+01 -0.18927571377E+02  0.25331456332E+02  0.00000000000E+00 0.  1.
         -1    1    6    6    0  503  0.76953792100E+02  0.32666780162E+02  0.11007353852E+03  0.13822151977E+03  0.00000000000E+00 0. -1.
<mgrwt>
<rscale>  0 0.12351133E+04</rscale>
<asrwt>0</asrwt>
<pdfrwt beam="1">  1        2 0.37346439E-01 0.12351133E+04</pdfrwt>
<pdfrwt beam="2">  1       -1 0.24170060E+00 0.12351133E+04</pdfrwt>
<totfact> 0.12427310E+01</totfact>
</mgrwt>
</event>
<event>
12    7  0.1675873E-007  0.1521473E+04  0.7818608E-02  0.8870298E-01
          2   -1    0    0  501    0  0.00000000000E+00  0.00000000000E+00  0.17772910942E+04  0.17772910942E+04  0.00000000000E+00 0. -1.
         -1   -1    0    0    0  501 -0.00000000000E+00 -0.00000000000E+00 -0.32561901151E+03  0.32561901151E+03  0.00000000000E+00 0.  1.
         24    2    1    2    0    0 -0.44046031376E+03  0.16810258179E+03  0.59801596784E+03  0.76570579732E+03  0.80115568159E+02 0.  0.
        254    2    1    2    0    0  0.44046031376E+03 -0.16810258179E+03  0.85365611485E+03  0.13372043084E+04  0.91494416984E+03 0.  0.
         23    2    4    4    0    0 -0.12650744343E+03 -0.13267293638E+03 -0.97737523916E+02  0.22545969830E+03  0.87596864593E+02 0.  0.
         23    2    4    4    0    0  0.56696775719E+03 -0.35429645413E+02  0.95139363876E+03  0.11117446101E+04  0.90102856163E+02 0.  0.
          2    1    3    3  502    0 -0.38843278371E+03  0.16375785872E+03  0.56091671819E+03  0.70165819920E+03  0.00000000000E+00 0. -1.
         -1    1    3    3    0  502 -0.52027530041E+02  0.43447230716E+01  0.37099249647E+02  0.64047598121E+02  0.00000000000E+00 0.  1.
         13    1    5    5    0    0 -0.13237138453E+02 -0.62998626529E+02 -0.76334691873E+01  0.64825293141E+02  0.00000000000E+00 0.  1.
        -13    1    5    5    0    0 -0.11327030498E+03 -0.69674309848E+02 -0.90104054728E+02  0.16063440516E+03  0.00000000000E+00 0. -1.
          4    1    6    6  503    0  0.41277892757E+03 -0.89476978603E+01  0.75641884266E+03  0.86176329109E+03  0.00000000000E+00 0. -1.
         -4    1    6    6    0  503  0.15418882962E+03 -0.26481947553E+02  0.19497479610E+03  0.24998131899E+03  0.00000000000E+00 0.  1.
<mgrwt>
<rscale>  0 0.15214727E+04</rscale>
<asrwt>0</asrwt>
<pdfrwt beam="1">  1        2 0.27342939E+00 0.15214727E+04</pdfrwt>
<pdfrwt beam="2">  1       -1 0.50095234E-01 0.15214727E+04</pdfrwt>
<totfact> 0.39039609E+01</totfact>
</mgrwt>
</event>
<event>
12    7  0.1675873E-007  0.1185383E+04  0.7818608E-02  0.9125748E-01
         -1   -1    0    0    0  501 -0.00000000000E+00  0.00000000000E+00  0.12850109324E+03  0.12850109324E+03  0.00000000000E+00 0.  1.
          2   -1    0    0  501    0  0.00000000000E+00 -0.00000000000E+00 -0.27336975063E+04  0.27336975063E+04  0.00000000000E+00 0. -1.
         24    2    1    2    0    0 -0.13574279853E+03  0.27202550514E+02 -0.84958043563E+02  0.17862546366E+03  0.74317568552E+02 0.  0.
        254    2    1    2    0    0  0.13574279853E+03 -0.27202550514E+02 -0.25202383695E+04  0.26835731359E+04  0.91148080091E+03 0.  0.
         23    2    4    4    0    0 -0.23800022249E+03  0.25519036835E+03 -0.55692972086E+03  0.66330251695E+03  0.89628594851E+02 0.  0.
         23    2    4    4    0    0  0.37374302102E+03 -0.28239291887E+03 -0.19633086486E+04  0.20202706189E+04  0.86503858380E+02 0.  0.
          4    1    3    3  502    0 -0.31864087421E+01  0.19254574915E+02  0.24146147609E+01  0.19665254137E+02  0.00000000000E+00 0. -1.
         -3    1    3    3    0  502 -0.13255638979E+03  0.79479755989E+01 -0.87372658324E+02  0.15896020953E+03  0.00000000000E+00 0.  1.
         13    1    5    5    0    0 -0.23941962444E+03  0.24984635202E+03 -0.51162112178E+03  0.61765777615E+03  0.00000000000E+00 0.  1.
        -13    1    5    5    0    0  0.14194019499E+01  0.53440163262E+01 -0.45308599082E+02  0.45644740805E+02  0.00000000000E+00 0. -1.
          4    1    6    6  503    0  0.83789258766E+01 -0.23421488492E+02 -0.59342382577E+02  0.64345092213E+02  0.00000000000E+00 0. -1.
         -4    1    6    6    0  503  0.36536409514E+03 -0.25897143037E+03 -0.19039662660E+04  0.19559255267E+04  0.00000000000E+00 0.  1.
<mgrwt>
<rscale>  0 0.11853828E+04</rscale>
<asrwt>0</asrwt>
<pdfrwt beam="1">  1        2 0.42056881E+00 0.11853828E+04</pdfrwt>
<pdfrwt beam="2">  1       -1 0.19769401E-01 0.11853828E+04</pdfrwt>
<totfact> 0.60093073E+01</totfact>
</mgrwt>
</event>
<event>
12    7  0.1675873E-007  0.1881355E+04  0.7818608E-02  0.8664193E-01
          2   -1    0    0  501    0  0.00000000000E+00  0.00000000000E+00  0.96981337764E+03  0.96981337764E+03  0.00000000000E+00 0. -1.
         -1   -1    0    0    0  501 -0.00000000000E+00 -0.00000000000E+00 -0.91241665718E+03  0.91241665718E+03  0.00000000000E+00 0.  1.
         24    2    1    2    0    0  0.49703856818E+03  0.32736053845E+03 -0.38481620960E+03  0.71325913305E+03  0.80267149689E+02 0.  0.
        254    2    1    2    0    0 -0.49703856818E+03 -0.32736053845E+03  0.44221293005E+03  0.11689709018E+04  0.90373028791E+03 0.  0.
         23    2    4    4    0    0 -0.55896580541E+03  0.15287661403E+03  0.27666064690E+03  0.64812242573E+03  0.87792564912E+02 0.  0.
         23    2    4    4    0    0  0.61927237231E+02 -0.48023715249E+03  0.16555228315E+03  0.52084847604E+03  0.97019952573E+02 0.  0.
          2    1    3    3  502    0  0.72477147926E+02  0.22305796571E+02 -0.68708692681E+02  0.10232971212E+03  0.00000000000E+00 0. -1.
         -1    1    3    3    0  502  0.42456142025E+03  0.30505474188E+03 -0.31610751692E+03  0.61092942093E+03  0.00000000000E+00 0.  1.
         13    1    5    5    0    0 -0.19257749290E+03  0.52980162786E+02  0.14251281375E+03  0.24536277326E+03  0.00000000000E+00 0.  1.
        -13    1    5    5    0    0 -0.36638831251E+03  0.99896451248E+02  0.13414783315E+03  0.40275965247E+03  0.00000000000E+00 0. -1.
          3    1    6    6  503    0  0.75589790804E+02 -0.43024819675E+03  0.17018826247E+03  0.46881912500E+03  0.00000000000E+00 0. -1.
         -3    1    6    6    0  503 -0.13662553572E+02 -0.49988955736E+02 -0.46359793181E+01  0.52029351043E+02  0.00000000000E+00 0.  1.
<mgrwt>
<rscale>  0 0.18813547E+04</rscale>
<asrwt>0</asrwt>
<pdfrwt beam="1">  1        2 0.14920206E+00 0.18813547E+04</pdfrwt>
<pdfrwt beam="2">  1       -1 0.14037179E+00 0.18813547E+04</pdfrwt>
<totfact> 0.11738061E+01</totfact>
</mgrwt>
</event>
<event>
12    7  0.1675873E-007  0.1869125E+04  0.7818608E-02  0.8670379E-01
          2   -1    0    0  501    0  0.00000000000E+00  0.00000000000E+00  0.14640412143E+04  0.14640412143E+04  0.00000000000E+00 0. -1.
         -1   -1    0    0    0  501 -0.00000000000E+00 -0.00000000000E+00 -0.59657258340E+03  0.59657258340E+03  0.00000000000E+00 0.  1.
         24    2    1    2    0    0 -0.70555794453E+01  0.61691757840E+03 -0.12216097570E+02  0.62229787313E+03  0.80425929375E+02 0.  0.
        254    2    1    2    0    0  0.70555794453E+01 -0.61691757840E+03  0.87968472844E+03  0.14383159246E+04  0.95617487816E+03 0.  0.
         23    2    4    4    0    0 -0.46824855458E+01 -0.44110145292E+03 -0.81079247018E+02  0.45765600063E+03  0.91009632313E+02 0.  0.
         23    2    4    4    0    0  0.11738064991E+02 -0.17581612548E+03  0.96076397546E+03  0.98065992393E+03  0.87048134425E+02 0.  0.
          2    1    3    3  502    0  0.57596254270E+01  0.29188529675E+03  0.33335263605E+02  0.29383913889E+03  0.00000000000E+00 0. -1.
         -1    1    3    3    0  502 -0.12815204872E+02  0.32503228165E+03 -0.45551361175E+02  0.32845873424E+03  0.00000000000E+00 0.  1.
         13    1    5    5    0    0 -0.30981386193E+02 -0.39947552402E+03 -0.78903238791E+02  0.40837025072E+03  0.00000000000E+00 0. -1.
        -13    1    5    5    0    0  0.26298900647E+02 -0.41625928896E+02 -0.21760082266E+01  0.49285749903E+02  0.00000000000E+00 0.  1.
          2    1    6    6  503    0  0.29627405432E+02 -0.17573197133E+03  0.89023431802E+03  0.90789682777E+03  0.00000000000E+00 0. -1.
         -2    1    6    6    0  503 -0.17889340441E+02 -0.84154150220E-01  0.70529657437E+02  0.72763096151E+02  0.00000000000E+00 0.  1.
<mgrwt>
<rscale>  0 0.18691248E+04</rscale>
<asrwt>0</asrwt>
<pdfrwt beam="1">  1        2 0.22523711E+00 0.18691248E+04</pdfrwt>
<pdfrwt beam="2">  1       -1 0.91780398E-01 0.18691248E+04</pdfrwt>
<totfact> 0.16462064E+01</totfact>
</mgrwt>
</event>
<event>
12    7  0.1675873E-007  0.1515343E+04  0.7818608E-02  0.8874314E-01
         -1   -1    0    0    0  501 -0.00000000000E+00  0.00000000000E+00  0.21460352501E+03  0.21460352501E+03  0.00000000000E+00 0.  1.
          2   -1    0    0  501    0  0.00000000000E+00 -0.00000000000E+00 -0.26750070676E+04  0.26750070676E+04  0.00000000000E+00 0. -1.
         24    2    1    2    0    0  0.26506064582E+03 -0.23302258391E+03 -0.14621131608E+04  0.15062398079E+04  0.80167284689E+02 0.  0.
        254    2    1    2    0    0 -0.26506064582E+03  0.23302258391E+03 -0.99829038184E+03  0.13833707847E+04  0.89026646062E+03 0.  0.
         23    2    4    4    0    0  0.17372968333E+03  0.41702447000E+03 -0.59687788052E+03  0.75420409076E+03  0.92028228385E+02 0.  0.
         23    2    4    4    0    0 -0.43879032915E+03 -0.18400188609E+03 -0.40141250131E+03  0.62916669393E+03  0.91241906514E+02 0.  0.
          2    1    3    3  502    0  0.21360190440E+03 -0.15673646035E+03 -0.11847058882E+04  0.12139687529E+04  0.00000000000E+00 0. -1.
         -1    1    3    3    0  502  0.51458741417E+02 -0.76286123558E+02 -0.27740727259E+03  0.29227105502E+03  0.00000000000E+00 0.  1.
         13    1    5    5    0    0  0.56981447178E+02  0.20191591354E+03 -0.21325545498E+03  0.29915683269E+03  0.00000000000E+00 0. -1.
        -13    1    5    5    0    0  0.11674823615E+03  0.21510855646E+03 -0.38362242554E+03  0.45504725808E+03  0.00000000000E+00 0.  1.
          1    1    6    6  503    0 -0.73163706092E+02 -0.70381402357E+02 -0.88911875591E+02  0.13495107005E+03  0.00000000000E+00 0. -1.
         -1    1    6    6    0  503 -0.36562662306E+03 -0.11362048373E+03 -0.31250062572E+03  0.49421562388E+03  0.00000000000E+00 0.  1.
<mgrwt>
<rscale>  0 0.15153428E+04</rscale>
<asrwt>0</asrwt>
<pdfrwt beam="1">  1        2 0.41153953E+00 0.15153428E+04</pdfrwt>
<pdfrwt beam="2">  1       -1 0.33015928E-01 0.15153428E+04</pdfrwt>
<totfact> 0.26117139E+01</totfact>
</mgrwt>
</event>
<event>
12    7  0.1675873E-007  0.1869645E+04  0.7818608E-02  0.8670115E-01
         -1   -1    0    0    0  501 -0.00000000000E+00  0.00000000000E+00  0.68151053085E+03  0.68151053085E+03  0.00000000000E+00 0.  1.
          2   -1    0    0  501    0  0.00000000000E+00 -0.00000000000E+00 -0.12822879064E+04  0.12822879064E+04  0.00000000000E+00 0. -1.
         24    2    1    2    0    0  0.65577692617E+03  0.28130573836E+03 -0.14432505121E+03  0.73230464305E+03  0.79145906416E+02 0.  0.
        254    2    1    2    0    0 -0.65577692617E+03 -0.28130573836E+03 -0.45645232434E+03  0.12314937942E+04  0.89389705528E+03 0.  0.
         23    2    4    4    0    0 -0.26154125491E+03  0.56373747282E+02  0.23096433400E+03  0.36522482967E+03  0.91993615132E+02 0.  0.
         23    2    4    4    0    0 -0.39423567125E+03 -0.33767948564E+03 -0.68741665834E+03  0.86626896453E+03  0.91820788672E+02 0.  0.
          2    1    3    3  502    0  0.67749605224E+02  0.19717699375E+02  0.77778936043E+01  0.70987972965E+02  0.00000000000E+00 0. -1.
         -1    1    3    3    0  502  0.58802732094E+03  0.26158803899E+03 -0.15210294482E+03  0.66131667009E+03  0.00000000000E+00 0.  1.
         13    1    5    5    0    0 -0.92090839168E+02 -0.77858407978E+01  0.36321452077E+02  0.99300502801E+02  0.00000000000E+00 0. -1.
        -13    1    5    5    0    0 -0.16945041575E+03  0.64159588079E+02  0.19464288192E+03  0.26592432687E+03  0.00000000000E+00 0.  1.
          1    1    6    6  503    0 -0.36937511769E+03 -0.33647852238E+03 -0.67040518132E+03  0.83612133135E+03  0.00000000000E+00 0.  1.
         -1    1    6    6    0  503 -0.24860553564E+02 -0.12009632629E+01 -0.17011477023E+02  0.30147633187E+02  0.00000000000E+00 0. -1.
<mgrwt>
<rscale>  0 0.18696446E+04</rscale>
<asrwt>0</asrwt>
<pdfrwt beam="1">  1        2 0.19727506E+00 0.18696446E+04</pdfrwt>
<pdfrwt beam="2">  1       -1 0.10484777E+00 0.18696446E+04</pdfrwt>
<totfact> 0.15480436E+01</totfact>
</mgrwt>
</event>
<event>
12    7  0.1675873E-007  0.1974392E+04  0.7818608E-02  0.8618688E-01
         -1   -1    0    0    0  501 -0.00000000000E+00  0.00000000000E+00  0.58496751213E+03  0.58496751213E+03  0.00000000000E+00 0.  1.
          2   -1    0    0  501    0  0.00000000000E+00 -0.00000000000E+00 -0.16660002842E+04  0.16660002842E+04  0.00000000000E+00 0. -1.
         24    2    1    2    0    0 -0.31962188637E+03 -0.62095576876E+02  0.38058010722E+03  0.50673166316E+03  0.76952904586E+02 0.  0.
        254    2    1    2    0    0  0.31962188637E+03  0.62095576876E+02 -0.14616128793E+04  0.17442361332E+04  0.89444590023E+03 0.  0.
         23    2    4    4    0    0  0.11545461495E+03 -0.39671440010E+03 -0.82991000024E+03  0.93159561259E+03  0.91693476018E+02 0.  0.
         23    2    4    4    0    0  0.20416727142E+03  0.45880997697E+03 -0.63170287905E+03  0.81264052058E+03  0.95630636300E+02 0.  0.
          4    1    3    3  502    0 -0.10818813146E+03 -0.45607138545E+02  0.17946870458E+03  0.21446141564E+03  0.00000000000E+00 0. -1.
         -3    1    3    3    0  502 -0.21143375491E+03 -0.16488438331E+02  0.20111140264E+03  0.29227024752E+03  0.00000000000E+00 0.  1.
         13    1    5    5    0    0 -0.12740579707E+02 -0.32319246009E+02 -0.98468693871E+02  0.10441714278E+03  0.00000000000E+00 0. -1.
        -13    1    5    5    0    0  0.12819519466E+03 -0.36439515409E+03 -0.73144130637E+03  0.82717846981E+03  0.00000000000E+00 0.  1.
          4    1    6    6  503    0  0.19677308298E+02  0.12606238317E+03 -0.19972143935E+03  0.23699699207E+03  0.00000000000E+00 0. -1.
         -4    1    6    6    0  503  0.18448996312E+03  0.33274759380E+03 -0.43198143969E+03  0.57564352851E+03  0.00000000000E+00 0.  1.
<mgrwt>
<rscale>  0 0.19743921E+04</rscale>
<asrwt>0</asrwt>
<pdfrwt beam="1">  1        2 0.25630774E+00 0.19743921E+04</pdfrwt>
<pdfrwt beam="2">  1       -1 0.89995001E-01 0.19743921E+04</pdfrwt>
<totfact> 0.13123248E+01</totfact>
</mgrwt>
</event>
<event>
12    7  0.1675873E-007  0.2960048E+04  0.7818608E-02  0.8255232E-01
          2   -1    0    0  501    0  0.00000000000E+00  0.00000000000E+00  0.12057640365E+04  0.12057640365E+04  0.00000000000E+00 0. -1.
         -1   -1    0    0    0  501 -0.00000000000E+00 -0.00000000000E+00 -0.18166658110E+04  0.18166658110E+04  0.00000000000E+00 0.  1.
         24    2    1    2    0    0 -0.68496442023E+02  0.32672541845E+03  0.10516443468E+04  0.11063521082E+04  0.81350435775E+02 0.  0.
        254    2    1    2    0    0  0.68496442023E+02 -0.32672541845E+03 -0.16625461212E+04  0.19160777393E+04  0.89210595572E+03 0.  0.
         23    2    4    4    0    0 -0.15899867363E+03 -0.57333916293E+03 -0.97664151536E+03  0.11471245194E+04  0.89820039556E+02 0.  0.
         23    2    4    4    0    0  0.22749511565E+03  0.24661374448E+03 -0.68590460588E+03  0.76895321992E+03  0.90838094740E+02 0.  0.
          2    1    3    3  502    0 -0.19372421012E+02  0.24955865652E+03  0.71730222787E+03  0.75972185690E+03  0.00000000000E+00 0. -1.
         -1    1    3    3    0  502 -0.49124021011E+02  0.77166761935E+02  0.33434211894E+03  0.34663025126E+03  0.00000000000E+00 0.  1.
         13    1    5    5    0    0 -0.12443658807E+03 -0.53655290270E+03 -0.88172105058E+03  0.10396179553E+04  0.00000000000E+00 0. -1.
        -13    1    5    5    0    0 -0.34562085558E+02 -0.36786260237E+02 -0.94920464782E+02  0.10750656415E+03  0.00000000000E+00 0.  1.
          1    1    6    6  503    0  0.12775236150E+03  0.19405572927E+03 -0.41667754663E+03  0.47707281394E+03  0.00000000000E+00 0. -1.
         -1    1    6    6    0  503  0.99742754145E+02  0.52558015207E+02 -0.26922705925E+03  0.29188040599E+03  0.00000000000E+00 0.  1.
<mgrwt>
<rscale>  0 0.29600475E+04</rscale>
<asrwt>0</asrwt>
<pdfrwt beam="1">  1        2 0.18550216E+00 0.29600475E+04</pdfrwt>
<pdfrwt beam="2">  1       -1 0.27948705E+00 0.29600475E+04</pdfrwt>
<totfact> 0.82452905E-01</totfact>
</mgrwt>
</event>
<event>
12    7  0.1675873E-007  0.1995489E+04  0.7818608E-02  0.8608733E-01
         -1   -1    0    0    0  501 -0.00000000000E+00  0.00000000000E+00  0.10874977798E+04  0.10874977798E+04  0.00000000000E+00 0.  1.
          2   -1    0    0  501    0  0.00000000000E+00 -0.00000000000E+00 -0.91539892776E+03  0.91539892776E+03  0.00000000000E+00 0. -1.
         24    2    1    2    0    0 -0.62114840475E+02 -0.48586716338E+03 -0.54939859848E+03  0.74014849263E+03  0.77819131830E+02 0.  0.
        254    2    1    2    0    0  0.62114840475E+02  0.48586716338E+03  0.72149745047E+03  0.12627482149E+04  0.91326301213E+03 0.  0.
         23    2    4    4    0    0  0.28404302188E+03  0.21742472398E+03  0.81169975036E+03  0.89212482734E+03  0.95269480594E+02 0.  0.
         23    2    4    4    0    0 -0.22192818141E+03  0.26844243939E+03 -0.90202299889E+02  0.37062338756E+03  0.88948184510E+02 0.  0.
          4    1    3    3  502    0 -0.66821252931E+02 -0.41407952327E+03 -0.50121308110E+03  0.65356062006E+03  0.00000000000E+00 0. -1.
         -3    1    3    3    0  502  0.47064124555E+01 -0.71787640111E+02 -0.48185517380E+02  0.86587872570E+02  0.00000000000E+00 0.  1.
         13    1    5    5    0    0  0.96443950364E+01  0.82355529234E+01  0.32052549901E+01  0.13080991825E+02  0.00000000000E+00 0.  1.
        -13    1    5    5    0    0  0.27439862685E+03  0.20918917106E+03  0.80849449537E+03  0.87904383551E+03  0.00000000000E+00 0. -1.
          4    1    6    6  503    0 -0.17165541943E+03  0.23859712215E+03 -0.10172547827E+03  0.31103415029E+03  0.00000000000E+00 0. -1.
         -4    1    6    6    0  503 -0.50272761974E+02  0.29845317245E+02  0.11523178377E+02  0.59589237265E+02  0.00000000000E+00 0.  1.
<mgrwt>
<rscale>  0 0.19954892E+04</rscale>
<asrwt>0</asrwt>
<pdfrwt beam="1">  1        2 0.14083061E+00 0.19954892E+04</pdfrwt>
<pdfrwt beam="2">  1       -1 0.16730735E+00 0.19954892E+04</pdfrwt>
<totfact> 0.78199218E+00</totfact>
</mgrwt>
</event>
<event>
12    7  0.1675873E-007  0.1648992E+04  0.7818608E-02  0.8791003E-01
          2   -1    0    0  501    0  0.00000000000E+00  0.00000000000E+00  0.13891398692E+04  0.13891398692E+04  0.00000000000E+00 0. -1.
         -1   -1    0    0    0  501 -0.00000000000E+00 -0.00000000000E+00 -0.48936328900E+03  0.48936328900E+03  0.00000000000E+00 0.  1.
         24    2    1    2    0    0  0.49016712799E+03  0.28404150388E+03  0.41988424578E+03  0.71017604297E+03  0.84284297828E+02 0.  0.
        254    2    1    2    0    0 -0.49016712799E+03 -0.28404150388E+03  0.47989233438E+03  0.11683271152E+04  0.90207993337E+03 0.  0.
         23    2    4    4    0    0  0.24660816888E+03 -0.22416483830E+02  0.20652849920E+03  0.33513751043E+03  0.91351202556E+02 0.  0.
         23    2    4    4    0    0 -0.73677529687E+03 -0.26162502005E+03  0.27336383518E+03  0.83318960476E+03  0.90507689762E+02 0.  0.
          2    1    3    3  502    0  0.27201799266E+03  0.14710504810E+03  0.17788835711E+03  0.35676035528E+03  0.00000000000E+00 0. -1.
         -1    1    3    3    0  502  0.21814913533E+03  0.13693645578E+03  0.24199588867E+03  0.35341568768E+03  0.00000000000E+00 0.  1.
         13    1    5    5    0    0  0.40225224729E+02 -0.21611299236E+02  0.37701538526E+01  0.45818457190E+02  0.00000000000E+00 0. -1.
        -13    1    5    5    0    0  0.20638294415E+03 -0.80518459396E+00  0.20275834535E+03  0.28931905324E+03  0.00000000000E+00 0.  1.
          2    1    6    6  503    0 -0.37875005123E+03 -0.94578918362E+02  0.16250481216E+03  0.42285291424E+03  0.00000000000E+00 0. -1.
         -2    1    6    6    0  503 -0.35802524564E+03 -0.16704610169E+03  0.11085902302E+03  0.41033669053E+03  0.00000000000E+00 0.  1.
<mgrwt>
<rscale>  0 0.16489925E+04</rscale>
<asrwt>0</asrwt>
<pdfrwt beam="1">  1        2 0.21371382E+00 0.16489925E+04</pdfrwt>
<pdfrwt beam="2">  1       -1 0.75286661E-01 0.16489925E+04</pdfrwt>
<totfact> 0.28350765E+01</totfact>
</mgrwt>
</event>
<event>
12    7  0.1675873E-007  0.1586412E+04  0.7818608E-02  0.8828940E-01
         -3   -1    0    0    0  501 -0.00000000000E+00  0.00000000000E+00  0.72667772807E+03  0.72667772807E+03  0.00000000000E+00 0.  1.
          2   -1    0    0  501    0  0.00000000000E+00 -0.00000000000E+00 -0.86582472021E+03  0.86582472021E+03  0.00000000000E+00 0. -1.
         24    2    1    2    0    0  0.30072239690E+03  0.14847470047E+02 -0.49171430853E+03  0.58311229873E+03  0.87078036016E+02 0.  0.
        254    2    1    2    0    0 -0.30072239690E+03 -0.14847470047E+02  0.35256731638E+03  0.10093901496E+04  0.89661048068E+03 0.  0.
         23    2    4    4    0    0 -0.35651737030E+03  0.14383618764E+03  0.58569998847E+03  0.70752566583E+03  0.98765414570E+02 0.  0.
         23    2    4    4    0    0  0.55794973401E+02 -0.15868365768E+03 -0.23313267209E+03  0.30186448372E+03  0.92074651594E+02 0.  0.
          4    1    3    3  502    0  0.24976428645E+03 -0.16748027546E+02 -0.42641101303E+03  0.49445833722E+03  0.00000000000E+00 0. -1.
         -3    1    3    3    0  502  0.50958110453E+02  0.31595497593E+02 -0.65303295497E+02  0.88653961512E+02  0.00000000000E+00 0.  1.
         13    1    5    5    0    0 -0.36220971223E+02  0.48629901449E+02  0.65558241969E+02  0.89301227099E+02  0.00000000000E+00 0.  1.
        -13    1    5    5    0    0 -0.32029639908E+03  0.95206286186E+02  0.52014174650E+03  0.61822443873E+03  0.00000000000E+00 0. -1.
          3    1    6    6  503    0  0.59155661221E+02 -0.96604190884E+02 -0.86279696903E+02  0.14239363767E+03  0.00000000000E+00 0. -1.
         -3    1    6    6    0  503 -0.33606878204E+01 -0.62079466798E+02 -0.14685297518E+03  0.15947084605E+03  0.00000000000E+00 0.  1.
<mgrwt>
<rscale>  0 0.15864117E+04</rscale>
<asrwt>0</asrwt>
<pdfrwt beam="1">  1        2 0.13320380E+00 0.15864117E+04</pdfrwt>
<pdfrwt beam="2">  1       -3 0.11179657E+00 0.15864117E+04</pdfrwt>
<totfact> 0.12601457E+01</totfact>
</mgrwt>
</event>
<event>
12    7  0.1688500E-007  0.2290648E+04  0.7818608E-02  0.8481618E-01
         -1   -1    0    0    0  501 -0.00000000000E+00  0.00000000000E+00  0.12925211633E+04  0.12925211633E+04  0.00000000000E+00 0.  1.
          2   -1    0    0  501    0  0.00000000000E+00 -0.00000000000E+00 -0.10148901588E+04  0.10148901588E+04  0.00000000000E+00 0. -1.
         24    2    1    2    0    0 -0.80379748265E+01  0.69754612225E+03  0.77731663962E+03  0.10475446381E+04  0.80581691237E+02 0.  0.
        254    2    1    2    0    0  0.80379748265E+01 -0.69754612225E+03 -0.49968563505E+03  0.12598666840E+04  0.92246578569E+03 0.  0.
         23    2    4    4    0    0 -0.26134230782E+03 -0.32628495014E+03 -0.64163782417E+03  0.77111377454E+03  0.90308833161E+02 0.  0.
         23    2    4    4    0    0  0.26938028265E+03 -0.37126117212E+03  0.14195218912E+03  0.48875290941E+03  0.91260001428E+02 0.  0.
          2    1    3    3  502    0 -0.43897881356E+01  0.92967120560E+02  0.14826985231E+03  0.17506028918E+03  0.00000000000E+00 0. -1.
         -1    1    3    3    0  502 -0.36481866909E+01  0.60457900169E+03  0.62904678731E+03  0.87248434896E+03  0.00000000000E+00 0.  1.
         13    1    5    5    0    0 -0.24957210632E+03 -0.33061387476E+03 -0.63013267593E+03  0.75409479492E+03  0.00000000000E+00 0. -1.
        -13    1    5    5    0    0 -0.11770201496E+02  0.43289246269E+01 -0.11505148236E+02  0.17018979629E+02  0.00000000000E+00 0.  1.
          1    1    6    6  503    0  0.18910471092E+03 -0.27357980238E+03  0.14373125844E+03  0.36230536101E+03  0.00000000000E+00 0. -1.
         -1    1    6    6    0  503  0.80275571727E+02 -0.97681369737E+02 -0.17790693154E+01  0.12644754840E+03  0.00000000000E+00 0.  1.
<mgrwt>
<rscale>  0 0.22906480E+04</rscale>
<asrwt>0</asrwt>
<pdfrwt beam="1">  1        2 0.15613695E+00 0.22906480E+04</pdfrwt>
<pdfrwt beam="2">  1       -1 0.19884941E+00 0.22906480E+04</pdfrwt>
<totfact> 0.39076749E+00</totfact>
</mgrwt>
</event>
<event>
12    7  0.1675873E-007  0.1158235E+04  0.7818608E-02  0.9150220E-01
         -1   -1    0    0    0  501 -0.00000000000E+00  0.00000000000E+00  0.48273742132E+03  0.48273742132E+03  0.00000000000E+00 0.  1.
          2   -1    0    0  501    0  0.00000000000E+00 -0.00000000000E+00 -0.69473979546E+03  0.69473979546E+03  0.00000000000E+00 0. -1.
         24    2    1    2    0    0 -0.56760835614E+02 -0.17196372054E+03  0.78503158460E+02  0.21312235577E+03  0.80405714982E+02 0.  0.
        254    2    1    2    0    0  0.56760835614E+02  0.17196372054E+03 -0.29050553260E+03  0.96435486101E+03  0.90155061967E+03 0.  0.
         23    2    4    4    0    0  0.29873131521E+02  0.47073304660E+03  0.71335481654E+02  0.48572167471E+03  0.91404535959E+02 0.  0.
         23    2    4    4    0    0  0.26887704093E+02 -0.29876932606E+03 -0.36184101426E+03  0.47863318630E+03  0.90414316329E+02 0.  0.
          2    1    3    3  502    0 -0.40805785878E+02 -0.15839148382E+03  0.38601450669E+02  0.16805667586E+03  0.00000000000E+00 0. -1.
         -1    1    3    3    0  502 -0.15955049736E+02 -0.13572236722E+02  0.39901707791E+02  0.45065679917E+02  0.00000000000E+00 0.  1.
         13    1    5    5    0    0  0.44814315150E+02  0.12784465574E+03  0.15261514273E+01  0.13548028632E+03  0.00000000000E+00 0.  1.
        -13    1    5    5    0    0 -0.14941183629E+02  0.34288839086E+03  0.69809330227E+02  0.35024138839E+03  0.00000000000E+00 0. -1.
          4    1    6    6  503    0  0.19159565872E+02 -0.22860689569E+03 -0.32822749142E+03  0.40045160487E+03  0.00000000000E+00 0. -1.
         -4    1    6    6    0  503  0.77281382210E+01 -0.70162430372E+02 -0.33613522837E+02  0.78181581421E+02  0.00000000000E+00 0.  1.
<mgrwt>
<rscale>  0 0.11582347E+04</rscale>
<asrwt>0</asrwt>
<pdfrwt beam="1">  1        2 0.10688305E+00 0.11582347E+04</pdfrwt>
<pdfrwt beam="2">  1       -1 0.74267295E-01 0.11582347E+04</pdfrwt>
<totfact> 0.85349005E+01</totfact>
</mgrwt>
</event>
<event>
12    7  0.1675873E-007  0.1873439E+04  0.7818608E-02  0.8668192E-01
         -1   -1    0    0    0  501 -0.00000000000E+00  0.00000000000E+00  0.26757915697E+03  0.26757915697E+03  0.00000000000E+00 0.  1.
          2   -1    0    0  501    0  0.00000000000E+00 -0.00000000000E+00 -0.32791908950E+04  0.32791908950E+04  0.00000000000E+00 0. -1.
         24    2    1    2    0    0  0.19349294629E+02 -0.71673215804E+03 -0.11460538656E+04  0.13542570791E+04  0.80581584192E+02 0.  0.
        254    2    1    2    0    0 -0.19349294629E+02  0.71673215804E+03 -0.18655578724E+04  0.21925129729E+04  0.90151404844E+03 0.  0.
         23    2    4    4    0    0 -0.19013306548E+03  0.28464705047E+03 -0.16206455303E+04  0.16588082191E+04  0.89321033832E+02 0.  0.
         23    2    4    4    0    0  0.17078377085E+03  0.43208510758E+03 -0.24491234214E+03  0.53370475381E+03  0.94837083073E+02 0.  0.
          4    1    3    3  502    0  0.42596078854E+02 -0.61892705328E+03 -0.10044952310E+04  0.11806336402E+04  0.00000000000E+00 0. -1.
         -3    1    3    3    0  502 -0.23246784225E+02 -0.97805104763E+02 -0.14155863460E+03  0.17362343887E+03  0.00000000000E+00 0.  1.
         13    1    5    5    0    0  0.30991631630E+01  0.36957474963E+02 -0.11862844341E+03  0.12429065674E+03  0.00000000000E+00 0. -1.
        -13    1    5    5    0    0 -0.19323222865E+03  0.24768957550E+03 -0.15020170869E+04  0.15345175624E+04  0.00000000000E+00 0.  1.
          1    1    6    6  503    0 -0.10748545837E+02  0.44956319108E+02 -0.17611721805E+02  0.49464882597E+02  0.00000000000E+00 0. -1.
         -1    1    6    6    0  503  0.18153231669E+03  0.38712878847E+03 -0.22730062034E+03  0.48423987121E+03  0.00000000000E+00 0.  1.
<mgrwt>
<rscale>  0 0.18734387E+04</rscale>
<asrwt>0</asrwt>
<pdfrwt beam="1">  1        2 0.50449092E+00 0.18734387E+04</pdfrwt>
<pdfrwt beam="2">  1       -1 0.41166023E-01 0.18734387E+04</pdfrwt>
<totfact> 0.71359740E+00</totfact>
</mgrwt>
</event>
<event>
12    7  0.1675873E-007  0.3518461E+04  0.7818608E-02  0.8109429E-01
          2   -1    0    0  501    0  0.00000000000E+00  0.00000000000E+00  0.25518097388E+04  0.25518097388E+04  0.00000000000E+00 0. -1.
         -1   -1    0    0    0  501 -0.00000000000E+00 -0.00000000000E+00 -0.12128226139E+04  0.12128226139E+04  0.00000000000E+00 0.  1.
         24    2    1    2    0    0 -0.65868921095E+03 -0.15055000656E+04  0.63270833696E+03  0.17626912913E+04  0.79742239004E+02 0.  0.
        254    2    1    2    0    0  0.65868921095E+03  0.15055000656E+04  0.70627878796E+03  0.20019410614E+04  0.89918650052E+03 0.  0.
         23    2    4    4    0    0  0.45712628711E+03  0.15661274069E+04  0.67816526192E+03  0.17694876324E+04  0.97256679642E+02 0.  0.
         23    2    4    4    0    0  0.20156292384E+03 -0.60627341320E+02  0.28113526045E+02  0.23245342895E+03  0.94556541296E+02 0.  0.
          2    1    3    3  502    0 -0.15274276206E+03 -0.42960280243E+03  0.15910514983E+03  0.48291134581E+03  0.00000000000E+00 0. -1.
         -1    1    3    3    0  502 -0.50594644889E+03 -0.10758972632E+04  0.47360318713E+03  0.12797799455E+04  0.00000000000E+00 0.  1.
         13    1    5    5    0    0  0.33152274589E+03  0.12394699087E+04  0.56213245231E+03  0.14007804537E+04  0.00000000000E+00 0. -1.
        -13    1    5    5    0    0  0.12560354121E+03  0.32665749821E+03  0.11603280961E+03  0.36870717868E+03  0.00000000000E+00 0.  1.
          3    1    6    6  503    0  0.13206030219E+03 -0.46292578648E+02 -0.27099933145E+02  0.14253888112E+03  0.00000000000E+00 0. -1.
         -3    1    6    6    0  503  0.69502621643E+02 -0.14334762673E+02  0.55213459190E+02  0.89914547832E+02  0.00000000000E+00 0.  1.
<mgrwt>
<rscale>  0 0.35184613E+04</rscale>
<asrwt>0</asrwt>
<pdfrwt beam="1">  1        2 0.39258611E+00 0.35184613E+04</pdfrwt>
<pdfrwt beam="2">  1       -1 0.18658809E+00 0.35184613E+04</pdfrwt>
<totfact> 0.56539974E-01</totfact>
</mgrwt>
</event>
<event>
12    7  0.1675873E-007  0.2818393E+04  0.7818608E-02  0.8297581E-01
          2   -1    0    0  501    0  0.00000000000E+00  0.00000000000E+00  0.17982657172E+04  0.17982657172E+04  0.00000000000E+00 0. -1.
         -1   -1    0    0    0  501 -0.00000000000E+00 -0.00000000000E+00 -0.11043054758E+04  0.11043054758E+04  0.00000000000E+00 0.  1.
         24    2    1    2    0    0  0.56804209547E+03 -0.17876511142E+03  0.14615926981E+04  0.15805089349E+04  0.84418546034E+02 0.  0.
        254    2    1    2    0    0 -0.56804209547E+03  0.17876511142E+03 -0.76763245664E+03  0.13220622581E+04  0.89663829859E+03 0.  0.
         23    2    4    4    0    0  0.61312135754E+02 -0.11748797377E+03 -0.57109027436E+03  0.59334254630E+03  0.91371077529E+02 0.  0.
         23    2    4    4    0    0 -0.62935423123E+03  0.29625308519E+03 -0.19654218228E+03  0.72871971179E+03  0.92471347412E+02 0.  0.
          4    1    3    3  502    0  0.56826168652E+03 -0.18239486663E+03  0.14578871652E+04  0.15753171802E+04  0.00000000000E+00 0. -1.
         -3    1    3    3    0  502 -0.21959104986E+00  0.36297552031E+01  0.37055328985E+01  0.51917547251E+01  0.00000000000E+00 0.  1.
         13    1    5    5    0    0  0.67170607250E+02 -0.36412015001E+02 -0.21752681574E+03  0.23055507125E+03  0.00000000000E+00 0. -1.
        -13    1    5    5    0    0 -0.58584714961E+01 -0.81075958768E+02 -0.35356345862E+03  0.36278747505E+03  0.00000000000E+00 0.  1.
          1    1    6    6  503    0 -0.38929665285E+03  0.13545411576E+03 -0.10081214880E+03  0.42433806186E+03  0.00000000000E+00 0. -1.
         -1    1    6    6    0  503 -0.24005757837E+03  0.16079896943E+03 -0.95730033481E+02  0.30438164993E+03  0.00000000000E+00 0.  1.
<mgrwt>
<rscale>  0 0.28183929E+04</rscale>
<asrwt>0</asrwt>
<pdfrwt beam="1">  1        2 0.27665626E+00 0.28183929E+04</pdfrwt>
<pdfrwt beam="2">  1       -1 0.16989315E+00 0.28183929E+04</pdfrwt>
<totfact> 0.21080200E+00</totfact>
</mgrwt>
</event>
<event>
12    7  0.1675873E-007  0.2385360E+04  0.7818608E-02  0.8445005E-01
          2   -1    0    0  501    0  0.00000000000E+00  0.00000000000E+00  0.20860496229E+04  0.20860496229E+04  0.00000000000E+00 0. -1.
         -1   -1    0    0    0  501 -0.00000000000E+00 -0.00000000000E+00 -0.68190415861E+03  0.68190415861E+03  0.00000000000E+00 0.  1.
         24    2    1    2    0    0  0.49320689542E+03 -0.63423421482E+03 -0.13076797246E+03  0.81858654119E+03  0.86473012346E+02 0.  0.
        254    2    1    2    0    0 -0.49320689542E+03  0.63423421482E+03  0.15349134368E+04  0.19493672403E+04  0.89362592756E+03 0.  0.
         23    2    4    4    0    0 -0.10155026922E+03  0.72921877424E+03  0.12273536818E+04  0.14343247137E+04  0.93903387475E+02 0.  0.
         23    2    4    4    0    0 -0.39165662620E+03 -0.94984559427E+02  0.30755975492E+03  0.51504252661E+03  0.90878061123E+02 0.  0.
          2    1    3    3  502    0  0.31540528077E+03 -0.34900329840E+03 -0.51197576773E+02  0.47318599440E+03  0.00000000000E+00 0. -1.
         -1    1    3    3    0  502  0.17780161465E+03 -0.28523091642E+03 -0.79570395689E+02  0.34540054679E+03  0.00000000000E+00 0.  1.
         13    1    5    5    0    0 -0.26940109421E+02  0.40519375958E+03  0.74468870786E+03  0.84821519906E+03  0.00000000000E+00 0.  1.
        -13    1    5    5    0    0 -0.74610159797E+02  0.32402501466E+03  0.48266497398E+03  0.58610951466E+03  0.00000000000E+00 0. -1.
          4    1    6    6  503    0 -0.85887909068E+02 -0.42267711984E+02  0.11598640500E+03  0.15038663021E+03  0.00000000000E+00 0. -1.
         -4    1    6    6    0  503 -0.30576871713E+03 -0.52716847443E+02  0.19157334992E+03  0.36465589640E+03  0.00000000000E+00 0.  1.
<mgrwt>
<rscale>  0 0.23853603E+04</rscale>
<asrwt>0</asrwt>
<pdfrwt beam="1">  1        2 0.32093071E+00 0.23853603E+04</pdfrwt>
<pdfrwt beam="2">  1       -1 0.10490833E+00 0.23853603E+04</pdfrwt>
<totfact> 0.52278102E+00</totfact>
</mgrwt>
</event>
<event>
12    7  0.1675873E-007  0.1999749E+04  0.7818608E-02  0.8606738E-01
         -3   -1    0    0    0  501 -0.00000000000E+00  0.00000000000E+00  0.63230179505E+03  0.63230179505E+03  0.00000000000E+00 0.  1.
          2   -1    0    0  501    0  0.00000000000E+00 -0.00000000000E+00 -0.15811264687E+04  0.15811264687E+04  0.00000000000E+00 0. -1.
         24    2    1    2    0    0 -0.65427834724E+03 -0.45920727265E+03 -0.40652132182E+03  0.90085841351E+03  0.85643570536E+02 0.  0.
        254    2    1    2    0    0  0.65427834724E+03  0.45920727265E+03 -0.54230335180E+03  0.13125698502E+04  0.88870423166E+03 0.  0.
         23    2    4    4    0    0 -0.69017390084E+02 -0.18127271087E+03 -0.32358008203E+02  0.21666612847E+03  0.90961391199E+02 0.  0.
         23    2    4    4    0    0  0.72329573732E+03  0.64047998352E+03 -0.50994534359E+03  0.10959037217E+04  0.87117053138E+02 0.  0.
          2    1    3    3  502    0 -0.57333296929E+03 -0.38282978109E+03 -0.32080788903E+03  0.76038611023E+03  0.00000000000E+00 0. -1.
         -1    1    3    3    0  502 -0.80945377952E+02 -0.76377491558E+02 -0.85713432791E+02  0.14047230328E+03  0.00000000000E+00 0.  1.
         13    1    5    5    0    0 -0.74180744030E+02 -0.18677983583E+03 -0.19708723268E+02  0.20193544421E+03  0.00000000000E+00 0.  1.
        -13    1    5    5    0    0  0.51633539460E+01  0.55071249549E+01 -0.12649284935E+02  0.14730684254E+02  0.00000000000E+00 0. -1.
          4    1    6    6  503    0  0.90219451594E+02  0.10702184523E+03 -0.10050783629E+03  0.17232251727E+03  0.00000000000E+00 0. -1.
         -4    1    6    6    0  503  0.63307628573E+03  0.53345813829E+03 -0.40943750730E+03  0.92358120447E+03  0.00000000000E+00 0.  1.
<mgrwt>
<rscale>  0 0.19997491E+04</rscale>
<asrwt>0</asrwt>
<pdfrwt beam="1">  1        2 0.24325022E+00 0.19997491E+04</pdfrwt>
<pdfrwt beam="2">  1       -3 0.97277201E-01 0.19997491E+04</pdfrwt>
<totfact> 0.62996818E+00</totfact>
</mgrwt>
</event>
<event>
12    7  0.1675873E-007  0.1784224E+04  0.7818608E-02  0.8714734E-01
         -1   -1    0    0    0  501 -0.00000000000E+00  0.00000000000E+00  0.66688667339E+03  0.66688667339E+03  0.00000000000E+00 0.  1.
          2   -1    0    0  501    0  0.00000000000E+00 -0.00000000000E+00 -0.11934016825E+04  0.11934016825E+04  0.00000000000E+00 0. -1.
         24    2    1    2    0    0 -0.14000104121E+03 -0.55827161542E+03 -0.56321903607E+03  0.80933947160E+03  0.80914829127E+02 0.  0.
        254    2    1    2    0    0  0.14000104121E+03  0.55827161542E+03  0.36704026955E+02  0.10509488843E+04  0.87856637979E+03 0.  0.
         23    2    4    4    0    0  0.13744963267E+03  0.49542475821E+03  0.40873336042E+03  0.66332161346E+03  0.92706582276E+02 0.  0.
         23    2    4    4    0    0  0.25514085351E+01  0.62846857205E+02 -0.37202933346E+03  0.38762727084E+03  0.88841651267E+02 0.  0.
          2    1    3    3  502    0 -0.14933848017E+03 -0.51523441569E+03 -0.53072275660E+03  0.75460925593E+03  0.00000000000E+00 0. -1.
         -1    1    3    3    0  502  0.93374389651E+01 -0.43037199734E+02 -0.32496279474E+02  0.54730215668E+02  0.00000000000E+00 0.  1.
         13    1    5    5    0    0  0.52556368361E+02  0.12594826370E+03  0.15811254871E+03  0.20886530359E+03  0.00000000000E+00 0. -1.
        -13    1    5    5    0    0  0.84893264311E+02  0.36947649451E+03  0.25062081170E+03  0.45445630987E+03  0.00000000000E+00 0.  1.
          4    1    6    6  503    0 -0.78049508996E+01  0.83104092786E+02 -0.25210100639E+03  0.26556002131E+03  0.00000000000E+00 0. -1.
         -4    1    6    6    0  503  0.10356359435E+02 -0.20257235581E+02 -0.11992832707E+03  0.12206724953E+03  0.00000000000E+00 0.  1.
<mgrwt>
<rscale>  0 0.17842238E+04</rscale>
<asrwt>0</asrwt>
<pdfrwt beam="1">  1        2 0.18360026E+00 0.17842238E+04</pdfrwt>
<pdfrwt beam="2">  1       -1 0.10259795E+00 0.17842238E+04</pdfrwt>
<totfact> 0.18511146E+01</totfact>
</mgrwt>
</event>
<event>
12    7  0.1675873E-007  0.1170011E+04  0.7818608E-02  0.9139518E-01
         -1   -1    0    0    0  501 -0.00000000000E+00  0.00000000000E+00  0.11187030153E+04  0.11187030153E+04  0.00000000000E+00 0.  1.
          2   -1    0    0  501    0  0.00000000000E+00 -0.00000000000E+00 -0.30591820667E+03  0.30591820667E+03  0.00000000000E+00 0. -1.
         24    2    1    2    0    0 -0.58639962820E+02  0.19506646760E+03  0.36533956766E+02  0.22206085450E+03  0.80540183035E+02 0.  0.
        254    2    1    2    0    0  0.58639962820E+02 -0.19506646760E+03  0.77625085188E+03  0.12025603675E+04  0.89559839235E+03 0.  0.
         23    2    4    4    0    0 -0.20273832146E+03  0.38648438861E+02  0.80735968705E+03  0.83827188361E+03  0.90959099407E+02 0.  0.
         23    2    4    4    0    0  0.26137828428E+03 -0.23371490646E+03 -0.31108835167E+02  0.36428848387E+03  0.93792722846E+02 0.  0.
          4    1    3    3  502    0 -0.20283430452E+02  0.55812740476E+02 -0.25797739807E+02  0.64745678847E+02  0.00000000000E+00 0. -1.
         -3    1    3    3    0  502 -0.38356532368E+02  0.13925372713E+03  0.62331696573E+02  0.15731517566E+03  0.00000000000E+00 0.  1.
         13    1    5    5    0    0 -0.35211401943E+02  0.45228280019E+02  0.23264884783E+03  0.23960577317E+03  0.00000000000E+00 0. -1.
        -13    1    5    5    0    0 -0.16752691952E+03 -0.65798411576E+01  0.57471083921E+03  0.59866611044E+03  0.00000000000E+00 0.  1.
          2    1    6    6  503    0  0.18685471727E+03 -0.13688360440E+03  0.18602888716E+02  0.23237442628E+03  0.00000000000E+00 0.  1.
         -2    1    6    6    0  503  0.74523567013E+02 -0.96831302060E+02 -0.49711723884E+02  0.13191405759E+03  0.00000000000E+00 0. -1.
<mgrwt>
<rscale>  0 0.11700113E+04</rscale>
<asrwt>0</asrwt>
<pdfrwt beam="1">  1        2 0.47064340E-01 0.11700113E+04</pdfrwt>
<pdfrwt beam="2">  1       -1 0.17210815E+00 0.11700113E+04</pdfrwt>
<totfact> 0.28895145E+01</totfact>
</mgrwt>
</event>
<event>
12    7  0.1675873E-007  0.1211851E+04  0.7818608E-02  0.9102546E-01
          2   -1    0    0  501    0  0.00000000000E+00  0.00000000000E+00  0.40820152427E+03  0.40820152427E+03  0.00000000000E+00 0. -1.
         -1   -1    0    0    0  501 -0.00000000000E+00 -0.00000000000E+00 -0.89942284862E+03  0.89942284862E+03  0.00000000000E+00 0.  1.
         24    2    1    2    0    0 -0.45322309300E+02 -0.16916245331E+03  0.97502870112E+02  0.21680580544E+03  0.82631109522E+02 0.  0.
        254    2    1    2    0    0  0.45322309300E+02  0.16916245331E+03 -0.58872419447E+03  0.10908185674E+04  0.90145378285E+03 0.  0.
         23    2    4    4    0    0  0.45240680028E+03  0.19527534598E+03 -0.30462942955E+03  0.58624868451E+03  0.89911384469E+02 0.  0.
         23    2    4    4    0    0 -0.40708449098E+03 -0.26112892667E+02 -0.28409476492E+03  0.50456988294E+03  0.86494308194E+02 0.  0.
          2    1    3    3  502    0 -0.18646758798E+02 -0.13734725215E+03  0.10591718813E+03  0.17444317134E+03  0.00000000000E+00 0. -1.
         -1    1    3    3    0  502 -0.26675550502E+02 -0.31815201166E+02 -0.84143180209E+01  0.42362634096E+02  0.00000000000E+00 0.  1.
         13    1    5    5    0    0  0.84060960769E+02  0.18111884471E+01 -0.39539439003E+02  0.92913361610E+02  0.00000000000E+00 0.  1.
        -13    1    5    5    0    0  0.36834583951E+03  0.19346415753E+03 -0.26508999054E+03  0.49333532290E+03  0.00000000000E+00 0. -1.
          2    1    6    6  503    0 -0.25433760804E+03 -0.54709835469E+02 -0.19784533153E+03  0.32683873725E+03  0.00000000000E+00 0.  1.
         -2    1    6    6    0  503 -0.15274688295E+03  0.28596942802E+02 -0.86249433396E+02  0.17773114569E+03  0.00000000000E+00 0. -1.
<mgrwt>
<rscale>  0 0.12118511E+04</rscale>
<asrwt>0</asrwt>
<pdfrwt beam="1">  1        2 0.62800234E-01 0.12118511E+04</pdfrwt>
<pdfrwt beam="2">  1       -1 0.13837275E+00 0.12118511E+04</pdfrwt>
<totfact> 0.37904411E+01</totfact>
</mgrwt>
</event>
<event>
12    7  0.1675873E-007  0.1846260E+04  0.7818608E-02  0.8682078E-01
          2   -1    0    0  501    0  0.00000000000E+00  0.00000000000E+00  0.18909049617E+04  0.18909049617E+04  0.00000000000E+00 0. -1.
         -1   -1    0    0    0  501 -0.00000000000E+00 -0.00000000000E+00 -0.45066745955E+03  0.45066745955E+03  0.00000000000E+00 0.  1.
         24    2    1    2    0    0  0.22722410366E+03  0.69424969328E+03  0.60273021548E+03  0.95054829525E+03  0.81516372839E+02 0.  0.
        254    2    1    2    0    0 -0.22722410366E+03 -0.69424969328E+03  0.83750728670E+03  0.13910241260E+04  0.83660996530E+03 0.  0.
         23    2    4    4    0    0  0.29887404629E+03 -0.16641128721E+03  0.33471635863E+03  0.48739336133E+03  0.92189131050E+02 0.  0.
         23    2    4    4    0    0 -0.52609814995E+03 -0.52783840607E+03  0.50279092807E+03  0.90363076470E+03  0.91417696617E+02 0.  0.
          4    1    3    3  502    0  0.43832665597E-01  0.31014822979E+00 -0.22708755508E+01  0.22923762767E+01  0.00000000000E+00 0. -1.
         -3    1    3    3    0  502  0.22718027099E+03  0.69393954505E+03  0.60500109103E+03  0.94825591897E+03  0.00000000000E+00 0.  1.
         13    1    5    5    0    0  0.23534364421E+03 -0.14851668564E+03  0.21879437171E+03  0.35399832468E+03  0.00000000000E+00 0.  1.
        -13    1    5    5    0    0  0.63530402083E+02 -0.17894601567E+02  0.11592198691E+03  0.13339503665E+03  0.00000000000E+00 0. -1.
          4    1    6    6  503    0 -0.42456009928E+03 -0.46836233043E+03  0.44046130417E+03  0.77046785198E+03  0.00000000000E+00 0.  1.
         -4    1    6    6    0  503 -0.10153805067E+03 -0.59476075644E+02  0.62329623897E+02  0.13316291272E+03  0.00000000000E+00 0. -1.
<mgrwt>
<rscale>  0 0.18462604E+04</rscale>
<asrwt>0</asrwt>
<pdfrwt beam="1">  1        2 0.29090845E+00 0.18462604E+04</pdfrwt>
<pdfrwt beam="2">  1       -1 0.69333456E-01 0.18462604E+04</pdfrwt>
<totfact> 0.17314728E+01</totfact>
</mgrwt>
</event>
<event>
12    7  0.1675873E-007  0.1506138E+04  0.7818608E-02  0.8880382E-01
          2   -1    0    0  501    0  0.00000000000E+00  0.00000000000E+00  0.35577609350E+03  0.35577609350E+03  0.00000000000E+00 0. -1.
         -1   -1    0    0    0  501 -0.00000000000E+00 -0.00000000000E+00 -0.15940154107E+04  0.15940154107E+04  0.00000000000E+00 0.  1.
         24    2    1    2    0    0  0.46082457811E+03 -0.15786206457E+03 -0.46640482382E+03  0.68131052216E+03  0.96803123396E+02 0.  0.
        254    2    1    2    0    0 -0.46082457811E+03  0.15786206457E+03 -0.77183449338E+03  0.12684809820E+04  0.88092893777E+03 0.  0.
         23    2    4    4    0    0 -0.32449798100E+03 -0.26911038408E+03 -0.77627114933E+02  0.43828776362E+03  0.91383019602E+02 0.  0.
         23    2    4    4    0    0 -0.13632659711E+03  0.42697244865E+03 -0.69420737845E+03  0.83019321842E+03  0.80040506148E+02 0.  0.
          2    1    3    3  502    0  0.36967138182E+03 -0.12272723253E+03 -0.31414376558E+03  0.50040504553E+03  0.00000000000E+00 0. -1.
         -1    1    3    3    0  502  0.91153196288E+02 -0.35134832044E+02 -0.15226105824E+03  0.18090547663E+03  0.00000000000E+00 0.  1.
         13    1    5    5    0    0 -0.53437432475E+02 -0.93224436063E+02 -0.80367222111E+01  0.10775408843E+03  0.00000000000E+00 0. -1.
        -13    1    5    5    0    0 -0.27106054852E+03 -0.17588594802E+03 -0.69590392722E+02  0.33053367519E+03  0.00000000000E+00 0.  1.
          2    1    6    6  503    0 -0.77639310262E+02  0.34923681530E+03 -0.55381286014E+03  0.65932002830E+03  0.00000000000E+00 0.  1.
         -2    1    6    6    0  503 -0.58687286846E+02  0.77735633358E+02 -0.14039451831E+03  0.17087319012E+03  0.00000000000E+00 0. -1.
<mgrwt>
<rscale>  0 0.15061375E+04</rscale>
<asrwt>0</asrwt>
<pdfrwt beam="1">  1        2 0.54734784E-01 0.15061375E+04</pdfrwt>
<pdfrwt beam="2">  1       -1 0.24523314E+00 0.15061375E+04</pdfrwt>
<totfact> 0.75155380E+00</totfact>
</mgrwt>
</event>
<event>
12    7  0.1675873E-007  0.1931686E+04  0.7818608E-02  0.8639243E-01
          2   -1    0    0  501    0  0.00000000000E+00  0.00000000000E+00  0.24704611818E+04  0.24704611818E+04  0.00000000000E+00 0. -1.
         -1   -1    0    0    0  501 -0.00000000000E+00 -0.00000000000E+00 -0.37760256854E+03  0.37760256854E+03  0.00000000000E+00 0.  1.
         24    2    1    2    0    0  0.61456568586E+03  0.20724615352E+03  0.25428683014E+03  0.70125282818E+03  0.80323014500E+02 0.  0.
        254    2    1    2    0    0 -0.61456568586E+03 -0.20724615352E+03  0.18385717831E+04  0.21468109222E+04  0.89878194435E+03 0.  0.
         23    2    4    4    0    0 -0.13153612327E+03 -0.19948230308E+03  0.12416636461E+02  0.25576691270E+03  0.90374774142E+02 0.  0.
         23    2    4    4    0    0 -0.48302956259E+03 -0.77638504343E+01  0.18261551467E+04  0.18910440095E+04  0.88470279709E+02 0.  0.
          4    1    3    3  502    0  0.57740610075E+02 -0.36989241728E+01  0.27793347345E+02  0.64188240733E+02  0.00000000000E+00 0. -1.
         -3    1    3    3    0  502  0.55682507579E+03  0.21094507769E+03  0.22649348280E+03  0.63706458745E+03  0.00000000000E+00 0.  1.
         13    1    5    5    0    0 -0.86153295045E+02 -0.18629860003E+03  0.25235203448E+02  0.20680032426E+03  0.00000000000E+00 0. -1.
        -13    1    5    5    0    0 -0.45382828226E+02 -0.13183703057E+02 -0.12818566987E+02  0.48966588442E+02  0.00000000000E+00 0.  1.
          1    1    6    6  503    0 -0.18204140921E+02  0.12765448405E+02  0.14485604564E+03  0.14655245266E+03  0.00000000000E+00 0. -1.
         -1    1    6    6    0  503 -0.46482542167E+03 -0.20529298839E+02  0.16812991010E+04  0.17444915568E+04  0.00000000000E+00 0.  1.
<mgrwt>
<rscale>  0 0.19316858E+04</rscale>
<asrwt>0</asrwt>
<pdfrwt beam="1">  1        2 0.38007094E+00 0.19316858E+04</pdfrwt>
<pdfrwt beam="2">  1       -1 0.58092705E-01 0.19316858E+04</pdfrwt>
<totfact> 0.11568617E+01</totfact>
</mgrwt>
</event>
<event>
12    7  0.1675873E-007  0.3088799E+04  0.7818608E-02  0.8218819E-01
         -1   -1    0    0    0  501 -0.00000000000E+00  0.00000000000E+00  0.18649584470E+04  0.18649584470E+04  0.00000000000E+00 0.  1.
          2   -1    0    0  501    0  0.00000000000E+00 -0.00000000000E+00 -0.12789400750E+04  0.12789400750E+04  0.00000000000E+00 0. -1.
         24    2    1    2    0    0  0.50335084657E+02 -0.39960261375E+03  0.16470417952E+04  0.16974408478E+04  0.79642243674E+02 0.  0.
        254    2    1    2    0    0 -0.50335084657E+02  0.39960261375E+03 -0.10610234233E+04  0.14464576741E+04  0.89680166632E+03 0.  0.
         23    2    4    4    0    0  0.23014897063E+03 -0.70218240154E+02 -0.96507625039E+01  0.25779894206E+03  0.92021776652E+02 0.  0.
         23    2    4    4    0    0 -0.28048405529E+03  0.46982085390E+03 -0.10513726608E+04  0.11886587321E+04  0.90123079906E+02 0.  0.
          4    1    3    3  502    0 -0.96183471751E+01 -0.52455110930E+01  0.63131705698E+02  0.64075270216E+02  0.00000000000E+00 0. -1.
         -3    1    3    3    0  502  0.59953431832E+02 -0.39435710265E+03  0.15839100895E+04  0.16333655776E+04  0.00000000000E+00 0.  1.
         13    1    5    5    0    0  0.20824311351E+03 -0.71656642733E+02  0.19745232058E+02  0.22111025069E+03  0.00000000000E+00 0. -1.
        -13    1    5    5    0    0  0.21905857123E+02  0.14384025785E+01 -0.29395994562E+02  0.36688691371E+02  0.00000000000E+00 0.  1.
          1    1    6    6  503    0 -0.21840913536E+03  0.38400010775E+03 -0.76593270016E+03  0.88420107121E+03  0.00000000000E+00 0. -1.
         -1    1    6    6    0  503 -0.62074919926E+02  0.85820746147E+02 -0.28543996061E+03  0.30445766087E+03  0.00000000000E+00 0.  1.
<mgrwt>
<rscale>  0 0.30887992E+04</rscale>
<asrwt>0</asrwt>
<pdfrwt beam="1">  1        2 0.19676001E+00 0.30887992E+04</pdfrwt>
<pdfrwt beam="2">  1       -1 0.28691668E+00 0.30887992E+04</pdfrwt>
<totfact> 0.66083377E-01</totfact>
</mgrwt>
</event>
<event>
12    7  0.1675873E-007  0.1284520E+04  0.7818608E-02  0.9041932E-01
          2   -1    0    0  501    0  0.00000000000E+00  0.00000000000E+00  0.19423841391E+04  0.19423841391E+04  0.00000000000E+00 0. -1.
         -1   -1    0    0    0  501 -0.00000000000E+00 -0.00000000000E+00 -0.21236687347E+03  0.21236687347E+03  0.00000000000E+00 0.  1.
         24    2    1    2    0    0 -0.60996563777E+02  0.18936089337E+03  0.86228505382E+03  0.88890483801E+03  0.83893791597E+02 0.  0.
        254    2    1    2    0    0  0.60996563777E+02 -0.18936089337E+03  0.86773221185E+03  0.12658461746E+04  0.89990511584E+03 0.  0.
         23    2    4    4    0    0 -0.39935239264E+03 -0.17877360075E+03  0.49188483241E+03  0.66462372394E+03  0.91277994268E+02 0.  0.
         23    2    4    4    0    0  0.46034895642E+03 -0.10587292622E+02  0.37584737943E+03  0.60122245065E+03  0.90409789806E+02 0.  0.
          4    1    3    3  502    0 -0.20586417056E+02  0.16660892831E+03  0.71733635815E+03  0.73671825434E+03  0.00000000000E+00 0. -1.
         -3    1    3    3    0  502 -0.40410146720E+02  0.22751965064E+02  0.14494869567E+03  0.15218658367E+03  0.00000000000E+00 0.  1.
         13    1    5    5    0    0 -0.39193114227E+03 -0.16330903145E+03  0.44671611923E+03  0.61630767577E+03  0.00000000000E+00 0. -1.
        -13    1    5    5    0    0 -0.74212503757E+01 -0.15464569296E+02  0.45168713181E+02  0.48316048173E+02  0.00000000000E+00 0.  1.
          2    1    6    6  503    0  0.80889025918E+02  0.26592686336E+01  0.26208055583E+02  0.85070373228E+02  0.00000000000E+00 0.  1.
         -2    1    6    6    0  503  0.37945993050E+03 -0.13246561256E+02  0.34963932385E+03  0.51615207742E+03  0.00000000000E+00 0. -1.
<mgrwt>
<rscale>  0 0.12845202E+04</rscale>
<asrwt>0</asrwt>
<pdfrwt beam="1">  1        2 0.29882832E+00 0.12845202E+04</pdfrwt>
<pdfrwt beam="2">  1       -1 0.32671828E-01 0.12845202E+04</pdfrwt>
<totfact> 0.70597967E+01</totfact>
</mgrwt>
</event>
<event>
12    7  0.1675873E-007  0.1878807E+04  0.7818608E-02  0.8665478E-01
         -1   -1    0    0    0  501 -0.00000000000E+00  0.00000000000E+00  0.35543671675E+03  0.35543671675E+03  0.00000000000E+00 0.  1.
          2   -1    0    0  501    0  0.00000000000E+00 -0.00000000000E+00 -0.24828007159E+04  0.24828007159E+04  0.00000000000E+00 0. -1.
         24    2    1    2    0    0  0.31836516298E+03 -0.32602572775E+03  0.16857621108E+02  0.46309642145E+03  0.80777249405E+02 0.  0.
        254    2    1    2    0    0 -0.31836516298E+03  0.32602572775E+03 -0.21442216203E+04  0.23751410112E+04  0.91430810680E+03 0.  0.
         23    2    4    4    0    0 -0.14291398661E+03  0.67772981712E+01  0.26683844701E+02  0.17199454790E+03  0.91650191486E+02 0.  0.
         23    2    4    4    0    0 -0.17545117637E+03  0.31924842958E+03 -0.21709054650E+04  0.22031464633E+04  0.91220205404E+02 0.  0.
          2    1    3    3  502    0  0.13204053179E+03 -0.16059595131E+03  0.43819113474E+02  0.21247558994E+03  0.00000000000E+00 0. -1.
         -1    1    3    3    0  502  0.18632463119E+03 -0.16542977643E+03 -0.26961492366E+02  0.25062083152E+03  0.00000000000E+00 0.  1.
         13    1    5    5    0    0 -0.14859670903E+03  0.90613736402E+01  0.42676806364E+02  0.15486897762E+03  0.00000000000E+00 0.  1.
        -13    1    5    5    0    0  0.56827224161E+01 -0.22840754690E+01 -0.15992961663E+02  0.17125570284E+02  0.00000000000E+00 0. -1.
          3    1    6    6  503    0 -0.45524557893E+01 -0.42024527684E+01 -0.12411791347E+02  0.13872203410E+02  0.00000000000E+00 0. -1.
         -3    1    6    6    0  503 -0.17089872058E+03  0.32345088235E+03 -0.21584936737E+04  0.21892742599E+04  0.00000000000E+00 0.  1.
<mgrwt>
<rscale>  0 0.18788066E+04</rscale>
<asrwt>0</asrwt>
<pdfrwt beam="1">  1        2 0.38196934E+00 0.18788066E+04</pdfrwt>
<pdfrwt beam="2">  1       -1 0.54682571E-01 0.18788066E+04</pdfrwt>
<totfact> 0.12865538E+01</totfact>
</mgrwt>
</event>
<event>
12    7  0.1675873E-007  0.1520391E+04  0.7818608E-02  0.8871005E-01
         -1   -1    0    0    0  501 -0.00000000000E+00  0.00000000000E+00  0.15952114387E+04  0.15952114387E+04  0.00000000000E+00 0.  1.
          2   -1    0    0  501    0  0.00000000000E+00 -0.00000000000E+00 -0.36227004490E+03  0.36227004490E+03  0.00000000000E+00 0. -1.
         24    2    1    2    0    0  0.28047703573E+03  0.36794089496E+03  0.20927860928E+03  0.51408167355E+03  0.80215715564E+02 0.  0.
        254    2    1    2    0    0 -0.28047703573E+03 -0.36794089496E+03  0.10236627845E+04  0.14433998100E+04  0.90634962650E+03 0.  0.
         23    2    4    4    0    0  0.23834440082E+03 -0.25334924657E+03  0.99460464554E+02  0.37355976883E+03  0.93062466870E+02 0.  0.
         23    2    4    4    0    0 -0.51882143655E+03 -0.11459164839E+03  0.92420231993E+03  0.10698400412E+04  0.90004759004E+02 0.  0.
          4    1    3    3  502    0  0.10146086357E+03  0.82076877513E+02  0.38755058626E+02  0.13613550319E+03  0.00000000000E+00 0. -1.
         -3    1    3    3    0  502  0.17901617216E+03  0.28586401745E+03  0.17052355065E+03  0.37794617037E+03  0.00000000000E+00 0.  1.
         13    1    5    5    0    0  0.21456441719E+03 -0.18809274668E+03  0.53589776383E+02  0.29032504992E+03  0.00000000000E+00 0.  1.
        -13    1    5    5    0    0  0.23779983635E+02 -0.65256499894E+02  0.45870688172E+02  0.83234718918E+02  0.00000000000E+00 0. -1.
          4    1    6    6  503    0 -0.22424127907E+03 -0.70078262747E+02  0.32941528562E+03  0.40461036140E+03  0.00000000000E+00 0. -1.
         -4    1    6    6    0  503 -0.29458015748E+03 -0.44513385645E+02  0.59478703432E+03  0.66522967979E+03  0.00000000000E+00 0.  1.
<mgrwt>
<rscale>  0 0.15203912E+04</rscale>
<asrwt>0</asrwt>
<pdfrwt beam="1">  1        2 0.55733854E-01 0.15203912E+04</pdfrwt>
<pdfrwt beam="2">  1       -1 0.24541714E+00 0.15203912E+04</pdfrwt>
<totfact> 0.73353154E+00</totfact>
</mgrwt>
</event>
<event>
12    7  0.1675873E-007  0.2774772E+04  0.7818608E-02  0.8311144E-01
          2   -1    0    0  501    0  0.00000000000E+00  0.00000000000E+00  0.33343299543E+04  0.33343299543E+04  0.00000000000E+00 0. -1.
         -1   -1    0    0    0  501 -0.00000000000E+00 -0.00000000000E+00 -0.57727921945E+03  0.57727921945E+03  0.00000000000E+00 0.  1.
         24    2    1    2    0    0 -0.10146209289E+04  0.69806244804E+03  0.14618937144E+04  0.19132047170E+04  0.80450272474E+02 0.  0.
        254    2    1    2    0    0  0.10146209289E+04 -0.69806244804E+03  0.12951570205E+04  0.19984044568E+04  0.89411512359E+03 0.  0.
         23    2    4    4    0    0  0.10567621427E+04 -0.78178120803E+03  0.13282841643E+04  0.18711173770E+04  0.93879359124E+02 0.  0.
         23    2    4    4    0    0 -0.42141213782E+02  0.83718759989E+02 -0.33127143783E+02  0.12728707972E+03  0.79497675025E+02 0.  0.
          4    1    3    3  502    0 -0.17437846630E+03  0.98360135917E+02  0.20198052069E+03  0.28439180119E+03  0.00000000000E+00 0. -1.
         -3    1    3    3    0  502 -0.84024246263E+03  0.59970231213E+03  0.12599131937E+04  0.16288129158E+04  0.00000000000E+00 0.  1.
         13    1    5    5    0    0  0.29015475598E+03 -0.26705028664E+03  0.40961603187E+03  0.56858678456E+03  0.00000000000E+00 0.  1.
        -13    1    5    5    0    0  0.76660738673E+03 -0.51473092139E+03  0.91866813241E+03  0.13025305925E+04  0.00000000000E+00 0. -1.
          1    1    6    6  503    0 -0.38869468065E+02  0.27832963659E+02  0.18376940327E+02  0.51217393036E+02  0.00000000000E+00 0. -1.
         -1    1    6    6    0  503 -0.32717457176E+01  0.55885796330E+02 -0.51504084111E+02  0.76069686680E+02  0.00000000000E+00 0.  1.
<mgrwt>
<rscale>  0 0.27747716E+04</rscale>
<asrwt>0</asrwt>
<pdfrwt beam="1">  1        2 0.51297383E+00 0.27747716E+04</pdfrwt>
<pdfrwt beam="2">  1       -1 0.88812189E-01 0.27747716E+04</pdfrwt>
<totfact> 0.13018816E+00</totfact>
</mgrwt>
</event>
<event>
12    7  0.1675873E-007  0.1542264E+04  0.7818608E-02  0.8856824E-01
         -1   -1    0    0    0  501 -0.00000000000E+00  0.00000000000E+00  0.48563170338E+03  0.48563170338E+03  0.00000000000E+00 0.  1.
          2   -1    0    0  501    0  0.00000000000E+00 -0.00000000000E+00 -0.12244768844E+04  0.12244768844E+04  0.00000000000E+00 0. -1.
         24    2    1    2    0    0 -0.17039704630E+03  0.44277128948E+03 -0.58490088658E+02  0.48455616610E+03  0.79322250701E+02 0.  0.
        254    2    1    2    0    0  0.17039704630E+03 -0.44277128948E+03 -0.68035509237E+03  0.12255524217E+04  0.90222730973E+03 0.  0.
         23    2    4    4    0    0 -0.48784391657E+02 -0.48077868436E+03  0.10893008549E+02  0.49251556537E+03  0.94471499887E+02 0.  0.
         23    2    4    4    0    0  0.21918143796E+03  0.38007394881E+02 -0.69124810092E+03  0.73303685631E+03  0.10017000990E+03 0.  0.
          4    1    3    3  502    0 -0.18740357410E+02  0.24869096049E+02 -0.22725901721E+02  0.38550480454E+02  0.00000000000E+00 0. -1.
         -3    1    3    3    0  502 -0.15165668889E+03  0.41790219343E+03 -0.35764186937E+02  0.44600568565E+03  0.00000000000E+00 0.  1.
         13    1    5    5    0    0 -0.64455555808E+01 -0.31314061902E+03 -0.30619135700E+02  0.31470005392E+03  0.00000000000E+00 0. -1.
        -13    1    5    5    0    0 -0.42338836076E+02 -0.16763806534E+03  0.41512144249E+02  0.17781551145E+03  0.00000000000E+00 0.  1.
          2    1    6    6  503    0  0.28178460777E+02 -0.24378636554E+02 -0.17800628410E+03  0.18186418216E+03  0.00000000000E+00 0. -1.
         -2    1    6    6    0  503  0.19100297718E+03  0.62386031435E+02 -0.51324181681E+03  0.55117267416E+03  0.00000000000E+00 0.  1.
<mgrwt>
<rscale>  0 0.15422643E+04</rscale>
<asrwt>0</asrwt>
<pdfrwt beam="1">  1        2 0.18838106E+00 0.15422643E+04</pdfrwt>
<pdfrwt beam="2">  1       -1 0.74712570E-01 0.15422643E+04</pdfrwt>
<totfact> 0.36252176E+01</totfact>
</mgrwt>
</event>
<event>
12    7  0.1675873E-007  0.2352405E+04  0.7818608E-02  0.8457541E-01
         -1   -1    0    0    0  501 -0.00000000000E+00  0.00000000000E+00  0.41794350953E+03  0.41794350953E+03  0.00000000000E+00 0.  1.
          2   -1    0    0  501    0  0.00000000000E+00 -0.00000000000E+00 -0.33101410696E+04  0.33101410696E+04  0.00000000000E+00 0. -1.
         24    2    1    2    0    0  0.54325612294E+03 -0.59244100109E+03 -0.21725000925E+04  0.23177950214E+04  0.79394927158E+02 0.  0.
        254    2    1    2    0    0 -0.54325612294E+03  0.59244100109E+03 -0.71969746755E+03  0.14102895577E+04  0.90820627441E+03 0.  0.
         23    2    4    4    0    0 -0.75408951866E+03  0.57257936928E+03 -0.44196118677E+03  0.10490365512E+04  0.93004616984E+02 0.  0.
         23    2    4    4    0    0  0.21083339572E+03  0.19861631805E+02 -0.27773628078E+03  0.36125300653E+03  0.92309738914E+02 0.  0.
          4    1    3    3  502    0  0.49937558562E+03 -0.55671175866E+03 -0.19582530803E+04  0.20962011078E+04  0.00000000000E+00 0. -1.
         -1    1    3    3    0  502  0.43880537316E+02 -0.35729242424E+02 -0.21424701221E+03  0.22159391364E+03  0.00000000000E+00 0.  1.
         13    1    5    5    0    0 -0.17095920411E+03  0.16932478020E+03 -0.14039922254E+03  0.27858548481E+03  0.00000000000E+00 0.  1.
        -13    1    5    5    0    0 -0.58313031456E+03  0.40325458909E+03 -0.30156196423E+03  0.77045106635E+03  0.00000000000E+00 0. -1.
          2    1    6    6  503    0  0.20227639778E+03  0.29267621150E+02 -0.28160964186E+03  0.34796023499E+03  0.00000000000E+00 0. -1.
         -2    1    6    6    0  503  0.85569979415E+01 -0.94059893457E+01  0.38733610755E+01  0.13292771546E+02  0.00000000000E+00 0.  1.
<mgrwt>
<rscale>  0 0.23524047E+04</rscale>
<asrwt>0</asrwt>
<pdfrwt beam="1">  1        2 0.50925247E+00 0.23524047E+04</pdfrwt>
<pdfrwt beam="2">  1       -1 0.64299001E-01 0.23524047E+04</pdfrwt>
<totfact> 0.27663251E+00</totfact>
</mgrwt>
</event>
<event>
12    7  0.1675873E-007  0.1336395E+04  0.7818608E-02  0.9001191E-01
          2   -1    0    0  501    0  0.00000000000E+00  0.00000000000E+00  0.33960204680E+03  0.33960204680E+03  0.00000000000E+00 0. -1.
         -1   -1    0    0    0  501 -0.00000000000E+00 -0.00000000000E+00 -0.13147390109E+04  0.13147390109E+04  0.00000000000E+00 0.  1.
         24    2    1    2    0    0 -0.59848253735E+02 -0.10772993129E+03  0.14840986519E+03  0.20738199369E+03  0.76119981920E+02 0.  0.
        254    2    1    2    0    0  0.59848253735E+02  0.10772993129E+03 -0.11235468293E+04  0.14469590640E+04  0.90340771734E+03 0.  0.
         23    2    4    4    0    0 -0.66490012195E+02  0.26530171484E+03  0.13022162328E+02  0.28909974431E+03  0.92753241604E+02 0.  0.
         23    2    4    4    0    0  0.12633826593E+03 -0.15757178355E+03 -0.11365689916E+04  0.11578593197E+04  0.89771415917E+02 0.  0.
          2    1    3    3  502    0 -0.74119389921E+02 -0.63216224879E+02  0.90575914210E+02  0.13301868773E+03  0.00000000000E+00 0. -1.
         -1    1    3    3    0  502  0.14271136186E+02 -0.44513706414E+02  0.57833950983E+02  0.74363305958E+02  0.00000000000E+00 0.  1.
         13    1    5    5    0    0 -0.50300433216E+02  0.26631979989E+03  0.51699954187E+01  0.27107766092E+03  0.00000000000E+00 0. -1.
        -13    1    5    5    0    0 -0.16189578979E+02 -0.10180850470E+01  0.78521669098E+01  0.18022083394E+02  0.00000000000E+00 0.  1.
          4    1    6    6  503    0  0.10494754319E+03 -0.59516780813E+02 -0.62538200587E+03  0.63691356343E+03  0.00000000000E+00 0.  1.
         -4    1    6    6    0  503  0.21390722740E+02 -0.98055002737E+02 -0.51118698572E+03  0.52094575624E+03  0.00000000000E+00 0. -1.
<mgrwt>
<rscale>  0 0.13363952E+04</rscale>
<asrwt>0</asrwt>
<pdfrwt beam="1">  1        2 0.52246469E-01 0.13363952E+04</pdfrwt>
<pdfrwt beam="2">  1       -1 0.20226754E+00 0.13363952E+04</pdfrwt>
<totfact> 0.15536152E+01</totfact>
</mgrwt>
</event>
<event>
12    7  0.1675873E-007  0.1629310E+04  0.7818608E-02  0.8802742E-01
          2   -1    0    0  501    0  0.00000000000E+00  0.00000000000E+00  0.27185878259E+04  0.27185878259E+04  0.00000000000E+00 0. -1.
         -1   -1    0    0    0  501 -0.00000000000E+00 -0.00000000000E+00 -0.24412028802E+03  0.24412028802E+03  0.00000000000E+00 0.  1.
         24    2    1    2    0    0  0.47318388774E+01  0.82329937069E+02 -0.15142505930E+03  0.18954911626E+03  0.78731887149E+02 0.  0.
        254    2    1    2    0    0 -0.47318388774E+01 -0.82329937069E+02  0.26258925972E+04  0.27731589977E+04  0.88786163649E+03 0.  0.
         23    2    4    4    0    0  0.12424247068E+03  0.14338734695E+03  0.10092569186E+03  0.23323084428E+03  0.90633926640E+02 0.  0.
         23    2    4    4    0    0 -0.12897430956E+03 -0.22571728402E+03  0.25249669053E+04  0.25399281534E+04  0.90523403473E+02 0.  0.
          4    1    3    3  502    0  0.32938693260E+02  0.10077976294E+02 -0.63969325511E+02  0.72653958779E+02  0.00000000000E+00 0. -1.
         -3    1    3    3    0  502 -0.28206854383E+02  0.72251960775E+02 -0.87455733787E+02  0.11689515748E+03  0.00000000000E+00 0.  1.
         13    1    5    5    0    0  0.17746141117E+02  0.36952728080E+01  0.45594199930E+02  0.49065381207E+02  0.00000000000E+00 0. -1.
        -13    1    5    5    0    0  0.10649632956E+03  0.13969207414E+03  0.55331491931E+02  0.18416546307E+03  0.00000000000E+00 0.  1.
          4    1    6    6  503    0 -0.34484869461E+02 -0.35649918704E+02  0.23688193550E+03  0.24201895441E+03  0.00000000000E+00 0. -1.
         -4    1    6    6    0  503 -0.94489440097E+02 -0.19006736531E+03  0.22880849698E+04  0.22979091990E+04  0.00000000000E+00 0.  1.
<mgrwt>
<rscale>  0 0.16293096E+04</rscale>
<asrwt>0</asrwt>
<pdfrwt beam="1">  1        2 0.41824426E+00 0.16293096E+04</pdfrwt>
<pdfrwt beam="2">  1       -1 0.37556969E-01 0.16293096E+04</pdfrwt>
<totfact> 0.19333874E+01</totfact>
</mgrwt>
</event>
<event>
12    7  0.1814010E-007  0.1733689E+04  0.7818608E-02  0.8742380E-01
         -1   -1    0    0    0  501 -0.00000000000E+00  0.00000000000E+00  0.30262092795E+03  0.30262092795E+03  0.00000000000E+00 0.  1.
          2   -1    0    0  501    0  0.00000000000E+00 -0.00000000000E+00 -0.24830395565E+04  0.24830395565E+04  0.00000000000E+00 0. -1.
         24    2    1    2    0    0 -0.50665769995E+03  0.34921457142E+01 -0.14099662283E+04  0.15006877451E+04  0.85701362124E+02 0.  0.
        254    2    1    2    0    0  0.50665769995E+03 -0.34921457142E+01 -0.77045240033E+03  0.12849727394E+04  0.89489877627E+03 0.  0.
         23    2    4    4    0    0  0.43912013658E+03  0.15682998753E+03  0.14663404730E+02  0.47529314665E+03  0.90919857439E+02 0.  0.
         23    2    4    4    0    0  0.67537563370E+02 -0.16032213325E+03 -0.78511580506E+03  0.80967959272E+03  0.94391242447E+02 0.  0.
          2    1    3    3  502    0 -0.45294491685E+03  0.16135225200E+02 -0.13142343239E+04  0.13901911024E+04  0.00000000000E+00 0. -1.
         -1    1    3    3    0  502 -0.53712783103E+02 -0.12643079486E+02 -0.95731904376E+02  0.11049664268E+03  0.00000000000E+00 0.  1.
         13    1    5    5    0    0  0.59991348289E+02 -0.64092677469E+01 -0.12530825346E+02  0.61620306445E+02  0.00000000000E+00 0.  1.
        -13    1    5    5    0    0  0.37912878829E+03  0.16323925528E+03  0.27194230076E+02  0.41367284021E+03  0.00000000000E+00 0. -1.
          1    1    6    6  503    0  0.77583147192E+02 -0.12671027843E+03 -0.47778359044E+03  0.50035167501E+03  0.00000000000E+00 0. -1.
         -1    1    6    6    0  503 -0.10045583822E+02 -0.33611854812E+02 -0.30733221461E+03  0.30932791771E+03  0.00000000000E+00 0.  1.
<mgrwt>
<rscale>  0 0.17336894E+04</rscale>
<asrwt>0</asrwt>
<pdfrwt beam="1">  1        2 0.38200609E+00 0.17336894E+04</pdfrwt>
<pdfrwt beam="2">  1       -1 0.46557066E-01 0.17336894E+04</pdfrwt>
<totfact> 0.17705009E+01</totfact>
</mgrwt>
</event>
<event>
12    7  0.1675873E-007  0.2086004E+04  0.7818608E-02  0.8567434E-01
         -1   -1    0    0    0  501 -0.00000000000E+00  0.00000000000E+00  0.77854127882E+03  0.77854127882E+03  0.00000000000E+00 0.  1.
          2   -1    0    0  501    0  0.00000000000E+00 -0.00000000000E+00 -0.13972969312E+04  0.13972969312E+04  0.00000000000E+00 0. -1.
         24    2    1    2    0    0 -0.80622182913E+03  0.13039886374E+03 -0.28156841823E+02  0.82093450368E+03  0.78378250547E+02 0.  0.
        254    2    1    2    0    0  0.80622182913E+03 -0.13039886374E+03 -0.59059881054E+03  0.13549037063E+04  0.90551620470E+03 0.  0.
         23    2    4    4    0    0  0.84773090013E+03 -0.23260477913E+03 -0.73696575720E+03  0.11503610332E+04  0.86367338516E+02 0.  0.
         23    2    4    4    0    0 -0.41509071002E+02  0.10220591539E+03  0.14636694666E+03  0.20454267310E+03  0.90804019351E+02 0.  0.
          4    1    3    3  502    0 -0.40682581443E+03  0.10206056448E+03 -0.30341007031E+02  0.42052845185E+03  0.00000000000E+00 0. -1.
         -3    1    3    3    0  502 -0.39939601470E+03  0.28338299264E+02  0.21841652081E+01  0.40040605183E+03  0.00000000000E+00 0.  1.
         13    1    5    5    0    0  0.50784502399E+03 -0.16470686388E+03 -0.40157858598E+03  0.66805709345E+03  0.00000000000E+00 0.  1.
        -13    1    5    5    0    0  0.33988587615E+03 -0.67897915253E+02 -0.33538717122E+03  0.48230393977E+03  0.00000000000E+00 0. -1.
          4    1    6    6  503    0 -0.12973334553E+02  0.16699463751E+02 -0.10507944984E+02  0.23613479345E+02  0.00000000000E+00 0. -1.
         -4    1    6    6    0  503 -0.28535736449E+02  0.85506451635E+02  0.15687489164E+03  0.18092919376E+03  0.00000000000E+00 0.  1.
<mgrwt>
<rscale>  0 0.20860042E+04</rscale>
<asrwt>0</asrwt>
<pdfrwt beam="1">  1        2 0.21496876E+00 0.20860042E+04</pdfrwt>
<pdfrwt beam="2">  1       -1 0.11977558E+00 0.20860042E+04</pdfrwt>
<totfact> 0.94963850E+00</totfact>
</mgrwt>
</event>
<event>
12    7  0.1675873E-007  0.1282623E+04  0.7818608E-02  0.9043460E-01
          2   -1    0    0  501    0  0.00000000000E+00  0.00000000000E+00  0.36144358166E+04  0.36144358166E+04  0.00000000000E+00 0. -1.
         -1   -1    0    0    0  501 -0.00000000000E+00 -0.00000000000E+00 -0.11378823633E+03  0.11378823633E+03  0.00000000000E+00 0.  1.
         24    2    1    2    0    0  0.58075361571E+02 -0.12623606459E+03  0.63884262381E+02  0.17198028634E+03  0.78662114665E+02 0.  0.
        254    2    1    2    0    0 -0.58075361571E+02  0.12623606459E+03  0.34367633179E+04  0.35562437666E+04  0.90344857773E+03 0.  0.
         23    2    4    4    0    0  0.36006637199E+02 -0.23478792992E+03  0.28904299202E+03  0.38518214789E+03  0.91638342701E+02 0.  0.
         23    2    4    4    0    0 -0.94081998770E+02  0.36102399451E+03  0.31477203259E+04  0.31710616187E+04  0.91097709212E+02 0.  0.
          2    1    3    3  502    0 -0.18423014104E+02 -0.17507874017E+02  0.18755654481E+02  0.31586510986E+02  0.00000000000E+00 0. -1.
         -1    1    3    3    0  502  0.76498375675E+02 -0.10872819057E+03  0.45128607900E+02  0.14039377535E+03  0.00000000000E+00 0.  1.
         13    1    5    5    0    0 -0.19478238560E+02 -0.55949550340E+02  0.32499871968E+02  0.67572151354E+02  0.00000000000E+00 0. -1.
        -13    1    5    5    0    0  0.55484875759E+02 -0.17883837958E+03  0.25654312006E+03  0.31760999654E+03  0.00000000000E+00 0.  1.
          4    1    6    6  503    0 -0.96520723924E+02  0.33141533672E+03  0.26397425986E+04  0.26622158745E+04  0.00000000000E+00 0.  1.
         -4    1    6    6    0  503  0.24387251544E+01  0.29608657798E+02  0.50797772730E+03  0.50884574424E+03  0.00000000000E+00 0. -1.
<mgrwt>
<rscale>  0 0.12826227E+04</rscale>
<asrwt>0</asrwt>
<pdfrwt beam="1">  1        2 0.55606696E+00 0.12826227E+04</pdfrwt>
<pdfrwt beam="2">  1       -1 0.17505885E-01 0.12826227E+04</pdfrwt>
<totfact> 0.19708518E+01</totfact>
</mgrwt>
</event>
<event>
12    7  0.1675873E-007  0.1123102E+04  0.7818608E-02  0.9182963E-01
          2   -1    0    0  501    0  0.00000000000E+00  0.00000000000E+00  0.17672673701E+03  0.17672673701E+03  0.00000000000E+00 0. -1.
         -1   -1    0    0    0  501 -0.00000000000E+00 -0.00000000000E+00 -0.17843343368E+04  0.17843343368E+04  0.00000000000E+00 0.  1.
         24    2    1    2    0    0  0.18978105442E+02 -0.77080925449E+02 -0.54294432126E+01  0.12164855137E+03  0.92017681135E+02 0.  0.
        254    2    1    2    0    0 -0.18978105442E+02  0.77080925449E+02 -0.16021781565E+04  0.18394125224E+04  0.90008996482E+03 0.  0.
         23    2    4    4    0    0  0.16590530539E+03  0.27674978029E+03 -0.16273019460E+03  0.37227284575E+03  0.89392081315E+02 0.  0.
         23    2    4    4    0    0 -0.18488341084E+03 -0.19966885484E+03 -0.14394479619E+04  0.14671396767E+04  0.80242560512E+02 0.  0.
          2    1    3    3  502    0  0.30395029481E+02 -0.93334541203E+02  0.66792223665E+01  0.98386007187E+02  0.00000000000E+00 0. -1.
         -1    1    3    3    0  502 -0.11416924039E+02  0.16253615754E+02 -0.12108665579E+02  0.23262544179E+02  0.00000000000E+00 0.  1.
         13    1    5    5    0    0 -0.79023143162E+01  0.40830632918E+02 -0.16015966757E+02  0.44565663320E+02  0.00000000000E+00 0.  1.
        -13    1    5    5    0    0  0.17380761971E+03  0.23591914737E+03 -0.14671422785E+03  0.32770718243E+03  0.00000000000E+00 0. -1.
          1    1    6    6  503    0 -0.19068720648E+03 -0.20134029044E+03 -0.14178102795E+04  0.14446748811E+04  0.00000000000E+00 0. -1.
         -1    1    6    6    0  503  0.58037956421E+01  0.16714356006E+01 -0.21637682397E+02  0.22464795578E+02  0.00000000000E+00 0.  1.
<mgrwt>
<rscale>  0 0.11231021E+04</rscale>
<asrwt>0</asrwt>
<pdfrwt beam="1">  1        2 0.27188729E-01 0.11231021E+04</pdfrwt>
<pdfrwt beam="2">  1       -1 0.27451297E+00 0.11231021E+04</pdfrwt>
<totfact> 0.11016592E+01</totfact>
</mgrwt>
</event>
<event>
12    7  0.1675873E-007  0.2162365E+04  0.7818608E-02  0.8534258E-01
         -1   -1    0    0    0  501 -0.00000000000E+00  0.00000000000E+00  0.43807810509E+03  0.43807810509E+03  0.00000000000E+00 0.  1.
          2   -1    0    0  501    0  0.00000000000E+00 -0.00000000000E+00 -0.26683726004E+04  0.26683726004E+04  0.00000000000E+00 0. -1.
         24    2    1    2    0    0 -0.73445393393E+03 -0.34684990011E+03 -0.39964698593E+03  0.90876718523E+03  0.80079019195E+02 0.  0.
        254    2    1    2    0    0  0.73445393393E+03  0.34684990011E+03 -0.18306475094E+04  0.21976835203E+04  0.90488403534E+03 0.  0.
         23    2    4    4    0    0  0.53497434557E+03 -0.23468554025E+03 -0.96160114442E+03  0.11290481485E+04  0.93798227260E+02 0.  0.
         23    2    4    4    0    0  0.19947958836E+03  0.58153544036E+03 -0.86904636500E+03  0.10686353718E+04  0.93618367911E+02 0.  0.
          2    1    3    3  502    0 -0.30173383689E+03 -0.13622826028E+03 -0.20658855748E+03  0.39023105886E+03  0.00000000000E+00 0. -1.
         -1    1    3    3    0  502 -0.43272009704E+03 -0.21062163983E+03 -0.19305842845E+03  0.51853612636E+03  0.00000000000E+00 0.  1.
         13    1    5    5    0    0  0.97989622548E+02 -0.60102405085E+02 -0.25969456079E+03  0.28399917276E+03  0.00000000000E+00 0. -1.
        -13    1    5    5    0    0  0.43698472302E+03 -0.17458313517E+03 -0.70190658362E+03  0.84504897573E+03  0.00000000000E+00 0.  1.
          2    1    6    6  503    0  0.41313970536E+02  0.49201336761E+02 -0.12085103566E+03  0.13686704687E+03  0.00000000000E+00 0. -1.
         -2    1    6    6    0  503  0.15816561782E+03  0.53233410360E+03 -0.74819532934E+03  0.93176832494E+03  0.00000000000E+00 0.  1.
<mgrwt>
<rscale>  0 0.21623650E+04</rscale>
<asrwt>0</asrwt>
<pdfrwt beam="1">  1        2 0.41051887E+00 0.21623650E+04</pdfrwt>
<pdfrwt beam="2">  1       -1 0.67396630E-01 0.21623650E+04</pdfrwt>
<totfact> 0.64545250E+00</totfact>
</mgrwt>
</event>
<event>
12    7  0.1675873E-007  0.1171448E+04  0.7818608E-02  0.9138222E-01
         -1   -1    0    0    0  501 -0.00000000000E+00  0.00000000000E+00  0.22881945271E+03  0.22881945271E+03  0.00000000000E+00 0.  1.
          2   -1    0    0  501    0  0.00000000000E+00 -0.00000000000E+00 -0.14993154735E+04  0.14993154735E+04  0.00000000000E+00 0. -1.
         24    2    1    2    0    0 -0.25436946355E+01 -0.18526765360E+03 -0.40198297899E+03  0.44951614851E+03  0.78382896890E+02 0.  0.
        254    2    1    2    0    0  0.25436946355E+01  0.18526765360E+03 -0.86851304180E+03  0.12786187777E+04  0.91990244104E+03 0.  0.
         23    2    4    4    0    0  0.18046313068E+03 -0.15877684684E+03 -0.84322071117E+03  0.88136911826E+03  0.89517184067E+02 0.  0.
         23    2    4    4    0    0 -0.17791943605E+03  0.34404450043E+03 -0.25292330621E+02  0.39724965942E+03  0.84531922508E+02 0.  0.
          2    1    3    3  502    0  0.26910262300E+02 -0.15182679503E+03 -0.33838003310E+03  0.37185559658E+03  0.00000000000E+00 0. -1.
         -3    1    3    3    0  502 -0.29453956936E+02 -0.33440858568E+02 -0.63602945888E+02  0.77660551933E+02  0.00000000000E+00 0.  1.
         13    1    5    5    0    0  0.44861449348E+02 -0.82945367647E+02 -0.42203457824E+03  0.43244152076E+03  0.00000000000E+00 0.  1.
        -13    1    5    5    0    0  0.13560168133E+03 -0.75831479190E+02 -0.42118613294E+03  0.44892759750E+03  0.00000000000E+00 0. -1.
          1    1    6    6  503    0 -0.12492005967E+03  0.17717571187E+03  0.15957877728E+02  0.21737273989E+03  0.00000000000E+00 0. -1.
         -1    1    6    6    0  503 -0.52999376374E+02  0.16686878856E+03 -0.41250208349E+02  0.17987691954E+03  0.00000000000E+00 0.  1.
<mgrwt>
<rscale>  0 0.11714479E+04</rscale>
<asrwt>0</asrwt>
<pdfrwt beam="1">  1        2 0.23066392E+00 0.11714479E+04</pdfrwt>
<pdfrwt beam="2">  1       -1 0.35202993E-01 0.11714479E+04</pdfrwt>
<totfact> 0.10983868E+02</totfact>
</mgrwt>
</event>
<event>
12    7  0.1675873E-007  0.1457658E+04  0.7818608E-02  0.8913109E-01
          2   -1    0    0  501    0  0.00000000000E+00  0.00000000000E+00  0.19569354191E+04  0.19569354191E+04  0.00000000000E+00 0. -1.
         -1   -1    0    0    0  501 -0.00000000000E+00 -0.00000000000E+00 -0.27144041272E+03  0.27144041272E+03  0.00000000000E+00 0.  1.
         24    2    1    2    0    0  0.35793619791E+03  0.27272333806E+03  0.47582431234E+03  0.65960065587E+03  0.78536030634E+02 0.  0.
        254    2    1    2    0    0 -0.35793619791E+03 -0.27272333806E+03  0.12096706941E+04  0.15687751760E+04  0.89177128444E+03 0.  0.
         23    2    4    4    0    0 -0.35815167517E+03 -0.98544422617E+02  0.12985243866E+04  0.13534829664E+04  0.88130200857E+02 0.  0.
         23    2    4    4    0    0  0.21547726080E+00 -0.17417891545E+03 -0.88853692471E+02  0.21529220955E+03  0.90096702543E+02 0.  0.
          2    1    3    3  502    0  0.81879401818E+02  0.10547735043E+03  0.12537976535E+03  0.18316602702E+03  0.00000000000E+00 0. -1.
         -1    1    3    3    0  502  0.27605679610E+03  0.16724598764E+03  0.35044454698E+03  0.47643462884E+03  0.00000000000E+00 0.  1.
         13    1    5    5    0    0 -0.10242112355E+03 -0.28292990585E+01  0.25473440384E+03  0.27456822100E+03  0.00000000000E+00 0. -1.
        -13    1    5    5    0    0 -0.25573055162E+03 -0.95715123558E+02  0.10437899827E+04  0.10789147454E+04  0.00000000000E+00 0.  1.
          1    1    6    6  503    0  0.43953866576E+02 -0.10696041578E+03 -0.46931666736E+02  0.12480005719E+03  0.00000000000E+00 0. -1.
         -1    1    6    6    0  503 -0.43738389315E+02 -0.67218499665E+02 -0.41922025734E+02  0.90492152360E+02  0.00000000000E+00 0.  1.
<mgrwt>
<rscale>  0 0.14576575E+04</rscale>
<asrwt>0</asrwt>
<pdfrwt beam="1">  1        2 0.30106698E+00 0.14576575E+04</pdfrwt>
<pdfrwt beam="2">  1       -1 0.41760065E-01 0.14576575E+04</pdfrwt>
<totfact> 0.43876656E+01</totfact>
</mgrwt>
</event>
<event>
12    7  0.1675873E-007  0.2580738E+04  0.7818608E-02  0.8374773E-01
         -1   -1    0    0    0  501 -0.00000000000E+00  0.00000000000E+00  0.74523693831E+03  0.74523693831E+03  0.00000000000E+00 0.  1.
          2   -1    0    0  501    0  0.00000000000E+00 -0.00000000000E+00 -0.22342595429E+04  0.22342595429E+04  0.00000000000E+00 0. -1.
         24    2    1    2    0    0  0.97015116294E+03 -0.87356966904E+01 -0.13150312318E+04  0.16359621875E+04  0.76128490065E+02 0.  0.
        254    2    1    2    0    0 -0.97015116294E+03  0.87356966904E+01 -0.17399137272E+03  0.13435342936E+04  0.91298510888E+03 0.  0.
         23    2    4    4    0    0 -0.83015493341E+03  0.14566607715E+03  0.23655119759E+03  0.88016315097E+03  0.91405053208E+02 0.  0.
         23    2    4    4    0    0 -0.13999622954E+03 -0.13693038046E+03 -0.41054257031E+03  0.46337114267E+03  0.88423641906E+02 0.  0.
          4    1    3    3  502    0  0.38337952258E+03  0.30554191731E+02 -0.54553073596E+03  0.66747074906E+03  0.00000000000E+00 0. -1.
         -3    1    3    3    0  502  0.58677164036E+03 -0.39289888422E+02 -0.76950049588E+03  0.96849143849E+03  0.00000000000E+00 0.  1.
         13    1    5    5    0    0 -0.24141226004E+03  0.74565807678E+01  0.44010333664E+02  0.24550435712E+03  0.00000000000E+00 0. -1.
        -13    1    5    5    0    0 -0.58874267336E+03  0.13820949638E+03  0.19254086392E+03  0.63465879385E+03  0.00000000000E+00 0.  1.
          4    1    6    6  503    0 -0.12924462809E+02 -0.20422670137E+02 -0.14345326648E+03  0.14547496986E+03  0.00000000000E+00 0. -1.
         -4    1    6    6    0  503 -0.12707176673E+03 -0.11650771032E+03 -0.26708930383E+03  0.31789617281E+03  0.00000000000E+00 0.  1.
<mgrwt>
<rscale>  0 0.25807385E+04</rscale>
<asrwt>0</asrwt>
<pdfrwt beam="1">  1        2 0.34373224E+00 0.25807385E+04</pdfrwt>
<pdfrwt beam="2">  1       -1 0.11465184E+00 0.25807385E+04</pdfrwt>
<totfact> 0.34410194E+00</totfact>
</mgrwt>
</event>
<event>
12    7  0.1675873E-007  0.1308793E+04  0.7818608E-02  0.9022621E-01
         -1   -1    0    0    0  501 -0.00000000000E+00  0.00000000000E+00  0.73643670630E+03  0.73643670630E+03  0.00000000000E+00 0.  1.
          2   -1    0    0  501    0  0.00000000000E+00 -0.00000000000E+00 -0.58149578132E+03  0.58149578132E+03  0.00000000000E+00 0. -1.
         24    2    1    2    0    0  0.21201682834E+02  0.25353168375E+03  0.24792978376E+03  0.36395981253E+03  0.79181698882E+02 0.  0.
        254    2    1    2    0    0 -0.21201682834E+02 -0.25353168375E+03 -0.92988858783E+02  0.95397267510E+03  0.91470711758E+03 0.  0.
         23    2    4    4    0    0 -0.10407762972E+03 -0.33036481811E+03 -0.44653657817E+03  0.57237509517E+03  0.90803457396E+02 0.  0.
         23    2    4    4    0    0  0.82875946886E+02  0.76833134361E+02  0.35354771939E+03  0.38159757993E+03  0.88594412993E+02 0.  0.
          4    1    3    3  502    0  0.24967197187E+01  0.41453522852E+02  0.64460450190E+01  0.42025940353E+02  0.00000000000E+00 0. -1.
         -3    1    3    3    0  502  0.18704963116E+02  0.21207816090E+03  0.24148373874E+03  0.32193387217E+03  0.00000000000E+00 0.  1.
         13    1    5    5    0    0 -0.41877542136E+02 -0.26288932881E+03 -0.32604628960E+03  0.42091651274E+03  0.00000000000E+00 0.  1.
        -13    1    5    5    0    0 -0.62200087584E+02 -0.67475489305E+02 -0.12049028857E+03  0.15145858243E+03  0.00000000000E+00 0. -1.
          1    1    6    6  503    0  0.55540844627E+02 -0.64238447528E+01  0.13242999311E+03  0.14374892792E+03  0.00000000000E+00 0. -1.
         -1    1    6    6    0  503  0.27335102259E+02  0.83256979114E+02  0.22111772628E+03  0.23784865201E+03  0.00000000000E+00 0.  1.
<mgrwt>
<rscale>  0 0.13087931E+04</rscale>
<asrwt>0</asrwt>
<pdfrwt beam="1">  1        2 0.89460889E-01 0.13087931E+04</pdfrwt>
<pdfrwt beam="2">  1       -1 0.11329796E+00 0.13087931E+04</pdfrwt>
<totfact> 0.41042664E+01</totfact>
</mgrwt>
</event>
<event>
12    7  0.1675873E-007  0.4407544E+04  0.7818608E-02  0.7927026E-01
          2   -1    0    0  501    0  0.00000000000E+00  0.00000000000E+00  0.27778114011E+04  0.27778114011E+04  0.00000000000E+00 0. -1.
         -1   -1    0    0    0  501 -0.00000000000E+00 -0.00000000000E+00 -0.17483591357E+04  0.17483591357E+04  0.00000000000E+00 0.  1.
         24    2    1    2    0    0  0.18788149151E+04 -0.86803643072E+02  0.14731099854E+04  0.23904242841E+04  0.81208813711E+02 0.  0.
        254    2    1    2    0    0 -0.18788149151E+04  0.86803643072E+02 -0.44365771993E+03  0.21357462527E+04  0.90945012279E+03 0.  0.
         23    2    4    4    0    0 -0.17315481655E+04  0.22710769142E+03 -0.61594629050E+03  0.18540046590E+04  0.90036048042E+02 0.  0.
         23    2    4    4    0    0 -0.14726674955E+03 -0.14030404834E+03  0.17228857056E+03  0.28174159364E+03  0.91226380701E+02 0.  0.
          4    1    3    3  502    0  0.16304795367E+04 -0.10276898756E+03  0.12759764304E+04  0.20729546149E+04  0.00000000000E+00 0. -1.
         -3    1    3    3    0  502  0.24833537836E+03  0.15965344483E+02  0.19713355499E+03  0.31746966922E+03  0.00000000000E+00 0.  1.
         13    1    5    5    0    0 -0.95606224762E+03  0.10142668204E+03 -0.37915966823E+03  0.10334913871E+04  0.00000000000E+00 0.  1.
        -13    1    5    5    0    0 -0.77548591791E+03  0.12568100937E+03 -0.23678662227E+03  0.82051327197E+03  0.00000000000E+00 0. -1.
          1    1    6    6  503    0 -0.99621235730E+02 -0.13370608756E+03  0.98498382515E+02  0.19365856505E+03  0.00000000000E+00 0. -1.
         -1    1    6    6    0  503 -0.47645513817E+02 -0.65979607842E+01  0.73790188048E+02  0.88083028590E+02  0.00000000000E+00 0.  1.
<mgrwt>
<rscale>  0 0.44075444E+04</rscale>
<asrwt>0</asrwt>
<pdfrwt beam="1">  1        2 0.42735560E+00 0.44075444E+04</pdfrwt>
<pdfrwt beam="2">  1       -1 0.26897833E+00 0.44075444E+04</pdfrwt>
<totfact> 0.10852400E-01</totfact>
</mgrwt>
</event>
<event>
12    7  0.1675873E-007  0.1624660E+04  0.7818608E-02  0.8805540E-01
         -1   -1    0    0    0  501 -0.00000000000E+00  0.00000000000E+00  0.38186377715E+03  0.38186377715E+03  0.00000000000E+00 0.  1.
          2   -1    0    0  501    0  0.00000000000E+00 -0.00000000000E+00 -0.17280502496E+04  0.17280502496E+04  0.00000000000E+00 0. -1.
         24    2    1    2    0    0  0.21293909037E+03  0.92320681145E+02  0.19257739048E+03  0.31218636009E+03  0.80672843792E+02 0.  0.
        254    2    1    2    0    0 -0.21293909037E+03 -0.92320681145E+02 -0.15387638630E+04  0.17977276667E+04  0.90009131386E+03 0.  0.
         23    2    4    4    0    0 -0.15109133870E+03 -0.48727366465E+03 -0.90051878870E+03  0.10394261445E+04  0.95960430497E+02 0.  0.
         23    2    4    4    0    0 -0.61847751674E+02  0.39495298351E+03 -0.63824507426E+03  0.75830152217E+03  0.88608239741E+02 0.  0.
          2    1    3    3  502    0  0.15984713620E+03  0.86107399953E+02  0.10544067657E+03  0.20996029994E+03  0.00000000000E+00 0. -1.
         -1    1    3    3    0  502  0.53091954174E+02  0.62132811921E+01  0.87136713914E+02  0.10222606015E+03  0.00000000000E+00 0.  1.
         13    1    5    5    0    0 -0.12476069116E+03 -0.38137037590E+03 -0.62097097665E+03  0.73933317761E+03  0.00000000000E+00 0.  1.
        -13    1    5    5    0    0 -0.26330647536E+02 -0.10590328875E+03 -0.27954781205E+03  0.30009296691E+03  0.00000000000E+00 0. -1.
          1    1    6    6  503    0  0.19346741063E+02  0.31332403065E+02 -0.61476843911E+02  0.71661832302E+02  0.00000000000E+00 0. -1.
         -1    1    6    6    0  503 -0.81194492737E+02  0.36362058044E+03 -0.57676823035E+03  0.68663968987E+03  0.00000000000E+00 0.  1.
<mgrwt>
<rscale>  0 0.16246597E+04</rscale>
<asrwt>0</asrwt>
<pdfrwt beam="1">  1        2 0.26585388E+00 0.16246597E+04</pdfrwt>
<pdfrwt beam="2">  1       -1 0.58748275E-01 0.16246597E+04</pdfrwt>
<totfact> 0.30289598E+01</totfact>
</mgrwt>
</event>
<event>
12    7  0.1675873E-007  0.1908322E+04  0.7818608E-02  0.8650725E-01
         -1   -1    0    0    0  501 -0.00000000000E+00  0.00000000000E+00  0.88273240920E+03  0.88273240920E+03  0.00000000000E+00 0.  1.
          2   -1    0    0  501    0  0.00000000000E+00 -0.00000000000E+00 -0.10313695022E+04  0.10313695022E+04  0.00000000000E+00 0. -1.
         24    2    1    2    0    0  0.56022151499E+03  0.19870464353E+03  0.36864805683E+03  0.70366147622E+03  0.76853120259E+02 0.  0.
        254    2    1    2    0    0 -0.56022151499E+03 -0.19870464353E+03 -0.51728514983E+03  0.12104404352E+04  0.91883101802E+03 0.  0.
         23    2    4    4    0    0  0.10267959945E+03 -0.94295840388E+02  0.17499943584E+03  0.24194745674E+03  0.92081288121E+02 0.  0.
         23    2    4    4    0    0 -0.66290111444E+03 -0.10440880314E+03 -0.69228458567E+03  0.96849297844E+03  0.91551166208E+02 0.  0.
          2    1    3    3  502    0  0.13370526006E+03  0.70009425710E+02  0.63912123429E+02  0.16389989560E+03  0.00000000000E+00 0. -1.
         -1    1    3    3    0  502  0.42651625493E+03  0.12869521782E+03  0.30473593340E+03  0.53976158062E+03  0.00000000000E+00 0.  1.
         13    1    5    5    0    0  0.79017467900E+02 -0.10395726008E+03  0.17238166344E+03  0.21625519658E+03  0.00000000000E+00 0. -1.
        -13    1    5    5    0    0  0.23662131552E+02  0.96614196958E+01  0.26177724043E+01  0.25692260167E+02  0.00000000000E+00 0.  1.
          3    1    6    6  503    0 -0.56161921635E+03 -0.10907944537E+03 -0.62213165543E+03  0.84519954228E+03  0.00000000000E+00 0. -1.
         -3    1    6    6    0  503 -0.10128189809E+03  0.46706422329E+01 -0.70152930234E+02  0.12329343616E+03  0.00000000000E+00 0.  1.
<mgrwt>
<rscale>  0 0.19083221E+04</rscale>
<asrwt>0</asrwt>
<pdfrwt beam="1">  1        2 0.15867223E+00 0.19083221E+04</pdfrwt>
<pdfrwt beam="2">  1       -1 0.13580499E+00 0.19083221E+04</pdfrwt>
<totfact> 0.11650246E+01</totfact>
</mgrwt>
</event>
<event>
12    7  0.1675873E-007  0.1387470E+04  0.7818608E-02  0.8962939E-01
          2   -1    0    0  501    0  0.00000000000E+00  0.00000000000E+00  0.91525126249E+03  0.91525126249E+03  0.00000000000E+00 0. -1.
         -1   -1    0    0    0  501 -0.00000000000E+00 -0.00000000000E+00 -0.52583186078E+03  0.52583186078E+03  0.00000000000E+00 0.  1.
         24    2    1    2    0    0  0.30045651645E+03 -0.20900826847E+03  0.30743716052E+03  0.48499797228E+03  0.82139216480E+02 0.  0.
        254    2    1    2    0    0 -0.30045651645E+03  0.20900826847E+03  0.81982241195E+02  0.95608515099E+03  0.87944252428E+03 0.  0.
         23    2    4    4    0    0  0.32552036479E+02  0.18382933297E+03  0.42212287738E+03  0.47041240325E+03  0.90814353406E+02 0.  0.
         23    2    4    4    0    0 -0.33300855293E+03  0.25178935501E+02 -0.34014063619E+03  0.48567274774E+03  0.93025213763E+02 0.  0.
          4    1    3    3  502    0  0.22078764930E+03 -0.11475260243E+03  0.23290956462E+03  0.34082577828E+03  0.00000000000E+00 0. -1.
         -3    1    3    3    0  502  0.79668867145E+02 -0.94255666035E+02  0.74527595900E+02  0.14417219400E+03  0.00000000000E+00 0.  1.
         13    1    5    5    0    0  0.29384541429E+02  0.12088746716E+03  0.17078015254E+03  0.21128911825E+03  0.00000000000E+00 0. -1.
        -13    1    5    5    0    0  0.31674950502E+01  0.62941865809E+02  0.25134272484E+03  0.25912328500E+03  0.00000000000E+00 0.  1.
          3    1    6    6  503    0 -0.20134838231E+03 -0.29454651376E+02 -0.21439191238E+03  0.29558863246E+03  0.00000000000E+00 0. -1.
         -3    1    6    6    0  503 -0.13166017062E+03  0.54633586876E+02 -0.12574872380E+03  0.19008411528E+03  0.00000000000E+00 0.  1.
<mgrwt>
<rscale>  0 0.13874700E+04</rscale>
<asrwt>0</asrwt>
<pdfrwt beam="1">  1        2 0.14080789E+00 0.13874700E+04</pdfrwt>
<pdfrwt beam="2">  1       -1 0.80897209E-01 0.13874700E+04</pdfrwt>
<totfact> 0.48505188E+01</totfact>
</mgrwt>
</event>
<event>
12    7  0.1675873E-007  0.2058944E+04  0.7818608E-02  0.8579548E-01
          2   -1    0    0  501    0  0.00000000000E+00  0.00000000000E+00  0.59152255176E+03  0.59152255176E+03  0.00000000000E+00 0. -1.
         -1   -1    0    0    0  501 -0.00000000000E+00 -0.00000000000E+00 -0.17916682813E+04  0.17916682813E+04  0.00000000000E+00 0.  1.
         24    2    1    2    0    0  0.19834951741E+03 -0.21963249871E+03  0.41145868656E+03  0.51447973382E+03  0.88375224010E+02 0.  0.
        254    2    1    2    0    0 -0.19834951741E+03  0.21963249871E+03 -0.16116044161E+04  0.18687110992E+04  0.89846057949E+03 0.  0.
         23    2    4    4    0    0  0.16728825180E+03  0.24174369383E+03 -0.11941027907E+03  0.32950545032E+03  0.88823726248E+02 0.  0.
         23    2    4    4    0    0 -0.36563776920E+03 -0.22111195120E+02 -0.14921941370E+04  0.15392056489E+04  0.91273237614E+02 0.  0.
          2    1    3    3  502    0  0.11789504522E+03 -0.70226795794E+02  0.21284889509E+03  0.25325026491E+03  0.00000000000E+00 0. -1.
         -1    1    3    3    0  502  0.80454472181E+02 -0.14940570292E+03  0.19860979147E+03  0.26122946891E+03  0.00000000000E+00 0.  1.
         13    1    5    5    0    0  0.17537751864E+03  0.22068834826E+03 -0.98085661867E+02  0.29846510376E+03  0.00000000000E+00 0.  1.
        -13    1    5    5    0    0 -0.80892668420E+01  0.21055345577E+02 -0.21324617207E+02  0.31040346558E+02  0.00000000000E+00 0. -1.
          3    1    6    6  503    0 -0.56903832048E+02  0.22602723935E+02 -0.34305250294E+03  0.34847374220E+03  0.00000000000E+00 0. -1.
         -3    1    6    6    0  503 -0.30873393715E+03 -0.44713919056E+02 -0.11491416341E+04  0.11907319067E+04  0.00000000000E+00 0.  1.
<mgrwt>
<rscale>  0 0.20589436E+04</rscale>
<asrwt>0</asrwt>
<pdfrwt beam="1">  1        2 0.91003470E-01 0.20589436E+04</pdfrwt>
<pdfrwt beam="2">  1       -1 0.27564127E+00 0.20589436E+04</pdfrwt>
<totfact> 0.25308922E+00</totfact>
</mgrwt>
</event>
<event>
12    7  0.1675873E-007  0.1608575E+04  0.7818608E-02  0.8815297E-01
         -1   -1    0    0    0  501 -0.00000000000E+00  0.00000000000E+00  0.49355607241E+03  0.49355607241E+03  0.00000000000E+00 0.  1.
          2   -1    0    0  501    0  0.00000000000E+00 -0.00000000000E+00 -0.13106482008E+04  0.13106482008E+04  0.00000000000E+00 0. -1.
         24    2    1    2    0    0 -0.47353954241E+02  0.36038157604E+03 -0.74722140620E+03  0.83484908042E+03  0.80721000205E+02 0.  0.
        254    2    1    2    0    0  0.47353954241E+02 -0.36038157604E+03 -0.69870722205E+02  0.96935519281E+03  0.89590752573E+03 0.  0.
         23    2    4    4    0    0  0.16260701826E+03  0.26379001764E+03  0.11577357875E+02  0.32290091227E+03  0.90026374655E+02 0.  0.
         23    2    4    4    0    0 -0.11525306402E+03 -0.62417159368E+03 -0.81448080080E+02  0.64645428054E+03  0.91629143565E+02 0.  0.
          4    1    3    3  502    0 -0.53693579263E+02  0.32371102534E+03 -0.71027975768E+03  0.78241239928E+03  0.00000000000E+00 0. -1.
         -3    1    3    3    0  502  0.63396250226E+01  0.36670550696E+02 -0.36941648516E+02  0.52436681138E+02  0.00000000000E+00 0.  1.
         13    1    5    5    0    0  0.13375521546E+03  0.25903333898E+03  0.20720036444E+02  0.29226366226E+03  0.00000000000E+00 0. -1.
        -13    1    5    5    0    0  0.28851802803E+02  0.47566786617E+01 -0.91426785695E+01  0.30637250012E+02  0.00000000000E+00 0.  1.
          1    1    6    6  503    0 -0.11995200180E+03 -0.59765210881E+03 -0.60953562810E+02  0.61261069426E+03  0.00000000000E+00 0. -1.
         -1    1    6    6    0  503  0.46989377780E+01 -0.26519484873E+02 -0.20494517269E+02  0.33843586280E+02  0.00000000000E+00 0.  1.
<mgrwt>
<rscale>  0 0.16085750E+04</rscale>
<asrwt>0</asrwt>
<pdfrwt beam="1">  1        2 0.20163818E+00 0.16085750E+04</pdfrwt>
<pdfrwt beam="2">  1       -1 0.75931705E-01 0.16085750E+04</pdfrwt>
<totfact> 0.31017498E+01</totfact>
</mgrwt>
</event>
<event>
12    7  0.1675873E-007  0.2307001E+04  0.7818608E-02  0.8475166E-01
          2   -1    0    0  501    0  0.00000000000E+00  0.00000000000E+00  0.16361807842E+04  0.16361807842E+04  0.00000000000E+00 0. -1.
         -1   -1    0    0    0  501 -0.00000000000E+00 -0.00000000000E+00 -0.81321301157E+03  0.81321301157E+03  0.00000000000E+00 0.  1.
         24    2    1    2    0    0  0.36581832676E+03  0.84930116160E+03  0.18469045263E+02  0.92836680305E+03  0.79926867022E+02 0.  0.
        254    2    1    2    0    0 -0.36581832676E+03 -0.84930116160E+03  0.80449872739E+03  0.15210269927E+04  0.90064943178E+03 0.  0.
         23    2    4    4    0    0 -0.17160773231E+03 -0.72551353249E+03  0.96716015076E+03  0.12248094215E+04  0.94552959564E+02 0.  0.
         23    2    4    4    0    0 -0.19421059445E+03 -0.12378762911E+03 -0.16266142338E+03  0.29621757123E+03  0.90801865250E+02 0.  0.
          2    1    3    3  502    0  0.37438490845E+02  0.69053422341E+02  0.22906010453E+02  0.81821152819E+02  0.00000000000E+00 0. -1.
         -1    1    3    3    0  502  0.32837983592E+03  0.78024773926E+03 -0.44369651893E+01  0.84654565023E+03  0.00000000000E+00 0.  1.
         13    1    5    5    0    0 -0.89698245611E+02 -0.50564666443E+03  0.71577415476E+03  0.88094095439E+03  0.00000000000E+00 0. -1.
        -13    1    5    5    0    0 -0.81909486699E+02 -0.21986686806E+03  0.25138599601E+03  0.34386846711E+03  0.00000000000E+00 0.  1.
          2    1    6    6  503    0 -0.83802818320E+02 -0.10028256955E+03 -0.11350070584E+03  0.17309510779E+03  0.00000000000E+00 0. -1.
         -2    1    6    6    0  503 -0.11040777613E+03 -0.23505059561E+02 -0.49160717535E+02  0.12312246344E+03  0.00000000000E+00 0.  1.
<mgrwt>
<rscale>  0 0.23070011E+04</rscale>
<asrwt>0</asrwt>
<pdfrwt beam="1">  1        2 0.25172012E+00 0.23070011E+04</pdfrwt>
<pdfrwt beam="2">  1       -1 0.12510969E+00 0.23070011E+04</pdfrwt>
<totfact> 0.61333585E+00</totfact>
</mgrwt>
</event>
<event>
12    7  0.1675873E-007  0.2214986E+04  0.7818608E-02  0.8512216E-01
          2   -1    0    0  501    0  0.00000000000E+00  0.00000000000E+00  0.36020280145E+04  0.36020280145E+04  0.00000000000E+00 0. -1.
         -1   -1    0    0    0  501 -0.00000000000E+00 -0.00000000000E+00 -0.34051391407E+03  0.34051391407E+03  0.00000000000E+00 0.  1.
         24    2    1    2    0    0  0.56658019580E+03  0.25949230405E+02  0.26536097391E+04  0.27147273775E+04  0.80084991813E+02 0.  0.
        254    2    1    2    0    0 -0.56658019580E+03 -0.25949230405E+02  0.60790436138E+03  0.12278145511E+04  0.90349010981E+03 0.  0.
         23    2    4    4    0    0 -0.77168679036E+03  0.19170890786E+02  0.62598431274E+03  0.99812094426E+03  0.92309447490E+02 0.  0.
         23    2    4    4    0    0  0.20510659456E+03 -0.45120121191E+02 -0.18079951359E+02  0.22969360686E+03  0.91256385645E+02 0.  0.
          4    1    3    3  502    0  0.50524529014E+03  0.96878901942E+01  0.22412057687E+04  0.22974703384E+04  0.00000000000E+00 0. -1.
         -3    1    3    3    0  502  0.61334905658E+02  0.16261340211E+02  0.41240397039E+03  0.41725703904E+03  0.00000000000E+00 0.  1.
         13    1    5    5    0    0 -0.62525328223E+03  0.31994186146E+02  0.54635273381E+03  0.83094320181E+03  0.00000000000E+00 0.  1.
        -13    1    5    5    0    0 -0.14643350813E+03 -0.12823295361E+02  0.79631578923E+02  0.16717774245E+03  0.00000000000E+00 0. -1.
          2    1    6    6  503    0  0.10221415001E+03 -0.33886478879E+02 -0.53570685121E+02  0.12027403800E+03  0.00000000000E+00 0.  1.
         -2    1    6    6    0  503  0.10289244455E+03 -0.11233642312E+02  0.35490733762E+02  0.10941956885E+03  0.00000000000E+00 0. -1.
<mgrwt>
<rscale>  0 0.22149859E+04</rscale>
<asrwt>0</asrwt>
<pdfrwt beam="1">  1        2 0.55415813E+00 0.22149859E+04</pdfrwt>
<pdfrwt beam="2">  1       -1 0.52386758E-01 0.22149859E+04</pdfrwt>
<totfact> 0.26341966E+00</totfact>
</mgrwt>
</event>
<event>
12    7  0.1675873E-007  0.1684102E+04  0.7818608E-02  0.8770484E-01
          2   -1    0    0  501    0  0.00000000000E+00  0.00000000000E+00  0.13877456770E+04  0.13877456770E+04  0.00000000000E+00 0. -1.
         -1   -1    0    0    0  501 -0.00000000000E+00 -0.00000000000E+00 -0.51093624177E+03  0.51093624177E+03  0.00000000000E+00 0.  1.
         24    2    1    2    0    0 -0.17338863940E+03 -0.46741799308E+03  0.70634557007E+03  0.86830726386E+03  0.80562023200E+02 0.  0.
        254    2    1    2    0    0  0.17338863940E+03  0.46741799308E+03  0.17046386520E+03  0.10303746550E+04  0.88547772401E+03 0.  0.
         23    2    4    4    0    0 -0.15221048406E+03  0.25399536661E+03 -0.28718489220E+03  0.42251141247E+03  0.91427860303E+02 0.  0.
         23    2    4    4    0    0  0.32559912346E+03  0.21342262647E+03  0.45764875741E+03  0.60786324249E+03  0.92148411473E+02 0.  0.
          2    1    3    3  502    0 -0.96758269983E+02 -0.33364126214E+03  0.44056916073E+03  0.56105243962E+03  0.00000000000E+00 0. -1.
         -1    1    3    3    0  502 -0.76630369413E+02 -0.13377673094E+03  0.26577640934E+03  0.30725482424E+03  0.00000000000E+00 0.  1.
         13    1    5    5    0    0  0.64699034762E+01 -0.15542672091E+01 -0.39934022786E-01  0.66540959021E+01  0.00000000000E+00 0. -1.
        -13    1    5    5    0    0 -0.15868038754E+03  0.25554963382E+03 -0.28714495818E+03  0.41585731657E+03  0.00000000000E+00 0.  1.
          4    1    6    6  503    0  0.60776486116E+02  0.37216772569E+02  0.14642322320E+03  0.16284541663E+03  0.00000000000E+00 0. -1.
         -4    1    6    6    0  503  0.26482263734E+03  0.17620585390E+03  0.31122553421E+03  0.44501782587E+03  0.00000000000E+00 0.  1.
<mgrwt>
<rscale>  0 0.16841016E+04</rscale>
<asrwt>0</asrwt>
<pdfrwt beam="1">  1        2 0.21349933E+00 0.16841016E+04</pdfrwt>
<pdfrwt beam="2">  1       -1 0.78605576E-01 0.16841016E+04</pdfrwt>
<totfact> 0.25861831E+01</totfact>
</mgrwt>
</event>
<event>
12    7  0.1675873E-007  0.2556436E+04  0.7818608E-02  0.8383151E-01
          2   -1    0    0  501    0  0.00000000000E+00  0.00000000000E+00  0.22160591828E+04  0.22160591828E+04  0.00000000000E+00 0. -1.
         -1   -1    0    0    0  501 -0.00000000000E+00 -0.00000000000E+00 -0.73727349610E+03  0.73727349610E+03  0.00000000000E+00 0.  1.
         24    2    1    2    0    0 -0.18583370308E+01  0.63320356044E+03  0.17093061553E+04  0.18247149116E+04  0.83107001909E+02 0.  0.
        254    2    1    2    0    0  0.18583370308E+01 -0.63320356044E+03 -0.23052046865E+03  0.11286177672E+04  0.90536632126E+03 0.  0.
         23    2    4    4    0    0  0.22562444136E+03  0.14943577026E+03 -0.72560285486E+02  0.29419765352E+03  0.89720824425E+02 0.  0.
         23    2    4    4    0    0 -0.22376610433E+03 -0.78263933070E+03 -0.15796018317E+03  0.83442011371E+03  0.93326926981E+02 0.  0.
          2    1    3    3  502    0 -0.24256001918E+02  0.37020182205E+03  0.10935909358E+04  0.11548068573E+04  0.00000000000E+00 0. -1.
         -1    1    3    3    0  502  0.22397664887E+02  0.26300173839E+03  0.61571521949E+03  0.66990805436E+03  0.00000000000E+00 0.  1.
         13    1    5    5    0    0  0.10610363520E+03  0.20558007469E+02 -0.14267090898E+02  0.10901450801E+03  0.00000000000E+00 0.  1.
        -13    1    5    5    0    0  0.11952080616E+03  0.12887776279E+03 -0.58293194587E+02  0.18518314551E+03  0.00000000000E+00 0. -1.
          2    1    6    6  503    0 -0.16515302361E+03 -0.68342645154E+03 -0.12121854410E+03  0.71347121267E+03  0.00000000000E+00 0. -1.
         -2    1    6    6    0  503 -0.58613080724E+02 -0.99212879157E+02 -0.36741639067E+02  0.12094890104E+03  0.00000000000E+00 0.  1.
<mgrwt>
<rscale>  0 0.25564363E+04</rscale>
<asrwt>0</asrwt>
<pdfrwt beam="1">  1        2 0.34093218E+00 0.25564363E+04</pdfrwt>
<pdfrwt beam="2">  1       -1 0.11342669E+00 0.25564363E+04</pdfrwt>
<totfact> 0.36226471E+00</totfact>
</mgrwt>
</event>
<event>
12    7  0.1675873E-007  0.2126066E+04  0.7818608E-02  0.8549847E-01
         -1   -1    0    0    0  501 -0.00000000000E+00  0.00000000000E+00  0.85227786843E+03  0.85227786843E+03  0.00000000000E+00 0.  1.
          2   -1    0    0  501    0  0.00000000000E+00 -0.00000000000E+00 -0.13259041994E+04  0.13259041994E+04  0.00000000000E+00 0. -1.
         24    2    1    2    0    0  0.71779001029E+03 -0.37221929292E+02  0.30978688190E+03  0.78724173566E+03  0.84697504490E+02 0.  0.
        254    2    1    2    0    0 -0.71779001029E+03  0.37221929292E+02 -0.78341321286E+03  0.13909403322E+04  0.89686720012E+03 0.  0.
         23    2    4    4    0    0 -0.20293503601E+03  0.43642099424E+03 -0.37617413080E+03  0.61725493829E+03  0.88604565963E+02 0.  0.
         23    2    4    4    0    0 -0.51485497428E+03 -0.39919906495E+03 -0.40723908206E+03  0.77368539387E+03  0.91158547221E+02 0.  0.
          4    1    3    3  502    0  0.50383350600E+03 -0.50918722418E+02  0.18474271291E+03  0.53904618358E+03  0.00000000000E+00 0. -1.
         -3    1    3    3    0  502  0.21395650429E+03  0.13696793126E+02  0.12504416899E+03  0.24819555207E+03  0.00000000000E+00 0.  1.
         13    1    5    5    0    0 -0.58620708987E+02  0.13744062144E+03 -0.17055164759E+03  0.22674694362E+03  0.00000000000E+00 0. -1.
        -13    1    5    5    0    0 -0.14431432702E+03  0.29898037280E+03 -0.20562248321E+03  0.39050799468E+03  0.00000000000E+00 0.  1.
          1    1    6    6  503    0 -0.25025817428E+02 -0.25260537904E+02 -0.50073360976E+02  0.61414394018E+02  0.00000000000E+00 0. -1.
         -1    1    6    6    0  503 -0.48982915685E+03 -0.37393852704E+03 -0.35716572109E+03  0.71227099985E+03  0.00000000000E+00 0.  1.
<mgrwt>
<rscale>  0 0.21260657E+04</rscale>
<asrwt>0</asrwt>
<pdfrwt beam="1">  1        2 0.20398526E+00 0.21260657E+04</pdfrwt>
<pdfrwt beam="2">  1       -1 0.13111967E+00 0.21260657E+04</pdfrwt>
<totfact> 0.83050656E+00</totfact>
</mgrwt>
</event>
<event>
12    7  0.1675873E-007  0.1616129E+04  0.7818608E-02  0.8810700E-01
          2   -1    0    0  501    0  0.00000000000E+00  0.00000000000E+00  0.19740522885E+04  0.19740522885E+04  0.00000000000E+00 0. -1.
         -1   -1    0    0    0  501 -0.00000000000E+00 -0.00000000000E+00 -0.33077544838E+03  0.33077544838E+03  0.00000000000E+00 0.  1.
         24    2    1    2    0    0  0.14239533151E+03  0.16771734835E+03 -0.15551356311E+03  0.28102213540E+03  0.79896388540E+02 0.  0.
        254    2    1    2    0    0 -0.14239533151E+03 -0.16771734835E+03  0.17987904032E+04  0.20238056014E+04  0.90096429364E+03 0.  0.
         23    2    4    4    0    0 -0.33988561739E+02  0.34475542702E+03  0.45560965884E+03  0.57913574914E+03  0.88354557947E+02 0.  0.
         23    2    4    4    0    0 -0.10840676978E+03 -0.51247277537E+03  0.13431807443E+04  0.14446698523E+04  0.92499172544E+02 0.  0.
          4    1    3    3  502    0  0.21634427121E+01  0.38567866145E+02 -0.67682357759E+01  0.39216958052E+02  0.00000000000E+00 0. -1.
         -3    1    3    3    0  502  0.14023188880E+03  0.12914948220E+03 -0.14874532734E+03  0.24180517735E+03  0.00000000000E+00 0.  1.
         13    1    5    5    0    0 -0.22758547314E+02  0.12588779731E+03  0.23851526539E+03  0.27065701692E+03  0.00000000000E+00 0.  1.
        -13    1    5    5    0    0 -0.11230014425E+02  0.21886762971E+03  0.21709439345E+03  0.30847873221E+03  0.00000000000E+00 0. -1.
          2    1    6    6  503    0 -0.79639506912E+02 -0.43858964155E+03  0.12121926896E+04  0.12915550477E+04  0.00000000000E+00 0. -1.
         -2    1    6    6    0  503 -0.28767262864E+02 -0.73883133819E+02  0.13098805479E+03  0.15311480455E+03  0.00000000000E+00 0.  1.
<mgrwt>
<rscale>  0 0.16161287E+04</rscale>
<asrwt>0</asrwt>
<pdfrwt beam="1">  1        2 0.30370035E+00 0.16161287E+04</pdfrwt>
<pdfrwt beam="2">  1       -1 0.50888532E-01 0.16161287E+04</pdfrwt>
<totfact> 0.29248561E+01</totfact>
</mgrwt>
</event>
<event>
12    7  0.1675873E-007  0.1608559E+04  0.7818608E-02  0.8815307E-01
          2   -1    0    0  501    0  0.00000000000E+00  0.00000000000E+00  0.36242913856E+03  0.36242913856E+03  0.00000000000E+00 0. -1.
         -1   -1    0    0    0  501 -0.00000000000E+00 -0.00000000000E+00 -0.17848061680E+04  0.17848061680E+04  0.00000000000E+00 0.  1.
         24    2    1    2    0    0 -0.92489503504E+02 -0.44927142725E+03 -0.82613444384E+03  0.94834354567E+03  0.80363161376E+02 0.  0.
        254    2    1    2    0    0  0.92489503504E+02  0.44927142725E+03 -0.59624258564E+03  0.11988917609E+04  0.93350795920E+03 0.  0.
         23    2    4    4    0    0  0.46570488735E+03  0.62725938672E+02 -0.17340768069E+03  0.50910307548E+03  0.91105061605E+02 0.  0.
         23    2    4    4    0    0 -0.37321538385E+03  0.38654548858E+03 -0.42283490495E+03  0.68978868545E+03  0.91169820955E+02 0.  0.
          4    1    3    3  502    0 -0.95526421335E+02 -0.35261611176E+03 -0.60107407073E+03  0.70338713235E+03  0.00000000000E+00 0. -1.
         -3    1    3    3    0  502  0.30369178303E+01 -0.96655315490E+02 -0.22506037311E+03  0.24495641332E+03  0.00000000000E+00 0.  1.
         13    1    5    5    0    0  0.29585644941E+03  0.14750210551E+02 -0.14683677180E+03  0.33062009153E+03  0.00000000000E+00 0.  1.
        -13    1    5    5    0    0  0.16984843794E+03  0.47975728121E+02 -0.26570908893E+02  0.17848298395E+03  0.00000000000E+00 0. -1.
          2    1    6    6  503    0 -0.59824485318E+02  0.49841097991E+02 -0.10482228374E+03  0.13057877033E+03  0.00000000000E+00 0. -1.
         -2    1    6    6    0  503 -0.31339089853E+03  0.33670439059E+03 -0.31801262121E+03  0.55920991512E+03  0.00000000000E+00 0.  1.
<mgrwt>
<rscale>  0 0.16085593E+04</rscale>
<asrwt>0</asrwt>
<pdfrwt beam="1">  1        2 0.55758329E-01 0.16085593E+04</pdfrwt>
<pdfrwt beam="2">  1       -1 0.27458556E+00 0.16085593E+04</pdfrwt>
<totfact> 0.47059229E+00</totfact>
</mgrwt>
</event>
<event>
12    7  0.1675873E-007  0.1740901E+04  0.7818608E-02  0.8738375E-01
         -3   -1    0    0    0  501 -0.00000000000E+00  0.00000000000E+00  0.10171434793E+04  0.10171434793E+04  0.00000000000E+00 0.  1.
          2   -1    0    0  501    0  0.00000000000E+00 -0.00000000000E+00 -0.74491383438E+03  0.74491383438E+03  0.00000000000E+00 0. -1.
         24    2    1    2    0    0  0.61449147303E+01 -0.37694389970E+03  0.63347961091E+03  0.74140144711E+03  0.79089979472E+02 0.  0.
        254    2    1    2    0    0 -0.61449147303E+01  0.37694389970E+03 -0.36124996597E+03  0.10206558666E+04  0.87699053393E+03 0.  0.
         23    2    4    4    0    0 -0.19306441298E+03 -0.19279998247E+03  0.43773433301E+02  0.29140904259E+03  0.92506301612E+02 0.  0.
         23    2    4    4    0    0  0.18691949825E+03  0.56974388217E+03 -0.40502339927E+03  0.72924682400E+03  0.90608974543E+02 0.  0.
          4    1    3    3  502    0 -0.26306393488E+02 -0.57893590730E+02  0.12483895289E+03  0.14010160008E+03  0.00000000000E+00 0. -1.
         -3    1    3    3    0  502  0.32451308219E+02 -0.31905030897E+03  0.50864065801E+03  0.60129984703E+03  0.00000000000E+00 0.  1.
         13    1    5    5    0    0 -0.16863821072E+03 -0.17100005625E+03  0.69220905274E+02  0.24994279161E+03  0.00000000000E+00 0.  1.
        -13    1    5    5    0    0 -0.24426202269E+02 -0.21799926224E+02 -0.25447471973E+02  0.41466250982E+02  0.00000000000E+00 0. -1.
          4    1    6    6  503    0  0.43731328255E+02  0.97105105671E+02 -0.11407936632E+03  0.15606387294E+03  0.00000000000E+00 0. -1.
         -4    1    6    6    0  503  0.14318817000E+03  0.47263877650E+03 -0.29094403295E+03  0.57318295106E+03  0.00000000000E+00 0.  1.
<mgrwt>
<rscale>  0 0.17409012E+04</rscale>
<asrwt>0</asrwt>
<pdfrwt beam="1">  1        2 0.11460213E+00 0.17409012E+04</pdfrwt>
<pdfrwt beam="2">  1       -3 0.15648361E+00 0.17409012E+04</pdfrwt>
<totfact> 0.65220920E+00</totfact>
</mgrwt>
</event>
<event>
12    7  0.1675873E-007  0.1318319E+04  0.7818608E-02  0.9015163E-01
          2   -1    0    0  501    0  0.00000000000E+00  0.00000000000E+00  0.12463563747E+04  0.12463563747E+04  0.00000000000E+00 0. -1.
         -1   -1    0    0    0  501 -0.00000000000E+00 -0.00000000000E+00 -0.34860932174E+03  0.34860932174E+03  0.00000000000E+00 0.  1.
         24    2    1    2    0    0  0.19502506564E+03  0.27233126388E+03  0.12272888948E+03  0.36555963846E+03  0.79827159803E+02 0.  0.
        254    2    1    2    0    0 -0.19502506564E+03 -0.27233126388E+03  0.77501816347E+03  0.12294060580E+04  0.89363695545E+03 0.  0.
         23    2    4    4    0    0 -0.20692006363E+03 -0.49223218599E+02  0.91925751101E+03  0.94859611207E+03  0.97782280075E+02 0.  0.
         23    2    4    4    0    0  0.11894997988E+02 -0.22310804528E+03 -0.14423934754E+03  0.28080994590E+03  0.90169537512E+02 0.  0.
          4    1    3    3  502    0  0.12796585946E+03  0.21333445048E+03  0.12000006531E+03  0.27620076868E+03  0.00000000000E+00 0. -1.
         -3    1    3    3    0  502  0.67059206189E+02  0.58996813400E+02  0.27288241678E+01  0.89358869774E+02  0.00000000000E+00 0.  1.
         13    1    5    5    0    0 -0.14087318237E+03 -0.35164729637E+02  0.78498176049E+03  0.79829704748E+03  0.00000000000E+00 0.  1.
        -13    1    5    5    0    0 -0.66046881263E+02 -0.14058488962E+02  0.13427575052E+03  0.15029906459E+03  0.00000000000E+00 0. -1.
          2    1    6    6  503    0  0.93080350514E+01 -0.79547830781E+02 -0.10481625720E+03  0.13191264030E+03  0.00000000000E+00 0. -1.
         -2    1    6    6    0  503  0.25869629363E+01 -0.14356021450E+03 -0.39423090343E+02  0.14889730560E+03  0.00000000000E+00 0.  1.
<mgrwt>
<rscale>  0 0.13183193E+04</rscale>
<asrwt>0</asrwt>
<pdfrwt beam="1">  1        2 0.19174713E+00 0.13183193E+04</pdfrwt>
<pdfrwt beam="2">  1       -1 0.53632204E-01 0.13183193E+04</pdfrwt>
<totfact> 0.69583707E+01</totfact>
</mgrwt>
</event>
<event>
12    7  0.1675873E-007  0.1042127E+04  0.7818608E-02  0.9263510E-01
          2   -1    0    0  501    0  0.00000000000E+00  0.00000000000E+00  0.28327543989E+03  0.28327543989E+03  0.00000000000E+00 0. -1.
         -1   -1    0    0    0  501 -0.00000000000E+00 -0.00000000000E+00 -0.95845669074E+03  0.95845669074E+03  0.00000000000E+00 0.  1.
         24    2    1    2    0    0  0.67801554585E+02 -0.87209696559E+02 -0.72322417142E+02  0.15292699669E+03  0.77159265917E+02 0.  0.
        254    2    1    2    0    0 -0.67801554585E+02  0.87209696559E+02 -0.60285883372E+03  0.10888051339E+04  0.89991958770E+03 0.  0.
         23    2    4    4    0    0 -0.10629901623E+03 -0.73943255249E+02 -0.79925519575E+03  0.81554197411E+03  0.97635842590E+02 0.  0.
         23    2    4    4    0    0  0.38497461643E+02  0.16115295181E+03  0.19639636204E+03  0.27326315983E+03  0.92999435847E+02 0.  0.
          2    1    3    3  502    0  0.74742547847E+02 -0.61495601033E+02 -0.27214123014E+02  0.10054235872E+03  0.00000000000E+00 0. -1.
         -1    1    3    3    0  502 -0.69409932617E+01 -0.25714095526E+02 -0.45108294129E+02  0.52384637971E+02  0.00000000000E+00 0.  1.
         13    1    5    5    0    0  0.16508432639E+02 -0.73720846714E+01 -0.45658557522E+02  0.49107839044E+02  0.00000000000E+00 0. -1.
        -13    1    5    5    0    0 -0.12280744887E+03 -0.66571170578E+02 -0.75359663823E+03  0.76643413507E+03  0.00000000000E+00 0.  1.
          1    1    6    6  503    0 -0.23645423771E+02  0.12575639703E+02  0.44174613725E+02  0.51658970925E+02  0.00000000000E+00 0. -1.
         -1    1    6    6    0  503  0.62142885414E+02  0.14857731210E+03  0.15222174831E+03  0.22160418890E+03  0.00000000000E+00 0.  1.
<mgrwt>
<rscale>  0 0.10421271E+04</rscale>
<asrwt>0</asrwt>
<pdfrwt beam="1">  1        2 0.43580837E-01 0.10421271E+04</pdfrwt>
<pdfrwt beam="2">  1       -1 0.14745488E+00 0.10421271E+04</pdfrwt>
<totfact> 0.48840564E+01</totfact>
</mgrwt>
</event>
<event>
12    7  0.1675873E-007  0.1867502E+04  0.7818608E-02  0.8671204E-01
          2   -1    0    0  501    0  0.00000000000E+00  0.00000000000E+00  0.30071052398E+04  0.30071052398E+04  0.00000000000E+00 0. -1.
         -1   -1    0    0    0  501 -0.00000000000E+00 -0.00000000000E+00 -0.28994372601E+03  0.28994372601E+03  0.00000000000E+00 0.  1.
         24    2    1    2    0    0  0.91089316843E+01 -0.11662813463E+03  0.23107823604E+04  0.23152490302E+04  0.83533587272E+02 0.  0.
        254    2    1    2    0    0 -0.91089316843E+01  0.11662813463E+03  0.40637915334E+03  0.98179993558E+03  0.88605981898E+03 0.  0.
         23    2    4    4    0    0 -0.31198056305E+03  0.16177233384E+03 -0.10756632567E+03  0.37677205152E+03  0.82972915254E+02 0.  0.
         23    2    4    4    0    0  0.30287163137E+03 -0.45144199212E+02  0.51394547901E+03  0.60502788406E+03  0.90274920570E+02 0.  0.
          2    1    3    3  502    0  0.16466165647E+02 -0.12094026246E+03  0.16875144330E+04  0.16919227652E+04  0.00000000000E+00 0. -1.
         -1    1    3    3    0  502 -0.73572339626E+01  0.43121278224E+01  0.62326792742E+03  0.62332626504E+03  0.00000000000E+00 0.  1.
         13    1    5    5    0    0 -0.12814754698E+03  0.24664891313E+02 -0.54235054048E+02  0.14132088221E+03  0.00000000000E+00 0.  1.
        -13    1    5    5    0    0 -0.18383301607E+03  0.13710744253E+03 -0.53331271626E+02  0.23545116931E+03  0.00000000000E+00 0. -1.
          2    1    6    6  503    0  0.47597222103E+02  0.24775050721E+02  0.70461011272E+02  0.88566657381E+02  0.00000000000E+00 0.  1.
         -2    1    6    6    0  503  0.25527440926E+03 -0.69919249933E+02  0.44348446774E+03  0.51646122668E+03  0.00000000000E+00 0. -1.
<mgrwt>
<rscale>  0 0.18675024E+04</rscale>
<asrwt>0</asrwt>
<pdfrwt beam="1">  1        2 0.46263155E+00 0.18675024E+04</pdfrwt>
<pdfrwt beam="2">  1       -1 0.44606729E-01 0.18675024E+04</pdfrwt>
<totfact> 0.92019472E+00</totfact>
</mgrwt>
</event>
<event>
12    7  0.1675873E-007  0.1111041E+04  0.7818608E-02  0.9194497E-01
          2   -1    0    0  501    0  0.00000000000E+00  0.00000000000E+00  0.19175042175E+04  0.19175042175E+04  0.00000000000E+00 0. -1.
         -1   -1    0    0    0  501 -0.00000000000E+00 -0.00000000000E+00 -0.16093995520E+03  0.16093995520E+03  0.00000000000E+00 0.  1.
         24    2    1    2    0    0  0.78532954375E+02 -0.97830593523E+02  0.57465720063E+03  0.59368959281E+03  0.80611316987E+02 0.  0.
        254    2    1    2    0    0 -0.78532954375E+02  0.97830593523E+02  0.11819070616E+04  0.14847545798E+04  0.88986156793E+03 0.  0.
         23    2    4    4    0    0 -0.23335845727E+03 -0.34065873254E+03  0.60943548506E+03  0.74172019290E+03  0.90734185757E+02 0.  0.
         23    2    4    4    0    0  0.15482550290E+03  0.43848932606E+03  0.57247157657E+03  0.74303438695E+03  0.90180756212E+02 0.  0.
          4    1    3    3  502    0  0.70763903850E+02 -0.49363911649E+02  0.47296786066E+03  0.48077325537E+03  0.00000000000E+00 0. -1.
         -3    1    3    3    0  502  0.77690505253E+01 -0.48466681875E+02  0.10168933997E+03  0.11291633744E+03  0.00000000000E+00 0.  1.
         13    1    5    5    0    0 -0.27606976920E+00 -0.66865156896E+01  0.46114894476E+02  0.46597952735E+02  0.00000000000E+00 0. -1.
        -13    1    5    5    0    0 -0.23308238750E+03 -0.33397221685E+03  0.56332059059E+03  0.69512224016E+03  0.00000000000E+00 0.  1.
          2    1    6    6  503    0  0.27667440037E-01  0.28445091295E+01  0.30603576627E+02  0.30735499021E+02  0.00000000000E+00 0. -1.
         -2    1    6    6    0  503  0.15479783546E+03  0.43564481693E+03  0.54186799994E+03  0.71229888793E+03  0.00000000000E+00 0.  1.
<mgrwt>
<rscale>  0 0.11110410E+04</rscale>
<asrwt>0</asrwt>
<pdfrwt beam="1">  1        2 0.29500063E+00 0.11110410E+04</pdfrwt>
<pdfrwt beam="2">  1       -1 0.24759994E-01 0.11110410E+04</pdfrwt>
<totfact> 0.11968935E+02</totfact>
</mgrwt>
</event>
<event>
12    7  0.1675873E-007  0.1605557E+04  0.7818608E-02  0.8817141E-01
         -1   -1    0    0    0  501 -0.00000000000E+00  0.00000000000E+00  0.25959897366E+03  0.25959897366E+03  0.00000000000E+00 0.  1.
          2   -1    0    0  501    0  0.00000000000E+00 -0.00000000000E+00 -0.24824957935E+04  0.24824957935E+04  0.00000000000E+00 0. -1.
         24    2    1    2    0    0 -0.47308545562E+03 -0.20967673954E+03 -0.46847516789E+03  0.70275583264E+03  0.81379321422E+02 0.  0.
        254    2    1    2    0    0  0.47308545562E+03  0.20967673954E+03 -0.17544216520E+04  0.20393389346E+04  0.90173930467E+03 0.  0.
         23    2    4    4    0    0  0.41513471978E+03  0.53336447311E+03 -0.13306625433E+04  0.14952145717E+04  0.90494831786E+02 0.  0.
         23    2    4    4    0    0  0.57950735841E+02 -0.32368773357E+03 -0.42375910870E+03  0.54412436285E+03  0.91474058544E+02 0.  0.
          4    1    3    3  502    0 -0.11374719386E+03 -0.44853398147E+02 -0.15966086975E+03  0.20110157823E+03  0.00000000000E+00 0. -1.
         -3    1    3    3    0  502 -0.35933826176E+03 -0.16482334139E+03 -0.30881429814E+03  0.50165425441E+03  0.00000000000E+00 0.  1.
         13    1    5    5    0    0  0.14876928080E+03  0.24842218641E+03 -0.62823573904E+03  0.69175575561E+03  0.00000000000E+00 0. -1.
        -13    1    5    5    0    0  0.26636543899E+03  0.28494228670E+03 -0.70242680426E+03  0.80345881611E+03  0.00000000000E+00 0.  1.
          2    1    6    6  503    0  0.43536679759E+02 -0.47262206158E+02 -0.71723151891E+02  0.96298334007E+02  0.00000000000E+00 0. -1.
         -2    1    6    6    0  503  0.14414056082E+02 -0.27642552741E+03 -0.35203595681E+03  0.44782602884E+03  0.00000000000E+00 0.  1.
<mgrwt>
<rscale>  0 0.16055570E+04</rscale>
<asrwt>0</asrwt>
<pdfrwt beam="1">  1        2 0.38192244E+00 0.16055570E+04</pdfrwt>
<pdfrwt beam="2">  1       -1 0.39938303E-01 0.16055570E+04</pdfrwt>
<totfact> 0.23806910E+01</totfact>
</mgrwt>
</event>
<event>
12    7  0.1675873E-007  0.2118397E+04  0.7818608E-02  0.8553182E-01
         -1   -1    0    0    0  501 -0.00000000000E+00  0.00000000000E+00  0.52955379531E+03  0.52955379531E+03  0.00000000000E+00 0.  1.
          2   -1    0    0  501    0  0.00000000000E+00 -0.00000000000E+00 -0.21185790147E+04  0.21185790147E+04  0.00000000000E+00 0. -1.
         24    2    1    2    0    0  0.37795691705E+03  0.31573265365E+03  0.23727792216E+03  0.55165847599E+03  0.74079160754E+02 0.  0.
        254    2    1    2    0    0 -0.37795691705E+03 -0.31573265365E+03 -0.18263031415E+04  0.20964743340E+04  0.90403701729E+03 0.  0.
         23    2    4    4    0    0 -0.53332684974E+03  0.11632915150E+03 -0.11173349065E+04  0.12470910583E+04  0.93961769188E+02 0.  0.
         23    2    4    4    0    0  0.15536993269E+03 -0.43206180515E+03 -0.70896823497E+03  0.84938327572E+03  0.89435850904E+02 0.  0.
          4    1    3    3  502    0  0.40463430712E+02  0.65955878261E+02  0.26015781074E+02  0.81635090292E+02  0.00000000000E+00 0. -1.
         -3    1    3    3    0  502  0.33749348634E+03  0.24977677539E+03  0.21126214108E+03  0.47002338570E+03  0.00000000000E+00 0.  1.
         13    1    5    5    0    0 -0.23787373440E+03  0.93596934846E+01 -0.52920348706E+03  0.58028255884E+03  0.00000000000E+00 0.  1.
        -13    1    5    5    0    0 -0.29545311535E+03  0.10696945802E+03 -0.58813141948E+03  0.66680849942E+03  0.00000000000E+00 0. -1.
          3    1    6    6  503    0  0.28788278893E+02 -0.58986022789E+02 -0.16633571277E+03  0.17881746343E+03  0.00000000000E+00 0. -1.
         -3    1    6    6    0  503  0.12658165380E+03 -0.37307578236E+03 -0.54263252221E+03  0.67056581229E+03  0.00000000000E+00 0.  1.
<mgrwt>
<rscale>  0 0.21183971E+04</rscale>
<asrwt>0</asrwt>
<pdfrwt beam="1">  1        2 0.32593523E+00 0.21183971E+04</pdfrwt>
<pdfrwt beam="2">  1       -1 0.81469816E-01 0.21183971E+04</pdfrwt>
<totfact> 0.90146968E+00</totfact>
</mgrwt>
</event>
<event>
12    7  0.1675873E-007  0.2911124E+04  0.7818608E-02  0.8269576E-01
          2   -1    0    0  501    0  0.00000000000E+00  0.00000000000E+00  0.18281432307E+04  0.18281432307E+04  0.00000000000E+00 0. -1.
         -1   -1    0    0    0  501 -0.00000000000E+00 -0.00000000000E+00 -0.11589136801E+04  0.11589136801E+04  0.00000000000E+00 0.  1.
         24    2    1    2    0    0  0.57109863066E+03 -0.17591631515E+03  0.15026315744E+04  0.16190516100E+04  0.79537863785E+02 0.  0.
        254    2    1    2    0    0 -0.57109863066E+03  0.17591631515E+03 -0.83340202371E+03  0.13680053007E+04  0.90541668521E+03 0.  0.
         23    2    4    4    0    0 -0.62707424179E+03  0.43927879815E+03 -0.46000779116E+03  0.89835509488E+03  0.96159977907E+02 0.  0.
         23    2    4    4    0    0  0.55975611128E+02 -0.26336248300E+03 -0.37339423255E+03  0.46965020586E+03  0.93032233505E+02 0.  0.
          2    1    3    3  502    0  0.54867810344E+03 -0.16228343309E+03  0.14682654967E+04  0.15758131687E+04  0.00000000000E+00 0. -1.
         -1    1    3    3    0  502  0.22420527219E+02 -0.13632882064E+02  0.34366077651E+02  0.43238441314E+02  0.00000000000E+00 0.  1.
         13    1    5    5    0    0 -0.45082174746E+03  0.36460086316E+03 -0.33292287868E+03  0.66858932130E+03  0.00000000000E+00 0.  1.
        -13    1    5    5    0    0 -0.17625249432E+03  0.74677934985E+02 -0.12708491248E+03  0.22976577358E+03  0.00000000000E+00 0. -1.
          2    1    6    6  503    0  0.25068335328E+02 -0.32642039131E+02 -0.18265178328E+02  0.45028223306E+02  0.00000000000E+00 0. -1.
         -2    1    6    6    0  503  0.30907275799E+02 -0.23072044387E+03 -0.35512905422E+03  0.42462198256E+03  0.00000000000E+00 0.  1.
<mgrwt>
<rscale>  0 0.29111236E+04</rscale>
<asrwt>0</asrwt>
<pdfrwt beam="1">  1        2 0.28125280E+00 0.29111236E+04</pdfrwt>
<pdfrwt beam="2">  1       -1 0.17829441E+00 0.29111236E+04</pdfrwt>
<totfact> 0.17486235E+00</totfact>
</mgrwt>
</event>
<event>
12    7  0.1675873E-007  0.1601957E+04  0.7818608E-02  0.8819347E-01
          2   -1    0    0  501    0  0.00000000000E+00  0.00000000000E+00  0.23895928931E+04  0.23895928931E+04  0.00000000000E+00 0. -1.
         -1   -1    0    0    0  501 -0.00000000000E+00 -0.00000000000E+00 -0.26848361626E+03  0.26848361626E+03  0.00000000000E+00 0.  1.
         24    2    1    2    0    0 -0.27783825552E+03 -0.46166375224E+03  0.77351527288E+03  0.94546274338E+03  0.72432074303E+02 0.  0.
        254    2    1    2    0    0  0.27783825552E+03  0.46166375224E+03  0.13475940040E+04  0.17126137660E+04  0.90923528064E+03 0.  0.
         23    2    4    4    0    0  0.40396539085E+03  0.63062429041E+03  0.71295406871E+03  0.10379086246E+04  0.89865322449E+02 0.  0.
         23    2    4    4    0    0 -0.12612713533E+03 -0.16896053817E+03  0.63463993529E+03  0.67470514145E+03  0.89462074198E+02 0.  0.
          4    1    3    3  502    0 -0.24368806392E+03 -0.39043240295E+03  0.69870536622E+03  0.83666631494E+03  0.00000000000E+00 0. -1.
         -3    1    3    3    0  502 -0.34150191593E+02 -0.71231349290E+02  0.74809906660E+02  0.10879642844E+03  0.00000000000E+00 0.  1.
         13    1    5    5    0    0  0.26735155861E+03  0.33525382029E+03  0.39930872641E+03  0.58593467119E+03  0.00000000000E+00 0. -1.
        -13    1    5    5    0    0  0.13661383223E+03  0.29537047012E+03  0.31364534230E+03  0.45197395337E+03  0.00000000000E+00 0.  1.
          1    1    6    6  503    0  0.12756986280E+02 -0.15258423423E+02  0.34547720981E+02  0.39863582494E+02  0.00000000000E+00 0.  1.
         -1    1    6    6    0  503 -0.13888412161E+03 -0.15370211475E+03  0.60009221431E+03  0.63484155896E+03  0.00000000000E+00 0. -1.
<mgrwt>
<rscale>  0 0.16019570E+04</rscale>
<asrwt>0</asrwt>
<pdfrwt beam="1">  1        2 0.36762966E+00 0.16019570E+04</pdfrwt>
<pdfrwt beam="2">  1       -1 0.41305173E-01 0.16019570E+04</pdfrwt>
<totfact> 0.25308277E+01</totfact>
</mgrwt>
</event>
<event>
12    7  0.1675873E-007  0.1771299E+04  0.7818608E-02  0.8721713E-01
          2   -1    0    0  501    0  0.00000000000E+00  0.00000000000E+00  0.84285609149E+03  0.84285609149E+03  0.00000000000E+00 0. -1.
         -1   -1    0    0    0  501 -0.00000000000E+00 -0.00000000000E+00 -0.93061589591E+03  0.93061589591E+03  0.00000000000E+00 0.  1.
         24    2    1    2    0    0  0.19491652975E+03  0.39885882421E+03 -0.51449820797E+03  0.68414482956E+03  0.79151289275E+02 0.  0.
        254    2    1    2    0    0 -0.19491652975E+03 -0.39885882421E+03  0.42673840355E+03  0.10893271578E+04  0.89858064552E+03 0.  0.
         23    2    4    4    0    0  0.20307944410E+03  0.11851892824E+03 -0.75416212866E+02  0.26072987773E+03  0.83692693901E+02 0.  0.
         23    2    4    4    0    0 -0.39799597384E+03 -0.51737775245E+03  0.50215461642E+03  0.82859728011E+03  0.91288881471E+02 0.  0.
          2    1    3    3  502    0  0.27031394580E+02  0.13667476652E+03 -0.14790136428E+03  0.20318834035E+03  0.00000000000E+00 0. -1.
         -1    1    3    3    0  502  0.16788513517E+03  0.26218405769E+03 -0.36659684369E+03  0.48095648922E+03  0.00000000000E+00 0.  1.
         13    1    5    5    0    0  0.12279800715E+03  0.11607997237E+03 -0.45244599915E+02  0.17493137044E+03  0.00000000000E+00 0. -1.
        -13    1    5    5    0    0  0.80281436948E+02  0.24389558719E+01 -0.30171612950E+02  0.85798507285E+02  0.00000000000E+00 0.  1.
          1    1    6    6  503    0 -0.12036972276E+03 -0.22620313675E+03  0.17899977285E+03  0.31256622964E+03  0.00000000000E+00 0. -1.
         -1    1    6    6    0  503 -0.27762625108E+03 -0.29117461570E+03  0.32315484357E+03  0.51603105046E+03  0.00000000000E+00 0.  1.
<mgrwt>
<rscale>  0 0.17712993E+04</rscale>
<asrwt>0</asrwt>
<pdfrwt beam="1">  1        2 0.12967017E+00 0.17712993E+04</pdfrwt>
<pdfrwt beam="2">  1       -1 0.14317168E+00 0.17712993E+04</pdfrwt>
<totfact> 0.13703532E+01</totfact>
</mgrwt>
</event>
<event>
12    7  0.1675873E-007  0.1968888E+04  0.7818608E-02  0.8621306E-01
          2   -1    0    0  501    0  0.00000000000E+00  0.00000000000E+00  0.13047105884E+04  0.13047105884E+04  0.00000000000E+00 0. -1.
         -1   -1    0    0    0  501 -0.00000000000E+00 -0.00000000000E+00 -0.74279296545E+03  0.74279296545E+03  0.00000000000E+00 0.  1.
         24    2    1    2    0    0  0.40568212380E+03 -0.22674752364E+03  0.87247669938E+03  0.99184455249E+03  0.80917243480E+02 0.  0.
        254    2    1    2    0    0 -0.40568212380E+03  0.22674752364E+03 -0.31055907640E+03  0.10556590014E+04  0.89553144123E+03 0.  0.
         23    2    4    4    0    0 -0.42079105640E+03  0.34728446169E+02  0.21986509947E+03  0.48454475757E+03  0.90397909318E+02 0.  0.
         23    2    4    4    0    0  0.15108932592E+02  0.19201907747E+03 -0.53042417587E+03  0.57111424381E+03  0.87875293375E+02 0.  0.
          4    1    3    3  502    0  0.14434484556E+03 -0.93448516289E+02  0.40426726559E+03  0.43931774567E+03  0.00000000000E+00 0. -1.
         -3    1    3    3    0  502  0.26133727825E+03 -0.13329900735E+03  0.46820943380E+03  0.55252680682E+03  0.00000000000E+00 0.  1.
         13    1    5    5    0    0 -0.31581478640E+03  0.25145372867E+02  0.20677693161E+03  0.37832257206E+03  0.00000000000E+00 0. -1.
        -13    1    5    5    0    0 -0.10497627000E+03  0.95830733027E+01  0.13088167857E+02  0.10622218551E+03  0.00000000000E+00 0.  1.
          4    1    6    6  503    0  0.46226368389E+02  0.12383119043E+03 -0.39222853541E+03  0.41390127428E+03  0.00000000000E+00 0. -1.
         -4    1    6    6    0  503 -0.31117435796E+02  0.68187887033E+02 -0.13819564045E+03  0.15721296953E+03  0.00000000000E+00 0.  1.
<mgrwt>
<rscale>  0 0.19688879E+04</rscale>
<asrwt>0</asrwt>
<pdfrwt beam="1">  1        2 0.20072471E+00 0.19688879E+04</pdfrwt>
<pdfrwt beam="2">  1       -1 0.11427584E+00 0.19688879E+04</pdfrwt>
<totfact> 0.12154988E+01</totfact>
</mgrwt>
</event>
<event>
12    7  0.1918691E-007  0.1417995E+04  0.7818608E-02  0.8940895E-01
          2   -1    0    0  501    0  0.00000000000E+00  0.00000000000E+00  0.10270795929E+04  0.10270795929E+04  0.00000000000E+00 0. -1.
         -1   -1    0    0    0  501 -0.00000000000E+00 -0.00000000000E+00 -0.48942389954E+03  0.48942389954E+03  0.00000000000E+00 0.  1.
         24    2    1    2    0    0 -0.15475831590E+03 -0.16036513861E+03 -0.23285844092E+03  0.33292336841E+03  0.83353474421E+02 0.  0.
        254    2    1    2    0    0  0.15475831590E+03  0.16036513861E+03  0.77051413428E+03  0.11835801240E+04  0.87034634764E+03 0.  0.
         23    2    4    4    0    0  0.88752473093E+02  0.40025566905E+03  0.58203181058E+02  0.42398042142E+03  0.91050455113E+02 0.  0.
         23    2    4    4    0    0  0.66005842810E+02 -0.23989053044E+03  0.71231095322E+03  0.75959970261E+03  0.87752927243E+02 0.  0.
          4    1    3    3  502    0 -0.30697898072E+02 -0.45958608179E+02 -0.14849130288E+02  0.57228063763E+02  0.00000000000E+00 0. -1.
         -3    1    3    3    0  502 -0.12406041783E+03 -0.11440653043E+03 -0.21800931064E+03  0.27569530464E+03  0.00000000000E+00 0.  1.
         13    1    5    5    0    0  0.10017492412E+03  0.38473370074E+03  0.43893975531E+02  0.39997714559E+03  0.00000000000E+00 0. -1.
        -13    1    5    5    0    0 -0.11422451031E+02  0.15521968315E+02  0.14309205527E+02  0.24003275834E+02  0.00000000000E+00 0.  1.
          4    1    6    6  503    0  0.14818004043E+02 -0.10209847171E+02  0.14281846360E+02  0.22973579575E+02  0.00000000000E+00 0.  1.
         -4    1    6    6    0  503  0.51187838767E+02 -0.22968068327E+03  0.69802910686E+03  0.73662612303E+03  0.00000000000E+00 0. -1.
<mgrwt>
<rscale>  0 0.14179948E+04</rscale>
<asrwt>0</asrwt>
<pdfrwt beam="1">  1        2 0.15801224E+00 0.14179948E+04</pdfrwt>
<pdfrwt beam="2">  1       -1 0.75295985E-01 0.14179948E+04</pdfrwt>
<totfact> 0.47601101E+01</totfact>
</mgrwt>
</event>
<event>
12    7  0.1675873E-007  0.1661043E+04  0.7818608E-02  0.8783900E-01
          2   -1    0    0  501    0  0.00000000000E+00  0.00000000000E+00  0.28106227082E+04  0.28106227082E+04  0.00000000000E+00 0. -1.
         -1   -1    0    0    0  501 -0.00000000000E+00 -0.00000000000E+00 -0.24541402149E+03  0.24541402149E+03  0.00000000000E+00 0.  1.
         24    2    1    2    0    0  0.18110730327E+03 -0.17070617387E+03 -0.64745516336E+02  0.26891071468E+03  0.78616394539E+02 0.  0.
        254    2    1    2    0    0 -0.18110730327E+03  0.17070617387E+03  0.26299542030E+04  0.27871260150E+04  0.88852229027E+03 0.  0.
         23    2    4    4    0    0  0.22303033576E+03 -0.12572923836E+03  0.17463073593E+04  0.17673377556E+04  0.91339899696E+02 0.  0.
         23    2    4    4    0    0 -0.40413763903E+03  0.29643541223E+03  0.88364684372E+03  0.10197882594E+04  0.89079540830E+02 0.  0.
          2    1    3    3  502    0  0.15562921162E+02 -0.12812066993E+02  0.16595576840E+02  0.26110663461E+02  0.00000000000E+00 0. -1.
         -1    1    3    3    0  502  0.16554438210E+03 -0.15789410687E+03 -0.81341093176E+02  0.24280005122E+03  0.00000000000E+00 0.  1.
         13    1    5    5    0    0  0.39426326767E+02 -0.23559239418E+02  0.13988162313E+03  0.14722887452E+03  0.00000000000E+00 0. -1.
        -13    1    5    5    0    0  0.18360400899E+03 -0.10216999894E+03  0.16064257362E+04  0.16201088811E+04  0.00000000000E+00 0.  1.
          4    1    6    6  503    0  0.80132779742E+00  0.10737435000E+01 -0.18487646922E+01  0.22831956180E+01  0.00000000000E+00 0. -1.
         -4    1    6    6    0  503 -0.40493896682E+03  0.29536166873E+03  0.88549560842E+03  0.10175050637E+04  0.00000000000E+00 0.  1.
<mgrwt>
<rscale>  0 0.16610433E+04</rscale>
<asrwt>0</asrwt>
<pdfrwt beam="1">  1        2 0.43240347E+00 0.16610433E+04</pdfrwt>
<pdfrwt beam="2">  1       -1 0.37756005E-01 0.16610433E+04</pdfrwt>
<totfact> 0.16819764E+01</totfact>
</mgrwt>
</event>
<event>
12    7  0.1675873E-007  0.3280162E+04  0.7818608E-02  0.8167962E-01
         -1   -1    0    0    0  501 -0.00000000000E+00  0.00000000000E+00  0.13854083332E+04  0.13854083332E+04  0.00000000000E+00 0.  1.
          2   -1    0    0  501    0  0.00000000000E+00 -0.00000000000E+00 -0.19415687903E+04  0.19415687903E+04  0.00000000000E+00 0. -1.
         24    2    1    2    0    0 -0.81739111168E+03 -0.21767081289E+03  0.10175856148E+04  0.13256584860E+04  0.79881949811E+02 0.  0.
        254    2    1    2    0    0  0.81739111168E+03  0.21767081289E+03 -0.15737460718E+04  0.20013186375E+04  0.90171546399E+03 0.  0.
         23    2    4    4    0    0  0.38703325634E+02 -0.24391145241E+03 -0.66757357532E+03  0.71738082705E+03  0.89386959459E+02 0.  0.
         23    2    4    4    0    0  0.77868778605E+03  0.46158226529E+03 -0.90617249652E+03  0.12839378105E+04  0.89077785813E+02 0.  0.
          4    1    3    3  502    0 -0.27308804801E+03 -0.51526300560E+02  0.28592185392E+03  0.39872716005E+03  0.00000000000E+00 0. -1.
         -3    1    3    3    0  502 -0.54430306367E+03 -0.16614451233E+03  0.73166376084E+03  0.92693132594E+03  0.00000000000E+00 0.  1.
         13    1    5    5    0    0 -0.15443422741E+02 -0.42683161308E+02 -0.61174288949E+02  0.76175095626E+02  0.00000000000E+00 0. -1.
        -13    1    5    5    0    0  0.54146748376E+02 -0.20122829110E+03 -0.60639928637E+03  0.64120573143E+03  0.00000000000E+00 0.  1.
          3    1    6    6  503    0  0.86337871323E+02  0.80939454160E+02 -0.97093645870E+02  0.15307710258E+03  0.00000000000E+00 0. -1.
         -3    1    6    6    0  503  0.69234991472E+03  0.38064281113E+03 -0.80907885065E+03  0.11308607079E+04  0.00000000000E+00 0.  1.
<mgrwt>
<rscale>  0 0.32801619E+04</rscale>
<asrwt>0</asrwt>
<pdfrwt beam="1">  1        2 0.29870289E+00 0.32801619E+04</pdfrwt>
<pdfrwt beam="2">  1       -1 0.21313974E+00 0.32801619E+04</pdfrwt>
<totfact> 0.83877632E-01</totfact>
</mgrwt>
</event>
<event>
12    7  0.1675873E-007  0.1559464E+04  0.7818608E-02  0.8845845E-01
          4   -1    0    0  501    0  0.00000000000E+00  0.00000000000E+00  0.46156886636E+03  0.46156886636E+03  0.00000000000E+00 0. -1.
         -3   -1    0    0    0  501 -0.00000000000E+00 -0.00000000000E+00 -0.13172069369E+04  0.13172069369E+04  0.00000000000E+00 0.  1.
         24    2    1    2    0    0  0.37017311299E+03 -0.20377626880E+03  0.48796112560E+02  0.43471607891E+03  0.89688947774E+02 0.  0.
        254    2    1    2    0    0 -0.37017311299E+03  0.20377626880E+03 -0.90443418306E+03  0.13440597243E+04  0.89996802705E+03 0.  0.
         23    2    4    4    0    0  0.37146218211E+02  0.15280479850E+03 -0.90570042606E+03  0.92376644157E+03  0.91225154615E+02 0.  0.
         23    2    4    4    0    0 -0.40731933120E+03  0.50971470299E+02  0.12662430024E+01  0.42029328273E+03  0.90209266619E+02 0.  0.
          4    1    3    3  502    0  0.34926209126E+03 -0.18456628174E+03  0.21950409546E+02  0.39563940808E+03  0.00000000000E+00 0. -1.
         -1    1    3    3    0  502  0.20911021732E+02 -0.19209987062E+02  0.26845703015E+02  0.39076670830E+02  0.00000000000E+00 0.  1.
         13    1    5    5    0    0  0.31847979592E+02  0.33428331643E+02 -0.11234575721E+03  0.12146323034E+03  0.00000000000E+00 0.  1.
        -13    1    5    5    0    0  0.52982386188E+01  0.11937646686E+03 -0.79335466885E+03  0.80230321123E+03  0.00000000000E+00 0. -1.
          1    1    6    6  503    0 -0.30676953668E+03  0.60959304099E+01  0.24333989941E+02  0.30779352181E+03  0.00000000000E+00 0. -1.
         -1    1    6    6    0  503 -0.10054979452E+03  0.44875539889E+02 -0.23067746939E+02  0.11249976092E+03  0.00000000000E+00 0.  1.
<mgrwt>
<rscale>  0 0.15594636E+04</rscale>
<asrwt>0</asrwt>
<pdfrwt beam="1">  1        4 0.71010595E-01 0.15594636E+04</pdfrwt>
<pdfrwt beam="2">  1       -3 0.20264722E+00 0.15594636E+04</pdfrwt>
<totfact> 0.56306525E-01</totfact>
</mgrwt>
</event>
<event>
12    7  0.1675873E-007  0.1871502E+04  0.7818608E-02  0.8669173E-01
         -1   -1    0    0    0  501 -0.00000000000E+00  0.00000000000E+00  0.65828579556E+03  0.65828579556E+03  0.00000000000E+00 0.  1.
          2   -1    0    0  501    0  0.00000000000E+00 -0.00000000000E+00 -0.13301664400E+04  0.13301664400E+04  0.00000000000E+00 0. -1.
         24    2    1    2    0    0 -0.13545997766E+03  0.24037310194E+03  0.44028953602E+03  0.52571512913E+03  0.79955536326E+02 0.  0.
        254    2    1    2    0    0  0.13545997766E+03 -0.24037310194E+03 -0.11121701805E+04  0.14627371065E+04  0.90914723701E+03 0.  0.
         23    2    4    4    0    0 -0.15435826218E+02 -0.46211605514E+03 -0.20820557855E+03  0.51527243790E+03  0.91469170576E+02 0.  0.
         23    2    4    4    0    0  0.15089580387E+03  0.22174295320E+03 -0.90396460192E+03  0.94746466855E+03  0.92724407304E+02 0.  0.
          2    1    3    3  502    0 -0.12286330659E+02 -0.44130558452E+01  0.16369639055E+02  0.20937862015E+02  0.00000000000E+00 0. -1.
         -1    1    3    3    0  502 -0.12317364700E+03  0.24478615778E+03  0.42391989696E+03  0.50477726712E+03  0.00000000000E+00 0.  1.
         13    1    5    5    0    0  0.17026658860E+02 -0.20408028410E+03 -0.13432613156E+03  0.24491259480E+03  0.00000000000E+00 0.  1.
        -13    1    5    5    0    0 -0.32462485079E+02 -0.25803577104E+03 -0.73879446998E+02  0.27035984310E+03  0.00000000000E+00 0. -1.
          1    1    6    6  503    0  0.71518923291E+02  0.47728678382E+02 -0.19423563389E+03  0.21241578238E+03  0.00000000000E+00 0. -1.
         -1    1    6    6    0  503  0.79376880583E+02  0.17401427482E+03 -0.70972896803E+03  0.73504888618E+03  0.00000000000E+00 0.  1.
<mgrwt>
<rscale>  0 0.18715017E+04</rscale>
<asrwt>0</asrwt>
<pdfrwt beam="1">  1        2 0.20464099E+00 0.18715017E+04</pdfrwt>
<pdfrwt beam="2">  1       -1 0.10127474E+00 0.18715017E+04</pdfrwt>
<totfact> 0.15727282E+01</totfact>
</mgrwt>
</event>
<event>
12    7  0.1675873E-007  0.2481942E+04  0.7818608E-02  0.8409447E-01
          2   -1    0    0  501    0  0.00000000000E+00  0.00000000000E+00  0.27415687986E+04  0.27415687986E+04  0.00000000000E+00 0. -1.
         -1   -1    0    0    0  501 -0.00000000000E+00 -0.00000000000E+00 -0.56172528847E+03  0.56172528847E+03  0.00000000000E+00 0.  1.
         24    2    1    2    0    0 -0.70445861811E+03 -0.54646599887E+03  0.17445786849E+04  0.19606736070E+04  0.76152298587E+02 0.  0.
        254    2    1    2    0    0  0.70445861811E+03  0.54646599887E+03  0.43526482519E+03  0.13426204801E+04  0.90459231315E+03 0.  0.
         23    2    4    4    0    0  0.38464482552E+03  0.18010360783E+03 -0.24727221250E+03  0.49979248122E+03  0.90884684395E+02 0.  0.
         23    2    4    4    0    0  0.31981379259E+03  0.36636239104E+03  0.68253703769E+03  0.84282799888E+03  0.89442520022E+02 0.  0.
          4    1    3    3  502    0 -0.70040449760E+03 -0.53886498367E+03  0.17077400495E+04  0.19228411291E+04  0.00000000000E+00 0. -1.
         -3    1    3    3    0  502 -0.40541205138E+01 -0.76010151963E+01  0.36838635416E+02  0.37832477905E+02  0.00000000000E+00 0.  1.
         13    1    5    5    0    0  0.12885524397E+03  0.53939907649E+02 -0.34299688960E+02  0.14383899401E+03  0.00000000000E+00 0.  1.
        -13    1    5    5    0    0  0.25578958155E+03  0.12616370018E+03 -0.21297252354E+03  0.35595348721E+03  0.00000000000E+00 0. -1.
          2    1    6    6  503    0  0.27883390992E+03  0.35586006332E+03  0.61985241036E+03  0.76720384814E+03  0.00000000000E+00 0. -1.
         -2    1    6    6    0  503  0.40979882671E+02  0.10502327725E+02  0.62684627332E+02  0.75624150740E+02  0.00000000000E+00 0.  1.
<mgrwt>
<rscale>  0 0.24819416E+04</rscale>
<asrwt>0</asrwt>
<pdfrwt beam="1">  1        2 0.42177981E+00 0.24819416E+04</pdfrwt>
<pdfrwt beam="2">  1       -1 0.86419276E-01 0.24819416E+04</pdfrwt>
<totfact> 0.33640731E+00</totfact>
</mgrwt>
</event>
<event>
12    7  0.2118078E-007  0.1672676E+04  0.7818608E-02  0.8777103E-01
         -1   -1    0    0    0  501 -0.00000000000E+00  0.00000000000E+00  0.64324008035E+03  0.64324008035E+03  0.00000000000E+00 0.  1.
          2   -1    0    0  501    0  0.00000000000E+00 -0.00000000000E+00 -0.10874036469E+04  0.10874036469E+04  0.00000000000E+00 0. -1.
         24    2    1    2    0    0  0.15538423419E+03 -0.82290499745E+02 -0.75317405222E+03  0.77762213677E+03  0.80678671752E+02 0.  0.
        254    2    1    2    0    0 -0.15538423419E+03  0.82290499745E+02  0.30901048562E+03  0.95302159052E+03  0.88422094818E+03 0.  0.
         23    2    4    4    0    0 -0.12017666056E+03  0.35549292748E+03  0.47973750721E+03  0.61587044134E+03  0.91272523036E+02 0.  0.
         23    2    4    4    0    0 -0.35207573631E+02 -0.27320242774E+03 -0.17072702159E+03  0.33715114918E+03  0.92973338820E+02 0.  0.
          2    1    3    3  502    0  0.10351487600E+03 -0.66256933516E+02 -0.64481225473E+03  0.65642071467E+03  0.00000000000E+00 0. -1.
         -1    1    3    3    0  502  0.51869358189E+02 -0.16033566229E+02 -0.10836179749E+03  0.12120142210E+03  0.00000000000E+00 0.  1.
         13    1    5    5    0    0 -0.15036012464E+02  0.19944738370E+02  0.56456128934E+01  0.25607561469E+02  0.00000000000E+00 0. -1.
        -13    1    5    5    0    0 -0.10514064809E+03  0.33554818911E+03  0.47409189432E+03  0.59026287987E+03  0.00000000000E+00 0.  1.
          3    1    6    6  503    0 -0.49133497938E+02 -0.79112731568E+02 -0.33202149645E+02  0.98870155542E+02  0.00000000000E+00 0. -1.
         -3    1    6    6    0  503  0.13925924307E+02 -0.19408969617E+03 -0.13752487194E+03  0.23828099364E+03  0.00000000000E+00 0.  1.
<mgrwt>
<rscale>  0 0.16726764E+04</rscale>
<asrwt>0</asrwt>
<pdfrwt beam="1">  1        2 0.16729287E+00 0.16726764E+04</pdfrwt>
<pdfrwt beam="2">  1       -1 0.98960012E-01 0.16726764E+04</pdfrwt>
<totfact> 0.23554899E+01</totfact>
</mgrwt>
</event>
<event>
12    7  0.1675873E-007  0.1171834E+04  0.7818608E-02  0.9137874E-01
         -1   -1    0    0    0  501 -0.00000000000E+00  0.00000000000E+00  0.12282949510E+03  0.12282949510E+03  0.00000000000E+00 0.  1.
          2   -1    0    0  501    0  0.00000000000E+00 -0.00000000000E+00 -0.27949208764E+04  0.27949208764E+04  0.00000000000E+00 0. -1.
         24    2    1    2    0    0 -0.16377282837E+03  0.62364689762E+02 -0.96728736307E+03  0.98587651226E+03  0.74811501896E+02 0.  0.
        254    2    1    2    0    0  0.16377282837E+03 -0.62364689762E+02 -0.17048040182E+04  0.19318738592E+04  0.89166640265E+03 0.  0.
         23    2    4    4    0    0 -0.37214388049E+01 -0.24315417270E+02  0.87407850967E+02  0.12908096089E+03  0.91742429826E+02 0.  0.
         23    2    4    4    0    0  0.16749426718E+03 -0.38049272492E+02 -0.17922118692E+04  0.18027928983E+04  0.92394662230E+02 0.  0.
          4    1    3    3  502    0 -0.11915372269E+03  0.71823654264E+02 -0.60853738868E+03  0.62423873668E+03  0.00000000000E+00 0. -1.
         -3    1    3    3    0  502 -0.44619105682E+02 -0.94589645023E+01 -0.35874997439E+03  0.36163777558E+03  0.00000000000E+00 0.  1.
         13    1    5    5    0    0  0.35754640305E+02  0.14850659649E+02  0.43447996341E+02  0.58195058049E+02  0.00000000000E+00 0.  1.
        -13    1    5    5    0    0 -0.39476079110E+02 -0.39166076919E+02  0.43959854626E+02  0.70885902843E+02  0.00000000000E+00 0. -1.
          3    1    6    6  503    0  0.76395293121E+02 -0.17860435376E+02 -0.41024539875E+03  0.41767992908E+03  0.00000000000E+00 0. -1.
         -3    1    6    6    0  503  0.91098974055E+02 -0.20188837116E+02 -0.13819664704E+04  0.13851129692E+04  0.00000000000E+00 0.  1.
<mgrwt>
<rscale>  0 0.11718340E+04</rscale>
<asrwt>0</asrwt>
<pdfrwt beam="1">  1        2 0.42998784E+00 0.11718340E+04</pdfrwt>
<pdfrwt beam="2">  1       -1 0.18896845E-01 0.11718340E+04</pdfrwt>
<totfact> 0.59664991E+01</totfact>
</mgrwt>
</event>
<event>
12    7  0.1675873E-007  0.2723080E+04  0.7818608E-02  0.8327555E-01
         -1   -1    0    0    0  501 -0.00000000000E+00  0.00000000000E+00  0.15572699693E+04  0.15572699693E+04  0.00000000000E+00 0.  1.
          2   -1    0    0  501    0  0.00000000000E+00 -0.00000000000E+00 -0.11904112555E+04  0.11904112555E+04  0.00000000000E+00 0. -1.
         24    2    1    2    0    0 -0.11723100969E+03  0.11275607473E+04 -0.26287535237E+03  0.11663687780E+04  0.78589611037E+02 0.  0.
        254    2    1    2    0    0  0.11723100969E+03 -0.11275607473E+04  0.62973406608E+03  0.15813124468E+04  0.90490204539E+03 0.  0.
         23    2    4    4    0    0 -0.26478142966E+03 -0.69750058803E+03  0.40255518402E+02  0.75304377650E+03  0.94011418344E+02 0.  0.
         23    2    4    4    0    0  0.38201243935E+03 -0.43006015929E+03  0.58947854768E+03  0.82826867025E+03  0.87514498908E+02 0.  0.
          2    1    3    3  502    0 -0.46406732250E+02  0.39526841802E+03 -0.13059236442E+03  0.41886163912E+03  0.00000000000E+00 0. -1.
         -1    1    3    3    0  502 -0.70824277441E+02  0.73229232930E+03 -0.13228298795E+03  0.74750713892E+03  0.00000000000E+00 0.  1.
         13    1    5    5    0    0 -0.12986257105E+03 -0.29602435228E+03 -0.26222441644E+02  0.32431824023E+03  0.00000000000E+00 0.  1.
        -13    1    5    5    0    0 -0.13491885860E+03 -0.40147623575E+03  0.66477960046E+02  0.42872553627E+03  0.00000000000E+00 0. -1.
          3    1    6    6  503    0  0.25029065799E+03 -0.21922896173E+03  0.35467532451E+03  0.48631403122E+03  0.00000000000E+00 0. -1.
         -3    1    6    6    0  503  0.13172178136E+03 -0.21083119756E+03  0.23480322317E+03  0.34195463904E+03  0.00000000000E+00 0.  1.
<mgrwt>
<rscale>  0 0.27230804E+04</rscale>
<asrwt>0</asrwt>
<pdfrwt beam="1">  1        2 0.18314019E+00 0.27230804E+04</pdfrwt>
<pdfrwt beam="2">  1       -1 0.23958000E+00 0.27230804E+04</pdfrwt>
<totfact> 0.15624921E+00</totfact>
</mgrwt>
</event>
<event>
12    7  0.1675873E-007  0.1711903E+04  0.7818608E-02  0.8754605E-01
         -1   -1    0    0    0  501 -0.00000000000E+00  0.00000000000E+00  0.97860867049E+03  0.97860867049E+03  0.00000000000E+00 0.  1.
          2   -1    0    0  501    0  0.00000000000E+00 -0.00000000000E+00 -0.74866770990E+03  0.74866770990E+03  0.00000000000E+00 0. -1.
         24    2    1    2    0    0 -0.11332519382E+03 -0.56553559737E+03 -0.99412888390E+02  0.59005519059E+03  0.74893885683E+02 0.  0.
        254    2    1    2    0    0  0.11332519382E+03  0.56553559737E+03  0.32935384898E+03  0.11372211898E+04  0.92310615059E+03 0.  0.
         23    2    4    4    0    0 -0.13557695319E+03  0.70187795560E+03  0.40910175642E+03  0.82865776345E+03  0.91080552440E+02 0.  0.
         23    2    4    4    0    0  0.24890214701E+03 -0.13634235822E+03 -0.79747907441E+02  0.30856342635E+03  0.91159979756E+02 0.  0.
          2    1    3    3  502    0 -0.56950843375E+02 -0.19463828547E+03 -0.66648160946E+02  0.21346999342E+03  0.00000000000E+00 0. -1.
         -1    1    3    3    0  502 -0.56374350445E+02 -0.37089731190E+03 -0.32764727445E+02  0.37658519717E+03  0.00000000000E+00 0.  1.
         13    1    5    5    0    0  0.95647072339E+01  0.12965917444E+03  0.82832108137E+02  0.15415623011E+03  0.00000000000E+00 0. -1.
        -13    1    5    5    0    0 -0.14514166042E+03  0.57221878115E+03  0.32626964828E+03  0.67450153334E+03  0.00000000000E+00 0.  1.
          2    1    6    6  503    0  0.17509009346E+03 -0.13316557192E+03 -0.81697313956E+02  0.23465732778E+03  0.00000000000E+00 0. -1.
         -2    1    6    6    0  503  0.73812053551E+02 -0.31767863017E+01  0.19494065142E+01  0.73906098574E+02  0.00000000000E+00 0.  1.
<mgrwt>
<rscale>  0 0.17119027E+04</rscale>
<asrwt>0</asrwt>
<pdfrwt beam="1">  1        2 0.11517965E+00 0.17119027E+04</pdfrwt>
<pdfrwt beam="2">  1       -1 0.15055518E+00 0.17119027E+04</pdfrwt>
<totfact> 0.14094026E+01</totfact>
</mgrwt>
</event>
<event>
12    7  0.1675873E-007  0.1493017E+04  0.7818608E-02  0.8889110E-01
         -1   -1    0    0    0  501 -0.00000000000E+00  0.00000000000E+00  0.15141790818E+03  0.15141790818E+03  0.00000000000E+00 0.  1.
          2   -1    0    0  501    0  0.00000000000E+00 -0.00000000000E+00 -0.36803791530E+04  0.36803791530E+04  0.00000000000E+00 0. -1.
         24    2    1    2    0    0  0.13637068165E+03  0.46971673219E+03 -0.12268982118E+04  0.13233729763E+04  0.82498733509E+02 0.  0.
        254    2    1    2    0    0 -0.13637068165E+03 -0.46971673219E+03 -0.23020630330E+04  0.25084240848E+04  0.86802442949E+03 0.  0.
         23    2    4    4    0    0  0.25325567653E+03  0.10723689096E+03 -0.78847853835E+03  0.83964927086E+03  0.87603105744E+02 0.  0.
         23    2    4    4    0    0 -0.38962635818E+03 -0.57695362315E+03 -0.15135844946E+04  0.16687748140E+04  0.95849752703E+02 0.  0.
          2    1    3    3  502    0  0.11546732425E+03  0.41429000920E+03 -0.11378871612E+04  0.12164522622E+04  0.00000000000E+00 0. -1.
         -1    1    3    3    0  502  0.20903357402E+02  0.55426722990E+02 -0.89011050676E+02  0.10692071415E+03  0.00000000000E+00 0.  1.
         13    1    5    5    0    0  0.24412679103E+03  0.96075441390E+02 -0.77996177229E+03  0.82290263505E+03  0.00000000000E+00 0.  1.
        -13    1    5    5    0    0  0.91288854977E+01  0.11161449567E+02 -0.85167660674E+01  0.16746635815E+02  0.00000000000E+00 0. -1.
          1    1    6    6  503    0 -0.38594277143E+02 -0.56083005331E+02 -0.22806282190E+03  0.23800729495E+03  0.00000000000E+00 0. -1.
         -1    1    6    6    0  503 -0.35103208104E+03 -0.52087061782E+03 -0.12855216727E+04  0.14307675190E+04  0.00000000000E+00 0.  1.
<mgrwt>
<rscale>  0 0.14930175E+04</rscale>
<asrwt>0</asrwt>
<pdfrwt beam="1">  1        2 0.56621215E+00 0.14930175E+04</pdfrwt>
<pdfrwt beam="2">  1       -1 0.23295064E-01 0.14930175E+04</pdfrwt>
<totfact> 0.10686407E+01</totfact>
</mgrwt>
</event>
<event>
12    7  0.1675873E-007  0.1872290E+04  0.7818608E-02  0.8668774E-01
          2   -1    0    0  501    0  0.00000000000E+00  0.00000000000E+00  0.11669574417E+04  0.11669574417E+04  0.00000000000E+00 0. -1.
         -1   -1    0    0    0  501 -0.00000000000E+00 -0.00000000000E+00 -0.75098501932E+03  0.75098501932E+03  0.00000000000E+00 0.  1.
         24    2    1    2    0    0  0.55552542181E+03 -0.14244383119E+03 -0.30045932723E+03  0.65243228332E+03  0.80581248941E+02 0.  0.
        254    2    1    2    0    0 -0.55552542181E+03  0.14244383119E+03  0.71643174963E+03  0.12655101777E+04  0.87140278788E+03 0.  0.
         23    2    4    4    0    0 -0.51115889761E+03  0.43489749277E+03  0.67075836489E+03  0.95309939021E+03  0.89790955717E+02 0.  0.
         23    2    4    4    0    0 -0.44366524196E+02 -0.29245366159E+03  0.45673384747E+02  0.31241078751E+03  0.89537195813E+02 0.  0.
          2    1    3    3  502    0  0.13690818669E+02 -0.18550110040E+02 -0.15895395966E+02  0.28003726739E+02  0.00000000000E+00 0. -1.
         -1    1    3    3    0  502  0.54183460314E+03 -0.12389372115E+03 -0.28456393127E+03  0.62442855658E+03  0.00000000000E+00 0.  1.
         13    1    5    5    0    0 -0.13343255587E+03  0.10637084390E+03  0.11871614671E+03  0.20787622974E+03  0.00000000000E+00 0.  1.
        -13    1    5    5    0    0 -0.37772634174E+03  0.32852664887E+03  0.55204221817E+03  0.74522316047E+03  0.00000000000E+00 0. -1.
          2    1    6    6  503    0 -0.11872781491E+02 -0.16820879741E+03 -0.17052192333E+02  0.16948728486E+03  0.00000000000E+00 0. -1.
         -2    1    6    6    0  503 -0.32493742705E+02 -0.12424486418E+03  0.62725577081E+02  0.14292350265E+03  0.00000000000E+00 0.  1.
<mgrwt>
<rscale>  0 0.18722901E+04</rscale>
<asrwt>0</asrwt>
<pdfrwt beam="1">  1        2 0.17953191E+00 0.18722901E+04</pdfrwt>
<pdfrwt beam="2">  1       -1 0.11553616E+00 0.18722901E+04</pdfrwt>
<totfact> 0.14406755E+01</totfact>
</mgrwt>
</event>
<event>
12    7  0.1675873E-007  0.1321697E+04  0.7818608E-02  0.9012534E-01
          2   -1    0    0  501    0  0.00000000000E+00  0.00000000000E+00  0.17704516247E+04  0.17704516247E+04  0.00000000000E+00 0. -1.
         -1   -1    0    0    0  501 -0.00000000000E+00 -0.00000000000E+00 -0.24667182545E+03  0.24667182545E+03  0.00000000000E+00 0.  1.
         24    2    1    2    0    0  0.14221069895E+02 -0.17240897132E+03  0.87709872886E+03  0.89769273252E+03  0.81381629505E+02 0.  0.
        254    2    1    2    0    0 -0.14221069895E+02  0.17240897132E+03  0.64668107036E+03  0.11194307176E+04  0.89721883202E+03 0.  0.
         23    2    4    4    0    0  0.34120112982E+03  0.25800382251E+03  0.87581618113E+02  0.44526846455E+03  0.87231200095E+02 0.  0.
         23    2    4    4    0    0 -0.35542219972E+03 -0.85594851192E+02  0.55909945225E+03  0.67416225305E+03  0.90835716169E+02 0.  0.
          4    1    3    3  502    0  0.34268175085E+02 -0.13115453395E+03  0.75879750106E+03  0.77081091535E+03  0.00000000000E+00 0. -1.
         -3    1    3    3    0  502 -0.20047105190E+02 -0.41254437375E+02  0.11830122780E+03  0.12688181717E+03  0.00000000000E+00 0.  1.
         13    1    5    5    0    0  0.33669002696E+03  0.26053634235E+03  0.95030150346E+02  0.43619959813E+03  0.00000000000E+00 0.  1.
        -13    1    5    5    0    0  0.45111028638E+01 -0.25325198305E+01 -0.74485322327E+01  0.90688664210E+01  0.00000000000E+00 0. -1.
          4    1    6    6  503    0 -0.53375231170E+02  0.16853150966E+02  0.10874196010E+03  0.12230191284E+03  0.00000000000E+00 0. -1.
         -4    1    6    6    0  503 -0.30204696855E+03 -0.10244800216E+03  0.45035749215E+03  0.55186034021E+03  0.00000000000E+00 0.  1.
<mgrwt>
<rscale>  0 0.13216967E+04</rscale>
<asrwt>0</asrwt>
<pdfrwt beam="1">  1        2 0.27237716E+00 0.13216967E+04</pdfrwt>
<pdfrwt beam="2">  1       -1 0.37949513E-01 0.13216967E+04</pdfrwt>
<totfact> 0.66994077E+01</totfact>
</mgrwt>
</event>
<event>
12    7  0.1675873E-007  0.2249424E+04  0.7818608E-02  0.8498134E-01
         -1   -1    0    0    0  501 -0.00000000000E+00  0.00000000000E+00  0.12510171596E+04  0.12510171596E+04  0.00000000000E+00 0.  1.
          2   -1    0    0  501    0  0.00000000000E+00 -0.00000000000E+00 -0.10111586359E+04  0.10111586359E+04  0.00000000000E+00 0. -1.
         24    2    1    2    0    0  0.48443544044E+03  0.66552166675E+03 -0.36020134832E+03  0.90260187033E+03  0.85722459806E+02 0.  0.
        254    2    1    2    0    0 -0.48443544044E+03 -0.66552166675E+03  0.60005987199E+03  0.13595739251E+04  0.90042913270E+03 0.  0.
         23    2    4    4    0    0 -0.38019560805E+03  0.59453618542E+02  0.46201885254E+03  0.60777132520E+03  0.88550158072E+02 0.  0.
         23    2    4    4    0    0 -0.10423983239E+03 -0.72497528529E+03  0.13804101945E+03  0.75180259991E+03  0.98471921099E+02 0.  0.
          4    1    3    3  502    0  0.38657119503E+03  0.49345222622E+03 -0.30494059699E+03  0.69708045166E+03  0.00000000000E+00 0. -1.
         -3    1    3    3    0  502  0.97864245412E+02  0.17206944053E+03 -0.55260751327E+02  0.20552141867E+03  0.00000000000E+00 0.  1.
         13    1    5    5    0    0 -0.97283289181E+02  0.12932645193E+02  0.18326170845E+03  0.20788493320E+03  0.00000000000E+00 0.  1.
        -13    1    5    5    0    0 -0.28291231887E+03  0.46520973349E+02  0.27875714409E+03  0.39988639201E+03  0.00000000000E+00 0. -1.
          4    1    6    6  503    0 -0.85510058355E+02 -0.65042098065E+03  0.92643191835E+02  0.66252711880E+03  0.00000000000E+00 0. -1.
         -4    1    6    6    0  503 -0.18729774038E+02 -0.74554304639E+02  0.45397827616E+02  0.89275481113E+02  0.00000000000E+00 0.  1.
<mgrwt>
<rscale>  0 0.22494238E+04</rscale>
<asrwt>0</asrwt>
<pdfrwt beam="1">  1        2 0.15556287E+00 0.22494238E+04</pdfrwt>
<pdfrwt beam="2">  1       -1 0.19246418E+00 0.22494238E+04</pdfrwt>
<totfact> 0.43676061E+00</totfact>
</mgrwt>
</event>
<event>
12    7  0.1675873E-007  0.1098087E+04  0.7818608E-02  0.9207058E-01
         -1   -1    0    0    0  501 -0.00000000000E+00  0.00000000000E+00  0.55122666411E+03  0.55122666411E+03  0.00000000000E+00 0.  1.
          2   -1    0    0  501    0  0.00000000000E+00 -0.00000000000E+00 -0.54686945999E+03  0.54686945999E+03  0.00000000000E+00 0. -1.
         24    2    1    2    0    0 -0.14522870104E+03 -0.45108991338E+02 -0.57076991468E+02  0.18090343966E+03  0.79637144736E+02 0.  0.
        254    2    1    2    0    0  0.14522870104E+03  0.45108991338E+02  0.61434195592E+02  0.91719268444E+03  0.90240903325E+03 0.  0.
         23    2    4    4    0    0  0.15673878732E+03 -0.35694175370E+03 -0.18105446278E+03  0.44058800565E+03  0.96760576918E+02 0.  0.
         23    2    4    4    0    0 -0.11510086276E+02  0.40205074504E+03  0.24248865837E+03  0.47660467878E+03  0.81080125351E+02 0.  0.
          4    1    3    3  502    0 -0.10692515052E+03 -0.56596288702E+02 -0.13455031537E+02  0.12172578027E+03  0.00000000000E+00 0. -1.
         -3    1    3    3    0  502 -0.38303550523E+02  0.11487297364E+02 -0.43621959931E+02  0.59177659396E+02  0.00000000000E+00 0.  1.
         13    1    5    5    0    0  0.11138948502E+03 -0.23959937077E+03 -0.17024724288E+03  0.31432403592E+03  0.00000000000E+00 0.  1.
        -13    1    5    5    0    0  0.45349302301E+02 -0.11734238293E+03 -0.10807219898E+02  0.12626396973E+03  0.00000000000E+00 0. -1.
          2    1    6    6  503    0  0.33282453742E+02  0.14391838737E+03  0.99896717571E+02  0.17832436214E+03  0.00000000000E+00 0. -1.
         -2    1    6    6    0  503 -0.44792540018E+02  0.25813235767E+03  0.14259194080E+03  0.29828031665E+03  0.00000000000E+00 0.  1.
<mgrwt>
<rscale>  0 0.10980875E+04</rscale>
<asrwt>0</asrwt>
<pdfrwt beam="1">  1        2 0.84133763E-01 0.10980875E+04</pdfrwt>
<pdfrwt beam="2">  1       -1 0.84804102E-01 0.10980875E+04</pdfrwt>
<totfact> 0.86624525E+01</totfact>
</mgrwt>
</event>
<event>
12    7  0.1675873E-007  0.1285660E+04  0.7818608E-02  0.9041015E-01
          2   -1    0    0  501    0  0.00000000000E+00  0.00000000000E+00  0.16118081792E+03  0.16118081792E+03  0.00000000000E+00 0. -1.
         -1   -1    0    0    0  501 -0.00000000000E+00 -0.00000000000E+00 -0.25637691328E+04  0.25637691328E+04  0.00000000000E+00 0.  1.
         24    2    1    2    0    0 -0.77170176426E+02 -0.21368732429E+03 -0.23090530612E+03  0.33471848241E+03  0.84271545521E+02 0.  0.
        254    2    1    2    0    0  0.77170176426E+02  0.21368732429E+03 -0.21716830088E+04  0.23902314683E+04  0.97230749914E+03 0.  0.
         23    2    4    4    0    0 -0.14941734018E+03  0.38384739540E+03 -0.36095617587E+03  0.55524456555E+03  0.91338941154E+02 0.  0.
         23    2    4    4    0    0  0.22658751660E+03 -0.17016007111E+03 -0.18107268329E+04  0.18349869028E+04  0.90271354752E+02 0.  0.
          2    1    3    3  502    0 -0.74938324543E+00 -0.10953801850E+03 -0.77585162626E+02  0.13423336594E+03  0.00000000000E+00 0. -1.
         -1    1    3    3    0  502 -0.76420793181E+02 -0.10414930579E+03 -0.15332014349E+03  0.20048511647E+03  0.00000000000E+00 0.  1.
         13    1    5    5    0    0 -0.16170622033E+03  0.34222710567E+03 -0.32305802167E+03  0.49762915802E+03  0.00000000000E+00 0. -1.
        -13    1    5    5    0    0  0.12288880152E+02  0.41620289733E+02 -0.37898154200E+02  0.57615407528E+02  0.00000000000E+00 0.  1.
          1    1    6    6  503    0  0.20879900556E+03 -0.11275388733E+03 -0.14440883063E+04  0.14634553291E+04  0.00000000000E+00 0. -1.
         -1    1    6    6    0  503  0.17788511039E+02 -0.57406183781E+02 -0.36663852655E+03  0.37153157364E+03  0.00000000000E+00 0.  1.
<mgrwt>
<rscale>  0 0.12856600E+04</rscale>
<asrwt>0</asrwt>
<pdfrwt beam="1">  1        2 0.24797050E-01 0.12856600E+04</pdfrwt>
<pdfrwt beam="2">  1       -1 0.39442601E+00 0.12856600E+04</pdfrwt>
<totfact> 0.19708058E+00</totfact>
</mgrwt>
</event>
<event>
12    7  0.1675873E-007  0.1376686E+04  0.7818608E-02  0.8970869E-01
          2   -1    0    0  501    0  0.00000000000E+00  0.00000000000E+00  0.20716178999E+04  0.20716178999E+04  0.00000000000E+00 0. -1.
         -1   -1    0    0    0  501 -0.00000000000E+00 -0.00000000000E+00 -0.22871796722E+03  0.22871796722E+03  0.00000000000E+00 0.  1.
         24    2    1    2    0    0 -0.58825884013E+02 -0.29417810338E+02  0.11615360843E+04  0.11657917708E+04  0.74689260495E+02 0.  0.
        254    2    1    2    0    0  0.58825884013E+02  0.29417810338E+02  0.68136384837E+03  0.11345440963E+04  0.90476942936E+03 0.  0.
         23    2    4    4    0    0  0.27283760687E+03 -0.22753977955E+03  0.69972979831E+03  0.78996190698E+03  0.90572141611E+02 0.  0.
         23    2    4    4    0    0 -0.21401172285E+03  0.25695758989E+03 -0.18365949944E+02  0.34458218929E+03  0.81063904027E+02 0.  0.
          2    1    3    3  502    0 -0.64082155857E+02 -0.84413532163E+01  0.10604744130E+04  0.10624423559E+04  0.00000000000E+00 0. -1.
         -1    1    3    3    0  502  0.52562718440E+01 -0.20976457122E+02  0.10106167133E+03  0.10334941490E+03  0.00000000000E+00 0.  1.
         13    1    5    5    0    0  0.22820864909E+03 -0.18436046954E+03  0.48880833781E+03  0.57008908195E+03  0.00000000000E+00 0. -1.
        -13    1    5    5    0    0  0.44628957777E+02 -0.43179310006E+02  0.21092146051E+03  0.21987282503E+03  0.00000000000E+00 0.  1.
          4    1    6    6  503    0  0.14010018731E+01  0.89001479913E+00  0.87079159156E+01  0.88646901911E+01  0.00000000000E+00 0.  1.
         -4    1    6    6    0  503 -0.21541272473E+03  0.25606757509E+03 -0.27073865860E+02  0.33571749909E+03  0.00000000000E+00 0. -1.
<mgrwt>
<rscale>  0 0.13766862E+04</rscale>
<asrwt>0</asrwt>
<pdfrwt beam="1">  1        2 0.31871043E+00 0.13766862E+04</pdfrwt>
<pdfrwt beam="2">  1       -1 0.35187381E-01 0.13766862E+04</pdfrwt>
<totfact> 0.52068355E+01</totfact>
</mgrwt>
</event>
<event>
12    7  0.1675873E-007  0.2551177E+04  0.7818608E-02  0.8384977E-01
          2   -1    0    0  501    0  0.00000000000E+00  0.00000000000E+00  0.12158415050E+04  0.12158415050E+04  0.00000000000E+00 0. -1.
         -1   -1    0    0    0  501 -0.00000000000E+00 -0.00000000000E+00 -0.13382710226E+04  0.13382710226E+04  0.00000000000E+00 0.  1.
         24    2    1    2    0    0 -0.17493651975E+03 -0.44346071255E+03  0.93162693189E+03  0.10493851323E+04  0.77590115717E+02 0.  0.
        254    2    1    2    0    0  0.17493651975E+03  0.44346071255E+03 -0.10540564495E+04  0.15047273954E+04  0.96224183348E+03 0.  0.
         23    2    4    4    0    0  0.28973361622E+03  0.25050446695E+02  0.56304143712E+02  0.30903714094E+03  0.88094861546E+02 0.  0.
         23    2    4    4    0    0 -0.11479709647E+03  0.41841026586E+03 -0.11103605932E+04  0.11956902544E+04  0.92352659036E+02 0.  0.
          4    1    3    3  502    0 -0.12900001927E+03 -0.34744090176E+03  0.78609849472E+03  0.86908401700E+03  0.00000000000E+00 0. -1.
         -3    1    3    3    0  502 -0.45936500476E+02 -0.96019810786E+02  0.14552843716E+03  0.18030111526E+03  0.00000000000E+00 0.  1.
         13    1    5    5    0    0  0.54261906390E+00 -0.17293231017E+01  0.15676525677E+02  0.15780952162E+02  0.00000000000E+00 0. -1.
        -13    1    5    5    0    0  0.28919099716E+03  0.26779769796E+02  0.40627618035E+02  0.29325618878E+03  0.00000000000E+00 0.  1.
          1    1    6    6  503    0  0.60469685830E+01  0.10805244017E+03 -0.32786274485E+03  0.34526203834E+03  0.00000000000E+00 0. -1.
         -1    1    6    6    0  503 -0.12084406506E+03  0.31035782569E+03 -0.78249784836E+03  0.85042821608E+03  0.00000000000E+00 0.  1.
<mgrwt>
<rscale>  0 0.25511766E+04</rscale>
<asrwt>0</asrwt>
<pdfrwt beam="1">  1        2 0.18705254E+00 0.25511766E+04</pdfrwt>
<pdfrwt beam="2">  1       -1 0.20588785E+00 0.25511766E+04</pdfrwt>
<totfact> 0.25720438E+00</totfact>
</mgrwt>
</event>
<event>
12    7  0.1675873E-007  0.1382351E+04  0.7818608E-02  0.8966694E-01
         -1   -1    0    0    0  501 -0.00000000000E+00  0.00000000000E+00  0.31192451348E+03  0.31192451348E+03  0.00000000000E+00 0.  1.
          2   -1    0    0  501    0  0.00000000000E+00 -0.00000000000E+00 -0.15315357047E+04  0.15315357047E+04  0.00000000000E+00 0. -1.
         24    2    1    2    0    0 -0.19765933004E+03  0.14423739493E+03 -0.77178819249E+03  0.81359930764E+03  0.80082348035E+02 0.  0.
        254    2    1    2    0    0  0.19765933004E+03 -0.14423739493E+03 -0.44782299872E+03  0.10298609105E+04  0.89453586850E+03 0.  0.
         23    2    4    4    0    0  0.49173605068E+03  0.37254241804E+02 -0.63910963039E+02  0.50560521906E+03  0.91431965280E+02 0.  0.
         23    2    4    4    0    0 -0.29407672063E+03 -0.18149163674E+03 -0.38391203568E+03  0.52425569148E+03  0.89639539760E+02 0.  0.
          4    1    3    3  502    0 -0.12812890397E+03  0.10070453017E+03 -0.62001437559E+03  0.64107428927E+03  0.00000000000E+00 0. -1.
         -3    1    3    3    0  502 -0.69530426074E+02  0.43532864759E+02 -0.15177381691E+03  0.17252501837E+03  0.00000000000E+00 0.  1.
         13    1    5    5    0    0  0.10619139616E+03 -0.22881647888E+02  0.76243054522E+01  0.10889587899E+03  0.00000000000E+00 0. -1.
        -13    1    5    5    0    0  0.38554465452E+03  0.60135889692E+02 -0.71535268492E+02  0.39670934007E+03  0.00000000000E+00 0.  1.
          1    1    6    6  503    0 -0.17335407897E+03 -0.94061984193E+02 -0.28025931855E+03  0.34270188094E+03  0.00000000000E+00 0. -1.
         -1    1    6    6    0  503 -0.12072264166E+03 -0.87429652543E+02 -0.10365271713E+03  0.18155381054E+03  0.00000000000E+00 0.  1.
<mgrwt>
<rscale>  0 0.13823509E+04</rscale>
<asrwt>0</asrwt>
<pdfrwt beam="1">  1        2 0.23562088E+00 0.13823509E+04</pdfrwt>
<pdfrwt beam="2">  1       -1 0.47988387E-01 0.13823509E+04</pdfrwt>
<totfact> 0.58703238E+01</totfact>
</mgrwt>
</event>
<event>
12    7  0.1675873E-007  0.1833804E+04  0.7818608E-02  0.8688527E-01
          2   -1    0    0  501    0  0.00000000000E+00  0.00000000000E+00  0.95456921354E+03  0.95456921354E+03  0.00000000000E+00 0. -1.
         -1   -1    0    0    0  501 -0.00000000000E+00 -0.00000000000E+00 -0.88072079131E+03  0.88072079131E+03  0.00000000000E+00 0.  1.
         24    2    1    2    0    0 -0.35964057969E+03 -0.16714460135E+03  0.60813407302E+03  0.73003908727E+03  0.76494142696E+02 0.  0.
        254    2    1    2    0    0  0.35964057969E+03  0.16714460135E+03 -0.53428565079E+03  0.11052509176E+04  0.88251899121E+03 0.  0.
         23    2    4    4    0    0  0.49830408075E+03  0.37011361347E+03 -0.15647842910E+03  0.64668380278E+03  0.91779072963E+02 0.  0.
         23    2    4    4    0    0 -0.13866350106E+03 -0.20296901212E+03 -0.37780722169E+03  0.45856711480E+03  0.84389072781E+02 0.  0.
          2    1    3    3  502    0 -0.32933800452E+03 -0.13977017355E+03  0.50305099439E+03  0.61730019082E+03  0.00000000000E+00 0. -1.
         -1    1    3    3    0  502 -0.30302575168E+02 -0.27374427803E+02  0.10508307863E+03  0.11273889645E+03  0.00000000000E+00 0.  1.
         13    1    5    5    0    0  0.46670646003E+01  0.70288398938E+01  0.86033090844E+01  0.12050021138E+02  0.00000000000E+00 0. -1.
        -13    1    5    5    0    0  0.49363701615E+03  0.36308477358E+03 -0.16508173819E+03  0.63463378164E+03  0.00000000000E+00 0.  1.
          3    1    6    6  503    0  0.72891037498E+01  0.94093822681E+00 -0.37964059631E+01  0.82721881300E+01  0.00000000000E+00 0. -1.
         -3    1    6    6    0  503 -0.14595260481E+03 -0.20390995035E+03 -0.37401081572E+03  0.45029492667E+03  0.00000000000E+00 0.  1.
<mgrwt>
<rscale>  0 0.18338036E+04</rscale>
<asrwt>0</asrwt>
<pdfrwt beam="1">  1        2 0.14685680E+00 0.18338036E+04</pdfrwt>
<pdfrwt beam="2">  1       -1 0.13549551E+00 0.18338036E+04</pdfrwt>
<totfact> 0.13218617E+01</totfact>
</mgrwt>
</event>
<event>
12    7  0.1675873E-007  0.2178295E+04  0.7818608E-02  0.8527517E-01
          2   -1    0    0  501    0  0.00000000000E+00  0.00000000000E+00  0.77696528422E+03  0.77696528422E+03  0.00000000000E+00 0. -1.
         -1   -1    0    0    0  501 -0.00000000000E+00 -0.00000000000E+00 -0.15267641271E+04  0.15267641271E+04  0.00000000000E+00 0.  1.
         24    2    1    2    0    0 -0.77829327567E+03  0.55537568606E+02  0.17309410821E+03  0.80299073613E+03  0.77509402829E+02 0.  0.
        254    2    1    2    0    0  0.77829327567E+03 -0.55537568606E+02 -0.92289295108E+03  0.15007386752E+04  0.88975295873E+03 0.  0.
         23    2    4    4    0    0  0.18429571175E+03  0.18964045139E+03  0.93645027490E+02  0.29455370453E+03  0.89800242234E+02 0.  0.
         23    2    4    4    0    0  0.59399756392E+03 -0.24517802000E+03 -0.10165379786E+04  0.12061849707E+04  0.92667977886E+02 0.  0.
          4    1    3    3  502    0 -0.72423405068E+03  0.41708326766E+02  0.17806915407E+03  0.74696932220E+03  0.00000000000E+00 0. -1.
         -3    1    3    3    0  502 -0.54059224992E+02  0.13829241840E+02 -0.49750458555E+01  0.56021413923E+02  0.00000000000E+00 0.  1.
         13    1    5    5    0    0  0.18261260650E+02  0.56292129183E+02  0.49317263214E+02  0.77035510639E+02  0.00000000000E+00 0. -1.
        -13    1    5    5    0    0  0.16603445110E+03  0.13334832221E+03  0.44327764276E+02  0.21751819389E+03  0.00000000000E+00 0.  1.
          1    1    6    6  503    0  0.53746783337E+03 -0.19085656959E+03 -0.87753341232E+03  0.10465958111E+04  0.00000000000E+00 0.  1.
         -1    1    6    6    0  503  0.56529730551E+02 -0.54321450414E+02 -0.13900456626E+03  0.15958915957E+03  0.00000000000E+00 0. -1.
<mgrwt>
<rscale>  0 0.21782954E+04</rscale>
<asrwt>0</asrwt>
<pdfrwt beam="1">  1        2 0.11953312E+00 0.21782954E+04</pdfrwt>
<pdfrwt beam="2">  1       -1 0.23488679E+00 0.21782954E+04</pdfrwt>
<totfact> 0.32775571E+00</totfact>
</mgrwt>
</event>
<event>
12    7  0.1675873E-007  0.1450862E+04  0.7818608E-02  0.8917803E-01
          2   -1    0    0  501    0  0.00000000000E+00  0.00000000000E+00  0.10746996765E+04  0.10746996765E+04  0.00000000000E+00 0. -1.
         -1   -1    0    0    0  501 -0.00000000000E+00 -0.00000000000E+00 -0.48967204943E+03  0.48967204943E+03  0.00000000000E+00 0.  1.
         24    2    1    2    0    0 -0.34086922961E+03  0.43149060405E+02 -0.12217461433E+03  0.37353201883E+03  0.80906486758E+02 0.  0.
        254    2    1    2    0    0  0.34086922961E+03 -0.43149060405E+02  0.70720224141E+03  0.11908397071E+04  0.89437717136E+03 0.  0.
         23    2    4    4    0    0  0.52966128265E+03 -0.19044194860E+03  0.73749730338E+03  0.93269499579E+03  0.95960786557E+02 0.  0.
         23    2    4    4    0    0 -0.18879205304E+03  0.14729288820E+03 -0.30295061972E+02  0.25814471131E+03  0.91560182356E+02 0.  0.
          4    1    3    3  502    0 -0.20364026726E+02  0.21263141573E+02 -0.22874461963E+02  0.37283451881E+02  0.00000000000E+00 0. -1.
         -3    1    3    3    0  502 -0.32050520288E+03  0.21885918832E+02 -0.99300152365E+02  0.33624856695E+03  0.00000000000E+00 0.  1.
         13    1    5    5    0    0  0.34342816604E+02 -0.28969353591E+02  0.29783738766E+02  0.53904764118E+02  0.00000000000E+00 0.  1.
        -13    1    5    5    0    0  0.49531846605E+03 -0.16147259501E+03  0.70771356462E+03  0.87879023167E+03  0.00000000000E+00 0. -1.
          1    1    6    6  503    0 -0.13118223858E+03  0.63153279493E+02 -0.50668322299E+02  0.15415704756E+03  0.00000000000E+00 0. -1.
         -1    1    6    6    0  503 -0.57609814465E+02  0.84139608704E+02  0.20373260327E+02  0.10398766375E+03  0.00000000000E+00 0.  1.
<mgrwt>
<rscale>  0 0.14508624E+04</rscale>
<asrwt>0</asrwt>
<pdfrwt beam="1">  1        2 0.16533841E+00 0.14508624E+04</pdfrwt>
<pdfrwt beam="2">  1       -1 0.75334162E-01 0.14508624E+04</pdfrwt>
<totfact> 0.44264228E+01</totfact>
</mgrwt>
</event>
<event>
12    7  0.1675873E-007  0.1390482E+04  0.7818608E-02  0.8960737E-01
          2   -1    0    0  501    0  0.00000000000E+00  0.00000000000E+00  0.91132820130E+03  0.91132820130E+03  0.00000000000E+00 0. -1.
         -1   -1    0    0    0  501 -0.00000000000E+00 -0.00000000000E+00 -0.53039069898E+03  0.53039069898E+03  0.00000000000E+00 0.  1.
         24    2    1    2    0    0  0.13676111091E+02  0.39523723115E+03  0.14389614720E+03  0.42875484528E+03  0.82006775768E+02 0.  0.
        254    2    1    2    0    0 -0.13676111091E+02 -0.39523723115E+03  0.23704135512E+03  0.10129640550E+04  0.90194682093E+03 0.  0.
         23    2    4    4    0    0 -0.44720654670E+03 -0.23947692532E+03  0.11821033498E+03  0.52839606306E+03  0.88802156404E+02 0.  0.
         23    2    4    4    0    0  0.43353043561E+03 -0.15576030582E+03  0.11883102013E+03  0.48456799194E+03  0.92062022566E+02 0.  0.
          2    1    3    3  502    0 -0.36765530562E+01  0.38061703111E+03  0.13038911765E+03  0.40234831106E+03  0.00000000000E+00 0. -1.
         -1    1    3    3    0  502  0.17352664147E+02  0.14620200040E+02  0.13507029551E+02  0.26406534220E+02  0.00000000000E+00 0.  1.
         13    1    5    5    0    0 -0.29957129091E+03 -0.19078140704E+03  0.11353070021E+03  0.37286689783E+03  0.00000000000E+00 0.  1.
        -13    1    5    5    0    0 -0.14763525579E+03 -0.48695518281E+02  0.46796347747E+01  0.15552916522E+03  0.00000000000E+00 0. -1.
          3    1    6    6  503    0  0.35661697418E+03 -0.13078259023E+03  0.59969129856E+02  0.38454654948E+03  0.00000000000E+00 0. -1.
         -3    1    6    6    0  503  0.76913461430E+02 -0.24977715595E+02  0.58861890278E+02  0.10002144246E+03  0.00000000000E+00 0.  1.
<mgrwt>
<rscale>  0 0.13904819E+04</rscale>
<asrwt>0</asrwt>
<pdfrwt beam="1">  1        2 0.14020434E+00 0.13904819E+04</pdfrwt>
<pdfrwt beam="2">  1       -1 0.81598569E-01 0.13904819E+04</pdfrwt>
<totfact> 0.47897151E+01</totfact>
</mgrwt>
</event>
<event>
12    7  0.1675873E-007  0.1285159E+04  0.7818608E-02  0.9041418E-01
          2   -1    0    0  501    0  0.00000000000E+00  0.00000000000E+00  0.16713436484E+04  0.16713436484E+04  0.00000000000E+00 0. -1.
         -1   -1    0    0    0  501 -0.00000000000E+00 -0.00000000000E+00 -0.24705176496E+03  0.24705176496E+03  0.00000000000E+00 0.  1.
         24    2    1    2    0    0  0.19491654164E+03 -0.93536088998E+02  0.11788233102E+02  0.23047123001E+03  0.78971939775E+02 0.  0.
        254    2    1    2    0    0 -0.19491654164E+03  0.93536088998E+02  0.14125036503E+04  0.16879241834E+04  0.89843198315E+03 0.  0.
         23    2    4    4    0    0  0.24638456794E+03  0.25395884729E+03  0.96939927186E+03  0.10360555816E+04  0.92063937028E+02 0.  0.
         23    2    4    4    0    0 -0.44130110958E+03 -0.16042275830E+03  0.44310437849E+03  0.65186860173E+03  0.90050280324E+02 0.  0.
          2    1    3    3  502    0  0.15981015967E+02 -0.21139285035E+02 -0.22083349007E+02  0.34495456897E+02  0.00000000000E+00 0. -1.
         -1    1    3    3    0  502  0.17893552568E+03 -0.72396803964E+02  0.33871582110E+02  0.19597577311E+03  0.00000000000E+00 0.  1.
         13    1    5    5    0    0  0.28158308420E+02  0.37955056690E+02  0.24089326940E+03  0.24548532320E+03  0.00000000000E+00 0. -1.
        -13    1    5    5    0    0  0.21822625952E+03  0.21600379060E+03  0.72850600246E+03  0.79057025843E+03  0.00000000000E+00 0.  1.
          1    1    6    6  503    0 -0.17407117174E+03 -0.10889903457E+03  0.20721631906E+03  0.29171625846E+03  0.00000000000E+00 0. -1.
         -1    1    6    6    0  503 -0.26722993784E+03 -0.51523723721E+02  0.23588805943E+03  0.36015234327E+03  0.00000000000E+00 0.  1.
<mgrwt>
<rscale>  0 0.12851590E+04</rscale>
<asrwt>0</asrwt>
<pdfrwt beam="1">  1        2 0.25712979E+00 0.12851590E+04</pdfrwt>
<pdfrwt beam="2">  1       -1 0.38007965E-01 0.12851590E+04</pdfrwt>
<totfact> 0.76029439E+01</totfact>
</mgrwt>
</event>
<event>
12    7  0.1675873E-007  0.2089345E+04  0.7818608E-02  0.8565952E-01
          2   -1    0    0  501    0  0.00000000000E+00  0.00000000000E+00  0.16944990097E+04  0.16944990097E+04  0.00000000000E+00 0. -1.
         -1   -1    0    0    0  501 -0.00000000000E+00 -0.00000000000E+00 -0.64404917351E+03  0.64404917351E+03  0.00000000000E+00 0.  1.
         24    2    1    2    0    0  0.42075821934E+03 -0.34539058771E+03  0.11536263003E+04  0.12782909414E+04  0.82716097674E+02 0.  0.
        254    2    1    2    0    0 -0.42075821934E+03  0.34539058771E+03 -0.10317646410E+03  0.10602572419E+04  0.90397339505E+03 0.  0.
         23    2    4    4    0    0  0.21016288225E+03 -0.52547967076E+02 -0.19122747751E+03  0.30296915649E+03  0.91063910030E+02 0.  0.
         23    2    4    4    0    0 -0.63092110159E+03  0.39793855479E+03  0.88051013407E+02  0.75728808537E+03  0.96518047366E+02 0.  0.
          2    1    3    3  502    0  0.10591351981E+03 -0.91205117985E+02  0.38628406309E+03  0.41079365212E+03  0.00000000000E+00 0. -1.
         -1    1    3    3    0  502  0.31484469953E+03 -0.25418546972E+03  0.76734223720E+03  0.86749728924E+03  0.00000000000E+00 0.  1.
         13    1    5    5    0    0  0.27315265580E+01  0.37108238193E+01 -0.39777465443E+02  0.40043453995E+02  0.00000000000E+00 0. -1.
        -13    1    5    5    0    0  0.20743135570E+03 -0.56258790895E+02 -0.15145001206E+03  0.26292570250E+03  0.00000000000E+00 0.  1.
          3    1    6    6  503    0 -0.13072196551E+03  0.45270022970E+02  0.36635131805E+02  0.14310744261E+03  0.00000000000E+00 0. -1.
         -3    1    6    6    0  503 -0.50019913608E+03  0.35266853182E+03  0.51415881603E+02  0.61418064276E+03  0.00000000000E+00 0.  1.
<mgrwt>
<rscale>  0 0.20893451E+04</rscale>
<asrwt>0</asrwt>
<pdfrwt beam="1">  1        2 0.26069215E+00 0.20893451E+04</pdfrwt>
<pdfrwt beam="2">  1       -1 0.99084489E-01 0.20893451E+04</pdfrwt>
<totfact> 0.10098048E+01</totfact>
</mgrwt>
</event>
<event>
12    7  0.1675873E-007  0.1449905E+04  0.7818608E-02  0.8918467E-01
          2   -1    0    0  501    0  0.00000000000E+00  0.00000000000E+00  0.43468126580E+03  0.43468126580E+03  0.00000000000E+00 0. -1.
         -1   -1    0    0    0  501 -0.00000000000E+00 -0.00000000000E+00 -0.12090604793E+04  0.12090604793E+04  0.00000000000E+00 0.  1.
         24    2    1    2    0    0  0.15358836519E+02  0.11705128002E+03  0.24361585179E+03  0.28174026395E+03  0.78051246483E+02 0.  0.
        254    2    1    2    0    0 -0.15358836519E+02 -0.11705128002E+03 -0.10179950653E+04  0.13620014811E+04  0.89710489112E+03 0.  0.
         23    2    4    4    0    0 -0.25643298871E+03  0.23064033773E+03 -0.80199995405E+03  0.87774563644E+03  0.90997982889E+02 0.  0.
         23    2    4    4    0    0  0.24107415220E+03 -0.34769161775E+03 -0.21599511120E+03  0.48425584468E+03  0.94040561127E+02 0.  0.
          4    1    3    3  502    0 -0.42434122826E+01  0.25615175681E+02  0.13907392818E+03  0.14147685773E+03  0.00000000000E+00 0. -1.
         -3    1    3    3    0  502  0.19602248802E+02  0.91436104341E+02  0.10454192361E+03  0.14026340623E+03  0.00000000000E+00 0.  1.
         13    1    5    5    0    0 -0.26001281825E+03  0.20621051547E+03 -0.73970799056E+03  0.81073877029E+03  0.00000000000E+00 0. -1.
        -13    1    5    5    0    0  0.35798295397E+01  0.24429822263E+02 -0.62291963490E+02  0.67006866147E+02  0.00000000000E+00 0.  1.
          4    1    6    6  503    0  0.82126550610E+02 -0.79848804818E+02 -0.99503516942E+02  0.15172854652E+03  0.00000000000E+00 0. -1.
         -4    1    6    6    0  503  0.15894760159E+03 -0.26784281293E+03 -0.11649159425E+03  0.33252729816E+03  0.00000000000E+00 0.  1.
<mgrwt>
<rscale>  0 0.14499047E+04</rscale>
<asrwt>0</asrwt>
<pdfrwt beam="1">  1        2 0.66874042E-01 0.14499047E+04</pdfrwt>
<pdfrwt beam="2">  1       -1 0.18600930E+00 0.14499047E+04</pdfrwt>
<totfact> 0.15130684E+01</totfact>
</mgrwt>
</event>
<event>
12    7  0.1675873E-007  0.1200787E+04  0.7818608E-02  0.9112168E-01
          2   -1    0    0  501    0  0.00000000000E+00  0.00000000000E+00  0.30699468465E+04  0.30699468465E+04  0.00000000000E+00 0. -1.
         -1   -1    0    0    0  501 -0.00000000000E+00 -0.00000000000E+00 -0.11741970501E+03  0.11741970501E+03  0.00000000000E+00 0.  1.
         24    2    1    2    0    0 -0.49852537221E+02 -0.22471112425E+03  0.86029643997E+03  0.89412349838E+03  0.79790355938E+02 0.  0.
        254    2    1    2    0    0  0.49852537221E+02  0.22471112425E+03  0.20922307015E+04  0.22932430531E+04  0.91024943149E+03 0.  0.
         23    2    4    4    0    0 -0.37869258132E+02  0.92330960999E+02  0.21090124562E+04  0.21133894853E+04  0.92317329038E+02 0.  0.
         23    2    4    4    0    0  0.87721795354E+02  0.13238016325E+03 -0.16781754687E+02  0.17985356779E+03  0.82740906186E+02 0.  0.
          2    1    3    3  502    0 -0.23422376553E+01 -0.59543666111E+01  0.13304555329E+03  0.13319932361E+03  0.00000000000E+00 0. -1.
         -1    1    3    3    0  502 -0.47510299566E+02 -0.21875675763E+03  0.72725088667E+03  0.76092417477E+03  0.00000000000E+00 0.  1.
         13    1    5    5    0    0  0.15585416449E+02  0.62068468006E+01  0.89361036432E+03  0.89376781850E+03  0.00000000000E+00 0.  1.
        -13    1    5    5    0    0 -0.53454674582E+02  0.86124114199E+02  0.12154020919E+04  0.12196216668E+04  0.00000000000E+00 0. -1.
          1    1    6    6  503    0  0.11433405105E+02 -0.10473773723E+02  0.53449581590E+01  0.16400953205E+02  0.00000000000E+00 0. -1.
         -1    1    6    6    0  503  0.76288390249E+02  0.14285393697E+03 -0.22126712846E+02  0.16345261459E+03  0.00000000000E+00 0.  1.
<mgrwt>
<rscale>  0 0.12007868E+04</rscale>
<asrwt>0</asrwt>
<pdfrwt beam="1">  1        2 0.47229945E+00 0.12007868E+04</pdfrwt>
<pdfrwt beam="2">  1       -1 0.18064572E-01 0.12007868E+04</pdfrwt>
<totfact> 0.43527398E+01</totfact>
</mgrwt>
</event>
<event>
12    7  0.1675873E-007  0.1784620E+04  0.7818608E-02  0.8714522E-01
          2   -1    0    0  501    0  0.00000000000E+00  0.00000000000E+00  0.31141372741E+04  0.31141372741E+04  0.00000000000E+00 0. -1.
         -1   -1    0    0    0  501 -0.00000000000E+00 -0.00000000000E+00 -0.25567809814E+03  0.25567809814E+03  0.00000000000E+00 0.  1.
         24    2    1    2    0    0 -0.48551145974E+03 -0.19906180604E+03  0.19165225432E+04  0.19885902617E+04  0.78010193200E+02 0.  0.
        254    2    1    2    0    0  0.48551145974E+03  0.19906180604E+03  0.94193663274E+03  0.13812251105E+04  0.86324458041E+03 0.  0.
         23    2    4    4    0    0 -0.72115132662E+02  0.28575964788E+03  0.69108238174E+03  0.75709362684E+03  0.93470491257E+02 0.  0.
         23    2    4    4    0    0  0.55762659241E+03 -0.86697841843E+02  0.25085425100E+03  0.62413148366E+03  0.90268052527E+02 0.  0.
          4    1    3    3  502    0 -0.47615085581E+03 -0.20090821954E+03  0.18309756560E+04  0.19025129705E+04  0.00000000000E+00 0. -1.
         -3    1    3    3    0  502 -0.93606039362E+01  0.18464135020E+01  0.85546887225E+02  0.86077291214E+02  0.00000000000E+00 0.  1.
         13    1    5    5    0    0 -0.75854898602E+02  0.26074636676E+03  0.54576424036E+03  0.60959104281E+03  0.00000000000E+00 0.  1.
        -13    1    5    5    0    0  0.37397659399E+01  0.25013281129E+02  0.14531814138E+03  0.14750258403E+03  0.00000000000E+00 0. -1.
          3    1    6    6  503    0  0.11134275232E+03 -0.54739644549E+02  0.55186188215E+02  0.13579084118E+03  0.00000000000E+00 0. -1.
         -3    1    6    6    0  503  0.44628384009E+03 -0.31958197294E+02  0.19566806279E+03  0.48834064248E+03  0.00000000000E+00 0.  1.
<mgrwt>
<rscale>  0 0.17846195E+04</rscale>
<asrwt>0</asrwt>
<pdfrwt beam="1">  1        2 0.47909802E+00 0.17846195E+04</pdfrwt>
<pdfrwt beam="2">  1       -1 0.39335094E-01 0.17846195E+04</pdfrwt>
<totfact> 0.10009865E+01</totfact>
</mgrwt>
</event>
<event>
12    7  0.1675873E-007  0.2080747E+04  0.7818608E-02  0.8569772E-01
         -3   -1    0    0    0  501 -0.00000000000E+00  0.00000000000E+00  0.41813852151E+03  0.41813852151E+03  0.00000000000E+00 0.  1.
          2   -1    0    0  501    0  0.00000000000E+00 -0.00000000000E+00 -0.25885604635E+04  0.25885604635E+04  0.00000000000E+00 0. -1.
         24    2    1    2    0    0 -0.76398227864E+02 -0.55967920182E+02 -0.20954645929E+04  0.20990497818E+04  0.77903975677E+02 0.  0.
        254    2    1    2    0    0  0.76398227864E+02  0.55967920182E+02 -0.74957349172E+02  0.90764920320E+03  0.89957733107E+03 0.  0.
         23    2    4    4    0    0  0.44769675543E+03  0.34696279919E+02 -0.20499405396E+03  0.50243431572E+03  0.93709459432E+02 0.  0.
         23    2    4    4    0    0 -0.37129852757E+03  0.21271640263E+02  0.13003670479E+03  0.40521488749E+03  0.94733738429E+02 0.  0.
          4    1    3    3  502    0 -0.73443207541E+02 -0.66471921061E+02 -0.20459725037E+04  0.20483690846E+04  0.00000000000E+00 0. -1.
         -3    1    3    3    0  502 -0.29550203227E+01  0.10504000880E+02 -0.49492089174E+02  0.50680697217E+02  0.00000000000E+00 0.  1.
         13    1    5    5    0    0  0.11772380703E+02 -0.94228609862E+01  0.58722415733E+01  0.16182165420E+02  0.00000000000E+00 0. -1.
        -13    1    5    5    0    0  0.43592437473E+03  0.44119140905E+02 -0.21086629553E+03  0.48625215030E+03  0.00000000000E+00 0.  1.
          1    1    6    6  503    0 -0.10583858330E+03  0.18403661694E+02  0.82654184106E+02  0.13554414273E+03  0.00000000000E+00 0. -1.
         -1    1    6    6    0  503 -0.26545994426E+03  0.28679785686E+01  0.47382520683E+02  0.26967074475E+03  0.00000000000E+00 0.  1.
<mgrwt>
<rscale>  0 0.20807468E+04</rscale>
<asrwt>0</asrwt>
<pdfrwt beam="1">  1        2 0.39824007E+00 0.20807468E+04</pdfrwt>
<pdfrwt beam="2">  1       -3 0.64329004E-01 0.20807468E+04</pdfrwt>
<totfact> 0.42934620E+00</totfact>
</mgrwt>
</event>
<event>
12    7  0.1675873E-007  0.1146011E+04  0.7818608E-02  0.9161472E-01
          4   -1    0    0  501    0  0.00000000000E+00  0.00000000000E+00  0.19134889441E+03  0.19134889441E+03  0.00000000000E+00 0. -1.
         -3   -1    0    0    0  501 -0.00000000000E+00 -0.00000000000E+00 -0.17158976117E+04  0.17158976117E+04  0.00000000000E+00 0.  1.
         24    2    1    2    0    0 -0.94023400005E+02  0.17715828136E+03 -0.36552015970E+03  0.42710443378E+03  0.92670134368E+02 0.  0.
        254    2    1    2    0    0  0.94023400005E+02 -0.17715828136E+03 -0.11590285576E+04  0.14801420723E+04  0.89846975497E+03 0.  0.
         23    2    4    4    0    0  0.45708796142E+03  0.29003798576E+02 -0.42820920726E+03  0.63353163597E+03  0.90711541645E+02 0.  0.
         23    2    4    4    0    0 -0.36306456141E+03 -0.20616207993E+03 -0.73081935033E+03  0.84661043637E+03  0.91288713411E+02 0.  0.
          4    1    3    3  502    0 -0.67181761813E+02  0.13886411199E+03 -0.34107151251E+03  0.37433461952E+03  0.00000000000E+00 0. -1.
         -3    1    3    3    0  502 -0.26841638192E+02  0.38294169364E+02 -0.24448647190E+02  0.52769814265E+02  0.00000000000E+00 0.  1.
         13    1    5    5    0    0  0.12810066494E+03  0.87959788566E+01 -0.68069836408E+02  0.14532946098E+03  0.00000000000E+00 0. -1.
        -13    1    5    5    0    0  0.32898729648E+03  0.20207819719E+02 -0.36013937085E+03  0.48820217498E+03  0.00000000000E+00 0.  1.
          2    1    6    6  503    0 -0.21629137992E+03 -0.81849068007E+02 -0.45429189690E+03  0.50976696495E+03  0.00000000000E+00 0. -1.
         -2    1    6    6    0  503 -0.14677318150E+03 -0.12431301193E+03 -0.27652745342E+03  0.33684347142E+03  0.00000000000E+00 0.  1.
<mgrwt>
<rscale>  0 0.11460107E+04</rscale>
<asrwt>0</asrwt>
<pdfrwt beam="1">  1        4 0.29438291E-01 0.11460107E+04</pdfrwt>
<pdfrwt beam="2">  1       -3 0.26398425E+00 0.11460107E+04</pdfrwt>
<totfact> 0.15473703E+00</totfact>
</mgrwt>
</event>
<event>
12    7  0.1675873E-007  0.3803801E+04  0.7818608E-02  0.8045340E-01
          2   -1    0    0  501    0  0.00000000000E+00  0.00000000000E+00  0.42523436843E+04  0.42523436843E+04  0.00000000000E+00 0. -1.
         -1   -1    0    0    0  501 -0.00000000000E+00 -0.00000000000E+00 -0.85064268189E+03  0.85064268189E+03  0.00000000000E+00 0.  1.
         24    2    1    2    0    0 -0.12173141183E+04  0.84306522961E+03  0.29778757449E+04  0.33266670836E+04  0.79732610279E+02 0.  0.
        254    2    1    2    0    0  0.12173141183E+04 -0.84306522961E+03  0.42382525745E+03  0.17763192825E+04  0.88491225592E+03 0.  0.
         23    2    4    4    0    0  0.70899108020E+03 -0.30245649646E+03  0.63153756031E+03  0.10004717502E+04  0.89195004909E+02 0.  0.
         23    2    4    4    0    0  0.50832303809E+03 -0.54060873315E+03 -0.20771230286E+03  0.77584753229E+03  0.90248984390E+02 0.  0.
          4    1    3    3  502    0 -0.77012674851E+03  0.55508269324E+03  0.19834849523E+04  0.21989598817E+04  0.00000000000E+00 0. -1.
         -3    1    3    3    0  502 -0.44718736978E+03  0.28798253637E+03  0.99439079263E+03  0.11277072020E+04  0.00000000000E+00 0.  1.
         13    1    5    5    0    0  0.27264623461E+03 -0.15843979285E+03  0.23082801867E+03  0.39079497363E+03  0.00000000000E+00 0. -1.
        -13    1    5    5    0    0  0.43634484558E+03 -0.14401670362E+03  0.40070954164E+03  0.60967677662E+03  0.00000000000E+00 0.  1.
          3    1    6    6  503    0  0.30151864013E+03 -0.37485345152E+03 -0.15670875325E+03  0.50595082153E+03  0.00000000000E+00 0. -1.
         -3    1    6    6    0  503  0.20680439796E+03 -0.16575528163E+03 -0.51003549615E+02  0.26989671076E+03  0.00000000000E+00 0.  1.
<mgrwt>
<rscale>  0 0.38038007E+04</rscale>
<asrwt>0</asrwt>
<pdfrwt beam="1">  1        2 0.65420671E+00 0.38038007E+04</pdfrwt>
<pdfrwt beam="2">  1       -1 0.13086811E+00 0.38038007E+04</pdfrwt>
<totfact> 0.94420762E-02</totfact>
</mgrwt>
</event>
<event>
12    7  0.1675873E-007  0.2743442E+04  0.7818608E-02  0.8321046E-01
          2   -1    0    0  501    0  0.00000000000E+00  0.00000000000E+00  0.33636691304E+04  0.33636691304E+04  0.00000000000E+00 0. -1.
         -1   -1    0    0    0  501 -0.00000000000E+00 -0.00000000000E+00 -0.55939479249E+03  0.55939479249E+03  0.00000000000E+00 0.  1.
         24    2    1    2    0    0  0.11120078237E+04  0.40228387307E+03  0.80893824426E+03  0.14350842241E+04  0.81804233743E+02 0.  0.
        254    2    1    2    0    0 -0.11120078237E+04 -0.40228387307E+03  0.19953360937E+04  0.24879796989E+04  0.90015728664E+03 0.  0.
         23    2    4    4    0    0 -0.10469424278E+04 -0.63207670383E+03  0.15725708667E+04  0.19941595649E+04  0.89910137395E+02 0.  0.
         23    2    4    4    0    0 -0.65065395865E+02  0.22979283076E+03  0.42276522696E+03  0.49382013393E+03  0.89942407932E+02 0.  0.
          2    1    3    3  502    0  0.30575829970E+03  0.14353542996E+03  0.25528237711E+03  0.42339065832E+03  0.00000000000E+00 0. -1.
         -1    1    3    3    0  502  0.80624952398E+03  0.25874844311E+03  0.55365586715E+03  0.10116935657E+04  0.00000000000E+00 0.  1.
         13    1    5    5    0    0 -0.96066041509E+03 -0.60711044845E+03  0.14594397226E+04  0.18497069589E+04  0.00000000000E+00 0. -1.
        -13    1    5    5    0    0 -0.86282012728E+02 -0.24966255380E+02  0.11313114410E+03  0.14445260605E+03  0.00000000000E+00 0.  1.
          1    1    6    6  503    0 -0.55809915164E+02  0.21673818089E+03  0.42214672189E+03  0.47780544209E+03  0.00000000000E+00 0. -1.
         -1    1    6    6    0  503 -0.92554807002E+01  0.13054649871E+02  0.61850506289E+00  0.16014691841E+02  0.00000000000E+00 0.  1.
<mgrwt>
<rscale>  0 0.27434424E+04</rscale>
<asrwt>0</asrwt>
<pdfrwt beam="1">  1        2 0.51748755E+00 0.27434424E+04</pdfrwt>
<pdfrwt beam="2">  1       -1 0.86060739E-01 0.27434424E+04</pdfrwt>
<totfact> 0.13362502E+00</totfact>
</mgrwt>
</event>
<event>
12    7  0.1675873E-007  0.1570490E+04  0.7818608E-02  0.8838885E-01
         -1   -1    0    0    0  501 -0.00000000000E+00  0.00000000000E+00  0.18301049461E+03  0.18301049461E+03  0.00000000000E+00 0.  1.
          2   -1    0    0  501    0  0.00000000000E+00 -0.00000000000E+00 -0.33692608530E+04  0.33692608530E+04  0.00000000000E+00 0. -1.
         24    2    1    2    0    0  0.35322113916E+03 -0.37864857865E+03 -0.12407752285E+04  0.13470776332E+04  0.83397020945E+02 0.  0.
        254    2    1    2    0    0 -0.35322113916E+03  0.37864857865E+03 -0.19454751299E+04  0.22051937144E+04  0.89992550667E+03 0.  0.
         23    2    4    4    0    0 -0.24279203256E+03  0.42128020315E+03 -0.19895432359E+04  0.20507131263E+04  0.10352322624E+03 0.  0.
         23    2    4    4    0    0 -0.11042910659E+03 -0.42631624491E+02  0.44068105997E+02  0.15448058803E+03  0.88939367678E+02 0.  0.
          4    1    3    3  502    0  0.51225009545E+02 -0.51820070146E+02 -0.26106563216E+03  0.27104351232E+03  0.00000000000E+00 0. -1.
         -3    1    3    3    0  502  0.30199612961E+03 -0.32682850851E+03 -0.97970959631E+03  0.10760341209E+04  0.00000000000E+00 0.  1.
         13    1    5    5    0    0 -0.15298792577E+03  0.16507599248E+03 -0.85273799051E+03  0.88193960632E+03  0.00000000000E+00 0. -1.
        -13    1    5    5    0    0 -0.89804106793E+02  0.25620421067E+03 -0.11368052454E+04  0.11687735200E+04  0.00000000000E+00 0.  1.
          3    1    6    6  503    0  0.51577703258E+01  0.15813141284E+02 -0.25429027099E+01  0.16826300431E+02  0.00000000000E+00 0. -1.
         -3    1    6    6    0  503 -0.11558687692E+03 -0.58444765775E+02  0.46611008707E+02  0.13765428760E+03  0.00000000000E+00 0.  1.
<mgrwt>
<rscale>  0 0.15704905E+04</rscale>
<asrwt>0</asrwt>
<pdfrwt beam="1">  1        2 0.51834782E+00 0.15704905E+04</pdfrwt>
<pdfrwt beam="2">  1       -1 0.28155461E-01 0.15704905E+04</pdfrwt>
<totfact> 0.12618857E+01</totfact>
</mgrwt>
</event>
<event>
12    7  0.1675873E-007  0.3444949E+04  0.7818608E-02  0.8126962E-01
         -1   -1    0    0    0  501 -0.00000000000E+00  0.00000000000E+00  0.22544551246E+04  0.22544551246E+04  0.00000000000E+00 0.  1.
          2   -1    0    0  501    0  0.00000000000E+00 -0.00000000000E+00 -0.13160242384E+04  0.13160242384E+04  0.00000000000E+00 0. -1.
         24    2    1    2    0    0 -0.73282833638E+03 -0.13789679155E+04  0.24205567543E+03  0.15823917190E+04  0.82357269462E+02 0.  0.
        254    2    1    2    0    0  0.73282833638E+03  0.13789679155E+04  0.69637521077E+03  0.19880876439E+04  0.10143787080E+04 0.  0.
         23    2    4    4    0    0  0.10022244858E+03 -0.67292059843E+02  0.33226243764E+03  0.36554171683E+03  0.93003541674E+02 0.  0.
         23    2    4    4    0    0  0.63260588780E+03  0.14462599753E+04  0.36411277313E+03  0.16225459271E+04  0.90658967896E+02 0.  0.
          4    1    3    3  502    0 -0.36686407455E+03 -0.68265337404E+03  0.16163620363E+03  0.79166352739E+03  0.00000000000E+00 0. -1.
         -3    1    3    3    0  502 -0.36596426183E+03 -0.69631454145E+03  0.80419471805E+02  0.79072819162E+03  0.00000000000E+00 0.  1.
         13    1    5    5    0    0 -0.11976413688E+01 -0.82534368057E+01 -0.41017452006E+01  0.92939699615E+01  0.00000000000E+00 0. -1.
        -13    1    5    5    0    0  0.10142008994E+03 -0.59038623037E+02  0.33636418284E+03  0.35624774687E+03  0.00000000000E+00 0.  1.
          4    1    6    6  503    0  0.65044452588E+02  0.91173288973E+02  0.27967308906E+02  0.11543621530E+03  0.00000000000E+00 0. -1.
         -4    1    6    6    0  503  0.56756143521E+03  0.13550866864E+04  0.33614546422E+03  0.15071097118E+04  0.00000000000E+00 0.  1.
<mgrwt>
<rscale>  0 0.34449485E+04</rscale>
<asrwt>0</asrwt>
<pdfrwt beam="1">  1        2 0.20246527E+00 0.34449485E+04</pdfrwt>
<pdfrwt beam="2">  1       -1 0.34683925E+00 0.34449485E+04</pdfrwt>
<totfact> 0.24790720E-01</totfact>
</mgrwt>
</event>
<event>
12    7  0.1675873E-007  0.1144828E+04  0.7818608E-02  0.9162569E-01
          2   -1    0    0  501    0  0.00000000000E+00  0.00000000000E+00  0.93049162330E+03  0.93049162330E+03  0.00000000000E+00 0. -1.
         -1   -1    0    0    0  501 -0.00000000000E+00 -0.00000000000E+00 -0.35213378585E+03  0.35213378585E+03  0.00000000000E+00 0.  1.
         24    2    1    2    0    0 -0.25048053373E+03 -0.22321610568E+02  0.29962368431E+03  0.39866627674E+03  0.76952556371E+02 0.  0.
        254    2    1    2    0    0  0.25048053373E+03  0.22321610568E+02  0.27873415314E+03  0.88395913241E+03  0.80028261731E+03 0.  0.
         23    2    4    4    0    0  0.49338216158E+03  0.13530693045E+02 -0.22350844454E+01  0.50185662561E+03  0.90807709191E+02 0.  0.
         23    2    4    4    0    0 -0.24290162785E+03  0.87909175232E+01  0.28096923758E+03  0.38210250680E+03  0.89331585642E+02 0.  0.
          4    1    3    3  502    0 -0.18679831055E+03  0.79058647683E+01  0.25121291425E+03  0.31315178398E+03  0.00000000000E+00 0. -1.
         -3    1    3    3    0  502 -0.63682223180E+02 -0.30227475336E+02  0.48410770064E+02  0.85514492763E+02  0.00000000000E+00 0.  1.
         13    1    5    5    0    0  0.12570330706E+03 -0.35953136946E+02  0.41134605394E+01  0.13080852426E+03  0.00000000000E+00 0. -1.
        -13    1    5    5    0    0  0.36767885452E+03  0.49483829990E+02 -0.63485449848E+01  0.37104810135E+03  0.00000000000E+00 0.  1.
          3    1    6    6  503    0 -0.39301018898E+02  0.25642119835E+02  0.94463461387E+02  0.10547717257E+03  0.00000000000E+00 0. -1.
         -3    1    6    6    0  503 -0.20360060895E+03 -0.16851202311E+02  0.18650577620E+03  0.27662533423E+03  0.00000000000E+00 0.  1.
<mgrwt>
<rscale>  0 0.11448276E+04</rscale>
<asrwt>0</asrwt>
<pdfrwt beam="1">  1        2 0.14315256E+00 0.11448276E+04</pdfrwt>
<pdfrwt beam="2">  1       -1 0.54174429E-01 0.11448276E+04</pdfrwt>
<totfact> 0.10869980E+02</totfact>
</mgrwt>
</event>
<event>
12    7  0.1675873E-007  0.2981408E+04  0.7818608E-02  0.8249060E-01
          2   -1    0    0  501    0  0.00000000000E+00  0.00000000000E+00  0.34973883563E+04  0.34973883563E+04  0.00000000000E+00 0. -1.
         -1   -1    0    0    0  501 -0.00000000000E+00 -0.00000000000E+00 -0.63538804009E+03  0.63538804009E+03  0.00000000000E+00 0.  1.
         24    2    1    2    0    0 -0.39990682570E+03  0.27114511990E+01  0.30919481241E+04  0.31187178759E+04  0.79530910702E+02 0.  0.
        254    2    1    2    0    0  0.39990682570E+03 -0.27114511990E+01 -0.22994780790E+03  0.10140585205E+04  0.90305363490E+03 0.  0.
         23    2    4    4    0    0  0.48657696299E+03 -0.12099096484E+03  0.20313957618E+03  0.54854845474E+03  0.90795183245E+02 0.  0.
         23    2    4    4    0    0 -0.86670137288E+02  0.11827951364E+03 -0.43308738408E+03  0.46551006580E+03  0.87368089488E+02 0.  0.
          4    1    3    3  502    0 -0.30169786465E+03  0.25590400106E+02  0.24961527866E+04  0.25144492844E+04  0.00000000000E+00 0. -1.
         -1    1    3    3    0  502 -0.98208961050E+02 -0.22878948907E+02  0.59579533756E+03  0.60426859143E+03  0.00000000000E+00 0.  1.
         13    1    5    5    0    0  0.14186632670E+03 -0.79553323137E+01  0.24525256433E+02  0.14419025684E+03  0.00000000000E+00 0.  1.
        -13    1    5    5    0    0  0.34471063629E+03 -0.11303563253E+03  0.17861431975E+03  0.40435819790E+03  0.00000000000E+00 0. -1.
          1    1    6    6  503    0 -0.13733664552E+02  0.91370851035E+02 -0.21646722131E+03  0.23536206972E+03  0.00000000000E+00 0. -1.
         -1    1    6    6    0  503 -0.72936472736E+02  0.26908662608E+02 -0.21662016277E+03  0.23014799608E+03  0.00000000000E+00 0.  1.
<mgrwt>
<rscale>  0 0.29814082E+04</rscale>
<asrwt>0</asrwt>
<pdfrwt beam="1">  1        2 0.53805973E+00 0.29814082E+04</pdfrwt>
<pdfrwt beam="2">  1       -1 0.97752008E-01 0.29814082E+04</pdfrwt>
<totfact> 0.79762974E-01</totfact>
</mgrwt>
</event>
<event>
12    7  0.1675873E-007  0.1167075E+04  0.7818608E-02  0.9142174E-01
          2   -1    0    0  501    0  0.00000000000E+00  0.00000000000E+00  0.94823102730E+03  0.94823102730E+03  0.00000000000E+00 0. -1.
         -1   -1    0    0    0  501 -0.00000000000E+00 -0.00000000000E+00 -0.35910649433E+03  0.35910649433E+03  0.00000000000E+00 0.  1.
         24    2    1    2    0    0  0.63894078152E+02 -0.22973681919E+03  0.78629820960E+02  0.26372703517E+03  0.80671190760E+02 0.  0.
        254    2    1    2    0    0 -0.63894078152E+02  0.22973681919E+03  0.51049471201E+03  0.10436104865E+04  0.87843983125E+03 0.  0.
         23    2    4    4    0    0  0.23797885644E+02 -0.32325416548E+03  0.13064758318E+03  0.36071726443E+03  0.89378739147E+02 0.  0.
         23    2    4    4    0    0 -0.87691963796E+02  0.55299098467E+03  0.37984712883E+03  0.68289322202E+03  0.92576464366E+02 0.  0.
          4    1    3    3  502    0  0.90713834253E+01 -0.11084581120E+03  0.72301349118E+02  0.13265205970E+03  0.00000000000E+00 0. -1.
         -3    1    3    3    0  502  0.54822694727E+02 -0.11889100799E+03  0.63284718423E+01  0.13107497547E+03  0.00000000000E+00 0.  1.
         13    1    5    5    0    0  0.22488251913E+02 -0.32924143563E+03  0.12711823499E+03  0.35364486435E+03  0.00000000000E+00 0. -1.
        -13    1    5    5    0    0  0.13096337314E+01  0.59872701542E+01  0.35293481814E+01  0.70724000873E+01  0.00000000000E+00 0.  1.
          1    1    6    6  503    0 -0.76303830982E+02  0.54665655588E+03  0.37954533330E+03  0.66985843634E+03  0.00000000000E+00 0. -1.
         -1    1    6    6    0  503 -0.11388132815E+02  0.63344287881E+01  0.30179553631E+00  0.13034785676E+02  0.00000000000E+00 0.  1.
<mgrwt>
<rscale>  0 0.11670748E+04</rscale>
<asrwt>0</asrwt>
<pdfrwt beam="1">  1        2 0.14588170E+00 0.11670748E+04</pdfrwt>
<pdfrwt beam="2">  1       -1 0.55247153E-01 0.11670748E+04</pdfrwt>
<totfact> 0.10170261E+02</totfact>
</mgrwt>
</event>
<event>
12    7  0.1675873E-007  0.3954073E+04  0.7818608E-02  0.8013876E-01
         -1   -1    0    0    0  501 -0.00000000000E+00  0.00000000000E+00  0.10941568509E+04  0.10941568509E+04  0.00000000000E+00 0.  1.
          2   -1    0    0  501    0  0.00000000000E+00 -0.00000000000E+00 -0.35723145219E+04  0.35723145219E+04  0.00000000000E+00 0. -1.
         24    2    1    2    0    0 -0.43647076123E+02 -0.16608889352E+04 -0.16207628394E+03  0.16716350695E+04  0.87395430677E+02 0.  0.
        254    2    1    2    0    0  0.43647076123E+02  0.16608889352E+04 -0.23160813871E+04  0.29948363033E+04  0.91888757171E+03 0.  0.
         23    2    4    4    0    0  0.24099593260E+03  0.56814083795E+03 -0.30112547455E+03  0.69228055996E+03  0.87822383243E+02 0.  0.
         23    2    4    4    0    0 -0.19734885647E+03  0.10927480973E+04 -0.20149559126E+04  0.23025557434E+04  0.93116305590E+02 0.  0.
          4    1    3    3  502    0 -0.31606425623E+02 -0.31870493017E+03 -0.57053534097E+01  0.32031913729E+03  0.00000000000E+00 0. -1.
         -3    1    3    3    0  502 -0.12040650499E+02 -0.13421840050E+04 -0.15637093053E+03  0.13513159322E+04  0.00000000000E+00 0.  1.
         13    1    5    5    0    0  0.24213228559E+02  0.13211291314E+03 -0.89088810694E+02  0.16117356621E+03  0.00000000000E+00 0.  1.
        -13    1    5    5    0    0  0.21678270404E+03  0.43602792481E+03 -0.21203666386E+03  0.53110699375E+03  0.00000000000E+00 0. -1.
          2    1    6    6  503    0 -0.20558848669E+03  0.98793809859E+03 -0.18331121404E+04  0.20925076897E+04  0.00000000000E+00 0. -1.
         -2    1    6    6    0  503  0.82396302189E+01  0.10480999866E+03 -0.18184377223E+03  0.21004805361E+03  0.00000000000E+00 0.  1.
<mgrwt>
<rscale>  0 0.39540725E+04</rscale>
<asrwt>0</asrwt>
<pdfrwt beam="1">  1        2 0.54958686E+00 0.39540725E+04</pdfrwt>
<pdfrwt beam="2">  1       -1 0.16833182E+00 0.39540725E+04</pdfrwt>
<totfact> 0.16403694E-01</totfact>
</mgrwt>
</event>
<event>
12    7  0.1675873E-007  0.1292029E+04  0.7818608E-02  0.9035910E-01
         -1   -1    0    0    0  501 -0.00000000000E+00  0.00000000000E+00  0.32511320059E+03  0.32511320059E+03  0.00000000000E+00 0.  1.
          2   -1    0    0  501    0  0.00000000000E+00 -0.00000000000E+00 -0.12836604214E+04  0.12836604214E+04  0.00000000000E+00 0. -1.
         24    2    1    2    0    0  0.75869335982E+02  0.12643808541E+03  0.11036585848E+03  0.20058834715E+03  0.79450089407E+02 0.  0.
        254    2    1    2    0    0 -0.75869335982E+02 -0.12643808541E+03 -0.10689130793E+04  0.14081852749E+04  0.90480265895E+03 0.  0.
         23    2    4    4    0    0  0.12678533923E+03 -0.47141381919E+03 -0.68877733769E+03  0.84916171335E+03  0.91410520851E+02 0.  0.
         23    2    4    4    0    0 -0.20265467521E+03  0.34497573378E+03 -0.38013574164E+03  0.55902356153E+03  0.89033622831E+02 0.  0.
          4    1    3    3  502    0 -0.46508877041E+01  0.26326083625E+02  0.54074563001E+02  0.60322067266E+02  0.00000000000E+00 0. -1.
         -3    1    3    3    0  502  0.80520223686E+02  0.10011200179E+03  0.56291295484E+02  0.14026627988E+03  0.00000000000E+00 0.  1.
         13    1    5    5    0    0  0.10506018181E+03 -0.23946474530E+03 -0.40383413500E+03  0.48110603264E+03  0.00000000000E+00 0. -1.
        -13    1    5    5    0    0  0.21725157423E+02 -0.23194907389E+03 -0.28494320269E+03  0.36805568071E+03  0.00000000000E+00 0.  1.
          2    1    6    6  503    0 -0.18338236866E+03  0.24437813541E+03 -0.26031114229E+03  0.40138716596E+03  0.00000000000E+00 0. -1.
         -2    1    6    6    0  503 -0.19272306551E+02  0.10059759837E+03 -0.11982459935E+03  0.15763639557E+03  0.00000000000E+00 0.  1.
<mgrwt>
<rscale>  0 0.12920293E+04</rscale>
<asrwt>0</asrwt>
<pdfrwt beam="1">  1        2 0.19748622E+00 0.12920293E+04</pdfrwt>
<pdfrwt beam="2">  1       -1 0.50017416E-01 0.12920293E+04</pdfrwt>
<totfact> 0.75759738E+01</totfact>
</mgrwt>
</event>
<event>
12    7  0.1675873E-007  0.1731001E+04  0.7818608E-02  0.8743878E-01
          2   -1    0    0  501    0  0.00000000000E+00  0.00000000000E+00  0.61619490930E+03  0.61619490930E+03  0.00000000000E+00 0. -1.
         -1   -1    0    0    0  501 -0.00000000000E+00 -0.00000000000E+00 -0.12156724351E+04  0.12156724351E+04  0.00000000000E+00 0.  1.
         24    2    1    2    0    0 -0.39691317166E+03 -0.45902680897E+03 -0.65620178582E+02  0.61572849381E+03  0.81054876869E+02 0.  0.
        254    2    1    2    0    0  0.39691317166E+03  0.45902680897E+03 -0.53385734725E+03  0.12161388506E+04  0.90870477031E+03 0.  0.
         23    2    4    4    0    0 -0.23590157703E+02  0.22833825527E+03 -0.66479736472E+03  0.71072003701E+03  0.10233562676E+03 0.  0.
         23    2    4    4    0    0  0.42050332937E+03  0.23068855370E+03  0.13094001747E+03  0.50541881362E+03  0.90899010822E+02 0.  0.
          4    1    3    3  502    0 -0.27382288005E+03 -0.33299024736E+03 -0.10900101503E+02  0.43125431788E+03  0.00000000000E+00 0. -1.
         -3    1    3    3    0  502 -0.12309029161E+03 -0.12603656162E+03 -0.54720077079E+02  0.18447417594E+03  0.00000000000E+00 0.  1.
         13    1    5    5    0    0  0.34922432153E+02  0.57607254918E+02 -0.23754551854E+03  0.24691303219E+03  0.00000000000E+00 0.  1.
        -13    1    5    5    0    0 -0.58512589856E+02  0.17073100035E+03 -0.42725184618E+03  0.46380700481E+03  0.00000000000E+00 0. -1.
          2    1    6    6  503    0  0.21404532645E+03  0.15234546940E+03  0.10557573509E+03  0.28314445017E+03  0.00000000000E+00 0.  1.
         -2    1    6    6    0  503  0.20645800291E+03  0.78343084298E+02  0.25364282376E+02  0.22227436345E+03  0.00000000000E+00 0. -1.
<mgrwt>
<rscale>  0 0.17310011E+04</rscale>
<asrwt>0</asrwt>
<pdfrwt beam="1">  1        2 0.94799217E-01 0.17310011E+04</pdfrwt>
<pdfrwt beam="2">  1       -1 0.18702653E+00 0.17310011E+04</pdfrwt>
<totfact> 0.96530399E+00</totfact>
</mgrwt>
</event>
<event>
12    7  0.1675873E-007  0.1763809E+04  0.7818608E-02  0.8725786E-01
          2   -1    0    0  501    0  0.00000000000E+00  0.00000000000E+00  0.16425819793E+04  0.16425819793E+04  0.00000000000E+00 0. -1.
         -1   -1    0    0    0  501 -0.00000000000E+00 -0.00000000000E+00 -0.47349574718E+03  0.47349574718E+03  0.00000000000E+00 0.  1.
         24    2    1    2    0    0  0.19461804171E+03  0.53366209145E+03  0.97082952858E+03  0.11275404713E+04  0.78524715109E+02 0.  0.
        254    2    1    2    0    0 -0.19461804171E+03 -0.53366209145E+03  0.19825670349E+03  0.98853725511E+03  0.78436520463E+03 0.  0.
         23    2    4    4    0    0  0.24290991514E+03 -0.87324933350E+02 -0.98413703871E+02  0.29081619476E+03  0.90873159756E+02 0.  0.
         23    2    4    4    0    0 -0.43752795686E+03 -0.44633715810E+03  0.29667040736E+03  0.69772106035E+03  0.90298259733E+02 0.  0.
          4    1    3    3  502    0  0.19380237441E+03  0.45273488912E+03  0.83843292461E+03  0.97236721933E+03  0.00000000000E+00 0. -1.
         -3    1    3    3    0  502  0.81566730523E+00  0.80927202328E+02  0.13239660397E+03  0.15517325199E+03  0.00000000000E+00 0.  1.
         13    1    5    5    0    0  0.25348411540E+02  0.33234499602E+01 -0.40862097049E+02  0.48200604379E+02  0.00000000000E+00 0. -1.
        -13    1    5    5    0    0  0.21756150360E+03 -0.90648383311E+02 -0.57551606822E+02  0.24261559038E+03  0.00000000000E+00 0.  1.
          1    1    6    6  503    0 -0.29830043935E+02 -0.40711187294E+02  0.52804001315E+02  0.73044471707E+02  0.00000000000E+00 0. -1.
         -1    1    6    6    0  503 -0.40769791292E+03 -0.40562597081E+03  0.24386640605E+03  0.62467658864E+03  0.00000000000E+00 0.  1.
<mgrwt>
<rscale>  0 0.17638090E+04</rscale>
<asrwt>0</asrwt>
<pdfrwt beam="1">  1        2 0.25270492E+00 0.17638090E+04</pdfrwt>
<pdfrwt beam="2">  1       -1 0.72845500E-01 0.17638090E+04</pdfrwt>
<totfact> 0.21634281E+01</totfact>
</mgrwt>
</event>
<event>
12    7  0.1675873E-007  0.1398359E+04  0.7818608E-02  0.8955007E-01
          2   -1    0    0  501    0  0.00000000000E+00  0.00000000000E+00  0.76067457164E+03  0.76067457164E+03  0.00000000000E+00 0. -1.
         -1   -1    0    0    0  501 -0.00000000000E+00 -0.00000000000E+00 -0.64265589866E+03  0.64265589866E+03  0.00000000000E+00 0.  1.
         24    2    1    2    0    0  0.16725979854E+03 -0.14863076705E+03 -0.29760415901E+03  0.38120806382E+03  0.81758224921E+02 0.  0.
        254    2    1    2    0    0 -0.16725979854E+03  0.14863076705E+03  0.41562283199E+03  0.10221224065E+04  0.90660075570E+03 0.  0.
         23    2    4    4    0    0 -0.92401819036E+02  0.27358665997E+03 -0.21388948213E+03  0.37045953965E+03  0.90021126822E+02 0.  0.
         23    2    4    4    0    0 -0.74857979507E+02 -0.12495589293E+03  0.62951231412E+03  0.65166286683E+03  0.84622964442E+02 0.  0.
          4    1    3    3  502    0  0.97164078541E+02 -0.79788922255E+02 -0.22944190710E+03  0.26163088313E+03  0.00000000000E+00 0. -1.
         -3    1    3    3    0  502  0.70095720003E+02 -0.68841844792E+02 -0.68162251905E+02  0.11957718069E+03  0.00000000000E+00 0.  1.
         13    1    5    5    0    0 -0.20906687734E+02  0.16067014148E+03 -0.15564494547E+03  0.22467161148E+03  0.00000000000E+00 0.  1.
        -13    1    5    5    0    0 -0.71495131302E+02  0.11291651849E+03 -0.58244536658E+02  0.14578792817E+03  0.00000000000E+00 0. -1.
          3    1    6    6  503    0 -0.14487809580E+02 -0.10299124923E+03  0.37304485648E+03  0.38727194449E+03  0.00000000000E+00 0. -1.
         -3    1    6    6    0  503 -0.60370169927E+02 -0.21964643699E+02  0.25646745763E+03  0.26439092234E+03  0.00000000000E+00 0.  1.
<mgrwt>
<rscale>  0 0.13983590E+04</rscale>
<asrwt>0</asrwt>
<pdfrwt beam="1">  1        2 0.11702686E+00 0.13983590E+04</pdfrwt>
<pdfrwt beam="2">  1       -1 0.98870138E-01 0.13983590E+04</pdfrwt>
<totfact> 0.40047530E+01</totfact>
</mgrwt>
</event>
<event>
12    7  0.1675873E-007  0.1796453E+04  0.7818608E-02  0.8708188E-01
         -1   -1    0    0    0  501 -0.00000000000E+00  0.00000000000E+00  0.95705464068E+03  0.95705464068E+03  0.00000000000E+00 0.  1.
          2   -1    0    0  501    0  0.00000000000E+00 -0.00000000000E+00 -0.84301399537E+03  0.84301399537E+03  0.00000000000E+00 0. -1.
         24    2    1    2    0    0  0.23275550614E+03  0.37929046737E+03 -0.45995880818E+03  0.64497104624E+03  0.79932227495E+02 0.  0.
        254    2    1    2    0    0 -0.23275550614E+03 -0.37929046737E+03  0.57399945349E+03  0.11550975898E+04  0.89818633096E+03 0.  0.
         23    2    4    4    0    0 -0.22413082049E+03  0.24181367392E+03  0.70079982954E+02  0.34999825728E+03  0.94228968451E+02 0.  0.
         23    2    4    4    0    0 -0.86246856473E+01 -0.62110414129E+03  0.50391947053E+03  0.80509933254E+03  0.91680766502E+02 0.  0.
          2    1    3    3  502    0  0.17154693204E+03  0.30935159400E+03 -0.40185088388E+03  0.53536052477E+03  0.00000000000E+00 0. -1.
         -1    1    3    3    0  502  0.61208574103E+02  0.69938873364E+02 -0.58107924296E+02  0.10961052147E+03  0.00000000000E+00 0.  1.
         13    1    5    5    0    0 -0.16848546263E+03  0.14220544615E+03  0.91844132614E+01  0.22066738200E+03  0.00000000000E+00 0. -1.
        -13    1    5    5    0    0 -0.55645357866E+02  0.99608227769E+02  0.60895569693E+02  0.12933087528E+03  0.00000000000E+00 0.  1.
          4    1    6    6  503    0 -0.75150275691E+01 -0.15762128640E+02  0.35933221748E+02  0.39951430060E+02  0.00000000000E+00 0. -1.
         -4    1    6    6    0  503 -0.11096580782E+01 -0.60534201265E+03  0.46798624878E+03  0.76514790248E+03  0.00000000000E+00 0.  1.
<mgrwt>
<rscale>  0 0.17964526E+04</rscale>
<asrwt>0</asrwt>
<pdfrwt beam="1">  1        2 0.12969446E+00 0.17964526E+04</pdfrwt>
<pdfrwt beam="2">  1       -1 0.14723918E+00 0.17964526E+04</pdfrwt>
<totfact> 0.12689901E+01</totfact>
</mgrwt>
</event>
<event>
12    7  0.1675873E-007  0.1878321E+04  0.7818608E-02  0.8665723E-01
          2   -1    0    0  501    0  0.00000000000E+00  0.00000000000E+00  0.22115124981E+04  0.22115124981E+04  0.00000000000E+00 0. -1.
         -1   -1    0    0    0  501 -0.00000000000E+00 -0.00000000000E+00 -0.39883241118E+03  0.39883241118E+03  0.00000000000E+00 0.  1.
         24    2    1    2    0    0 -0.52533776807E+03  0.65496465243E+02  0.13780002720E+04  0.14783140959E+04  0.79109157392E+02 0.  0.
        254    2    1    2    0    0  0.52533776807E+03 -0.65496465243E+02  0.43467981491E+03  0.11320308134E+04  0.90126448036E+03 0.  0.
         23    2    4    4    0    0  0.23155697065E+03  0.58239164772E+02 -0.25818471766E+03  0.36303066987E+03  0.90119297963E+02 0.  0.
         23    2    4    4    0    0  0.29378079742E+03 -0.12373563002E+03  0.69286453257E+03  0.76900014356E+03  0.98398664836E+02 0.  0.
          4    1    3    3  502    0 -0.40544431622E+03  0.69045678862E+02  0.98497075442E+03  0.10673892385E+04  0.00000000000E+00 0. -1.
         -3    1    3    3    0  502 -0.11989345185E+03 -0.35492136188E+01  0.39302951760E+03  0.41092485739E+03  0.00000000000E+00 0.  1.
         13    1    5    5    0    0  0.13759087467E+03 -0.51087150286E+01 -0.10857122755E+03  0.17534269079E+03  0.00000000000E+00 0.  1.
        -13    1    5    5    0    0  0.93966095975E+02  0.63347879801E+02 -0.14961349011E+03  0.18768797908E+03  0.00000000000E+00 0. -1.
          2    1    6    6  503    0  0.18649956919E+03 -0.11705698597E+03  0.39341931102E+03  0.45084718205E+03  0.00000000000E+00 0. -1.
         -2    1    6    6    0  503  0.10728122824E+03 -0.66786440463E+01  0.29944522154E+03  0.31815296152E+03  0.00000000000E+00 0.  1.
<mgrwt>
<rscale>  0 0.18783214E+04</rscale>
<asrwt>0</asrwt>
<pdfrwt beam="1">  1        2 0.34023268E+00 0.18783214E+04</pdfrwt>
<pdfrwt beam="2">  1       -1 0.61358834E-01 0.18783214E+04</pdfrwt>
<totfact> 0.14642613E+01</totfact>
</mgrwt>
</event>
<event>
12    7  0.1675873E-007  0.1983612E+04  0.7818608E-02  0.8614321E-01
         -1   -1    0    0    0  501 -0.00000000000E+00  0.00000000000E+00  0.31941365548E+03  0.31941365548E+03  0.00000000000E+00 0.  1.
          2   -1    0    0  501    0  0.00000000000E+00 -0.00000000000E+00 -0.30796394105E+04  0.30796394105E+04  0.00000000000E+00 0. -1.
         24    2    1    2    0    0 -0.61019298982E+03 -0.48146540335E+03 -0.13152468882E+04  0.15298125676E+04  0.79421002844E+02 0.  0.
        254    2    1    2    0    0  0.61019298982E+03  0.48146540335E+03 -0.14449788668E+04  0.18692404984E+04  0.89551755744E+03 0.  0.
         23    2    4    4    0    0  0.58746255244E+03  0.56718221738E+03 -0.15152681910E+04  0.17237209117E+04  0.91477715665E+02 0.  0.
         23    2    4    4    0    0  0.22730437381E+02 -0.85716814039E+02  0.70289324199E+02  0.14551958666E+03  0.91494896104E+02 0.  0.
          2    1    3    3  502    0 -0.33441684628E+03 -0.29687136283E+03 -0.81219476454E+03  0.92716102630E+03  0.00000000000E+00 0. -1.
         -1    1    3    3    0  502 -0.27577614354E+03 -0.18459404052E+03 -0.50305212367E+03  0.60265154133E+03  0.00000000000E+00 0.  1.
         13    1    5    5    0    0  0.20479283387E+01  0.18182007758E+02 -0.23690484598E+02  0.29933567731E+02  0.00000000000E+00 0. -1.
        -13    1    5    5    0    0  0.58541462410E+03  0.54900020963E+03 -0.14915777064E+04  0.16937873440E+04  0.00000000000E+00 0.  1.
          2    1    6    6  503    0  0.25457312071E+01  0.18041290722E+02  0.23981428448E+02  0.30117732795E+02  0.00000000000E+00 0. -1.
         -2    1    6    6    0  503  0.20184706174E+02 -0.10375810476E+03  0.46307895750E+02  0.11540185387E+03  0.00000000000E+00 0.  1.
<mgrwt>
<rscale>  0 0.19836117E+04</rscale>
<asrwt>0</asrwt>
<pdfrwt beam="1">  1        2 0.47379067E+00 0.19836117E+04</pdfrwt>
<pdfrwt beam="2">  1       -1 0.49140564E-01 0.19836117E+04</pdfrwt>
<totfact> 0.68314779E+00</totfact>
</mgrwt>
</event>
<event>
12    7  0.1675873E-007  0.2585677E+04  0.7818608E-02  0.8373083E-01
          2   -1    0    0  501    0  0.00000000000E+00  0.00000000000E+00  0.18838850843E+04  0.18838850843E+04  0.00000000000E+00 0. -1.
         -1   -1    0    0    0  501 -0.00000000000E+00 -0.00000000000E+00 -0.88722562906E+03  0.88722562906E+03  0.00000000000E+00 0.  1.
         24    2    1    2    0    0  0.62566118150E+03  0.27806305602E+03 -0.52164923750E+03  0.86442168769E+03  0.79598680953E+02 0.  0.
        254    2    1    2    0    0 -0.62566118150E+03 -0.27806305602E+03  0.15183086927E+04  0.19066890257E+04  0.92813295223E+03 0.  0.
         23    2    4    4    0    0 -0.48053778463E+03  0.12388433352E+03  0.13456545155E+04  0.14372231525E+04  0.92522560962E+02 0.  0.
         23    2    4    4    0    0 -0.14512339688E+03 -0.40194738954E+03  0.17265417719E+03  0.46946587318E+03  0.89253778074E+02 0.  0.
          2    1    3    3  502    0  0.54919138353E+03  0.26594402681E+03 -0.48096783070E+03  0.77696039494E+03  0.00000000000E+00 0. -1.
         -1    1    3    3    0  502  0.76469797967E+02  0.12119029207E+02 -0.40681406806E+02  0.87461292751E+02  0.00000000000E+00 0.  1.
         13    1    5    5    0    0 -0.18454331006E+03  0.94514735109E+02  0.55813202385E+03  0.59539955029E+03  0.00000000000E+00 0. -1.
        -13    1    5    5    0    0 -0.29599447457E+03  0.29369598415E+02  0.78752249169E+03  0.84182360219E+03  0.00000000000E+00 0.  1.
          1    1    6    6  503    0 -0.99835734907E+02 -0.33174209285E+03  0.16994431640E+03  0.38587700218E+03  0.00000000000E+00 0. -1.
         -1    1    6    6    0  503 -0.45287661969E+02 -0.70205296694E+02  0.27098607897E+01  0.83588871006E+02  0.00000000000E+00 0.  1.
<mgrwt>
<rscale>  0 0.25856768E+04</rscale>
<asrwt>0</asrwt>
<pdfrwt beam="1">  1        2 0.28982848E+00 0.25856768E+04</pdfrwt>
<pdfrwt beam="2">  1       -1 0.13649625E+00 0.25856768E+04</pdfrwt>
<totfact> 0.34980322E+00</totfact>
</mgrwt>
</event>
<event>
12    7  0.1675873E-007  0.2730786E+04  0.7818608E-02  0.8325085E-01
         -1   -1    0    0    0  501 -0.00000000000E+00  0.00000000000E+00  0.47525607823E+03  0.47525607823E+03  0.00000000000E+00 0.  1.
          2   -1    0    0  501    0  0.00000000000E+00 -0.00000000000E+00 -0.39227235134E+04  0.39227235134E+04  0.00000000000E+00 0. -1.
         24    2    1    2    0    0  0.79896977326E+03 -0.20023917567E+03 -0.29806076207E+04  0.30932589121E+04  0.76029483459E+02 0.  0.
        254    2    1    2    0    0 -0.79896977326E+03  0.20023917567E+03 -0.46685981445E+03  0.13047206796E+04  0.89771350623E+03 0.  0.
         23    2    4    4    0    0 -0.13688346104E+03 -0.14943064436E+02  0.25053776325E+03  0.30074659180E+03  0.93375396020E+02 0.  0.
         23    2    4    4    0    0 -0.66208631222E+03  0.21518224011E+03 -0.71739757770E+03  0.10039740878E+04  0.92967753167E+02 0.  0.
          4    1    3    3  502    0  0.67326884830E+03 -0.18171433822E+03 -0.24228821247E+04  0.25212435092E+04  0.00000000000E+00 0. -1.
         -3    1    3    3    0  502  0.12570092496E+03 -0.18524837449E+02 -0.55772549608E+03  0.57201540286E+03  0.00000000000E+00 0.  1.
         13    1    5    5    0    0 -0.24513769642E+01  0.16203289046E+02  0.20520562241E+01  0.16515651960E+02  0.00000000000E+00 0.  1.
        -13    1    5    5    0    0 -0.13443208408E+03 -0.31146353482E+02  0.24848570702E+03  0.28423093983E+03  0.00000000000E+00 0. -1.
          2    1    6    6  503    0 -0.61505633447E+03  0.19749170945E+03 -0.69532935215E+03  0.94909439880E+03  0.00000000000E+00 0. -1.
         -2    1    6    6    0  503 -0.47029977745E+02  0.17690530663E+02 -0.22068225551E+02  0.54879688964E+02  0.00000000000E+00 0.  1.
<mgrwt>
<rscale>  0 0.27307861E+04</rscale>
<asrwt>0</asrwt>
<pdfrwt beam="1">  1        2 0.60349591E+00 0.27307861E+04</pdfrwt>
<pdfrwt beam="2">  1       -1 0.73116321E-01 0.27307861E+04</pdfrwt>
<totfact> 0.74058881E-01</totfact>
</mgrwt>
</event>
<event>
12    7  0.1675873E-007  0.1927799E+04  0.7818608E-02  0.8641141E-01
         -1   -1    0    0    0  501 -0.00000000000E+00  0.00000000000E+00  0.55111204102E+03  0.55111204102E+03  0.00000000000E+00 0.  1.
          2   -1    0    0  501    0  0.00000000000E+00 -0.00000000000E+00 -0.16858689149E+04  0.16858689149E+04  0.00000000000E+00 0. -1.
         24    2    1    2    0    0 -0.14271631753E+03  0.26856654446E+03  0.35346972098E+03  0.47348935560E+03  0.82191180352E+02 0.  0.
        254    2    1    2    0    0  0.14271631753E+03 -0.26856654446E+03 -0.14882265948E+04  0.17634916003E+04  0.89587292103E+03 0.  0.
         23    2    4    4    0    0  0.30824893706E+02 -0.44117903592E+03 -0.14712801843E+04  0.15388625161E+04  0.88562673125E+02 0.  0.
         23    2    4    4    0    0  0.11189142382E+03  0.17261249147E+03 -0.16946410559E+02  0.22462908417E+03  0.88635668265E+02 0.  0.
          4    1    3    3  502    0 -0.33255951830E+02  0.11132823920E+02  0.33841932572E+02  0.48735762031E+02  0.00000000000E+00 0. -1.
         -3    1    3    3    0  502 -0.10946036570E+03  0.25743372054E+03  0.31962778841E+03  0.42475359357E+03  0.00000000000E+00 0.  1.
         13    1    5    5    0    0  0.40536905383E+02 -0.79978505673E+02 -0.28452698608E+03  0.29832098129E+03  0.00000000000E+00 0.  1.
        -13    1    5    5    0    0 -0.97120116774E+01 -0.36120053025E+03 -0.11867531982E+04  0.12405415348E+04  0.00000000000E+00 0. -1.
          1    1    6    6  503    0  0.11880857902E+03  0.17603433423E+03 -0.24556206488E+02  0.21379095527E+03  0.00000000000E+00 0. -1.
         -1    1    6    6    0  503 -0.69171552017E+01 -0.34218427639E+01  0.76097959293E+01  0.10838128901E+02  0.00000000000E+00 0.  1.
<mgrwt>
<rscale>  0 0.19277994E+04</rscale>
<asrwt>0</asrwt>
<pdfrwt beam="1">  1        2 0.25936445E+00 0.19277994E+04</pdfrwt>
<pdfrwt beam="2">  1       -1 0.84786468E-01 0.19277994E+04</pdfrwt>
<totfact> 0.14631730E+01</totfact>
</mgrwt>
</event>
<event>
12    7  0.1675873E-007  0.1373360E+04  0.7818608E-02  0.8973331E-01
         -1   -1    0    0    0  501 -0.00000000000E+00  0.00000000000E+00  0.52974977374E+03  0.52974977374E+03  0.00000000000E+00 0.  1.
          2   -1    0    0  501    0  0.00000000000E+00 -0.00000000000E+00 -0.89009786120E+03  0.89009786120E+03  0.00000000000E+00 0. -1.
         24    2    1    2    0    0  0.96877872831E+02 -0.20763867166E+03  0.21835777333E+03  0.32621551366E+03  0.78976603910E+02 0.  0.
        254    2    1    2    0    0 -0.96877872831E+02  0.20763867166E+03 -0.57870586078E+03  0.10936321213E+04  0.89923945820E+03 0.  0.
         23    2    4    4    0    0 -0.12415521192E+03  0.43233293888E+03  0.72236366731E+01  0.45876660279E+03  0.89935133400E+02 0.  0.
         23    2    4    4    0    0  0.27277339092E+02 -0.22469426721E+03 -0.58592949745E+03  0.63486551850E+03  0.92245778486E+02 0.  0.
          2    1    3    3  502    0 -0.11171604485E+02 -0.81152804098E+01  0.22875934938E+02  0.26720234322E+02  0.00000000000E+00 0. -1.
         -1    1    3    3    0  502  0.10804947732E+03 -0.19952339125E+03  0.19548183839E+03  0.29949527934E+03  0.00000000000E+00 0.  1.
         13    1    5    5    0    0 -0.16218390876E+02  0.86132726777E+02 -0.33544172295E+02  0.93846120429E+02  0.00000000000E+00 0.  1.
        -13    1    5    5    0    0 -0.10793682105E+03  0.34620021210E+03  0.40767808968E+02  0.36492048236E+03  0.00000000000E+00 0. -1.
          3    1    6    6  503    0  0.37058961415E+01 -0.16672706340E+03 -0.50943092832E+03  0.53603313150E+03  0.00000000000E+00 0. -1.
         -3    1    6    6    0  503  0.23571442951E+02 -0.57967203812E+02 -0.76498569127E+02  0.98832386995E+02  0.00000000000E+00 0.  1.
<mgrwt>
<rscale>  0 0.13733596E+04</rscale>
<asrwt>0</asrwt>
<pdfrwt beam="1">  1        2 0.13693813E+00 0.13733596E+04</pdfrwt>
<pdfrwt beam="2">  1       -1 0.81499965E-01 0.13733596E+04</pdfrwt>
<totfact> 0.49703778E+01</totfact>
</mgrwt>
</event>
<event>
12    7  0.1675873E-007  0.2467509E+04  0.7818608E-02  0.8414653E-01
         -1   -1    0    0    0  501 -0.00000000000E+00  0.00000000000E+00  0.13692238537E+04  0.13692238537E+04  0.00000000000E+00 0.  1.
          2   -1    0    0  501    0  0.00000000000E+00 -0.00000000000E+00 -0.11116884137E+04  0.11116884137E+04  0.00000000000E+00 0. -1.
         24    2    1    2    0    0 -0.40962378179E+03 -0.56489650396E+03  0.92759979869E+03  0.11634387298E+04  0.79048015214E+02 0.  0.
        254    2    1    2    0    0  0.40962378179E+03  0.56489650396E+03 -0.67006435873E+03  0.13174735376E+04  0.89434365577E+03 0.  0.
         23    2    4    4    0    0  0.54503303722E+03  0.71803677787E+03 -0.57999835166E+03  0.10758360757E+04  0.91582464973E+02 0.  0.
         23    2    4    4    0    0 -0.13540925543E+03 -0.15314027390E+03 -0.90066007078E+02  0.24163746187E+03  0.92136677820E+02 0.  0.
          2    1    3    3  502    0 -0.70016200837E+02 -0.15081240213E+03  0.23750820139E+03  0.28992549861E+03  0.00000000000E+00 0. -1.
         -1    1    3    3    0  502 -0.33960758095E+03 -0.41408410184E+03  0.69009159730E+03  0.87351323121E+03  0.00000000000E+00 0.  1.
         13    1    5    5    0    0  0.84223242582E+02  0.13088690796E+03 -0.14042555226E+03  0.20962889351E+03  0.00000000000E+00 0. -1.
        -13    1    5    5    0    0  0.46080979463E+03  0.58714986991E+03 -0.43957279940E+03  0.86620718222E+03  0.00000000000E+00 0.  1.
          3    1    6    6  503    0 -0.14449624145E+03 -0.14338961175E+03 -0.65775152818E+02  0.21393016449E+03  0.00000000000E+00 0.  1.
         -3    1    6    6    0  503  0.90869860190E+01 -0.97506621570E+01 -0.24290854260E+02  0.27707297380E+02  0.00000000000E+00 0. -1.
<mgrwt>
<rscale>  0 0.24675091E+04</rscale>
<asrwt>0</asrwt>
<pdfrwt beam="1">  1        2 0.17102899E+00 0.24675091E+04</pdfrwt>
<pdfrwt beam="2">  1       -1 0.21064982E+00 0.24675091E+04</pdfrwt>
<totfact> 0.27796635E+00</totfact>
</mgrwt>
</event>
<event>
12    7  0.1675873E-007  0.2181091E+04  0.7818608E-02  0.8526340E-01
          2   -1    0    0  501    0  0.00000000000E+00  0.00000000000E+00  0.13517408528E+04  0.13517408528E+04  0.00000000000E+00 0. -1.
         -1   -1    0    0    0  501 -0.00000000000E+00 -0.00000000000E+00 -0.87982025029E+03  0.87982025029E+03  0.00000000000E+00 0.  1.
         24    2    1    2    0    0  0.66063818106E+03  0.32049447094E+03  0.73406119067E+03  0.10412848162E+04  0.79175278145E+02 0.  0.
        254    2    1    2    0    0 -0.66063818106E+03 -0.32049447094E+03 -0.26214058816E+03  0.11902762869E+04  0.89937780658E+03 0.  0.
         23    2    4    4    0    0 -0.10961353936E+03 -0.44237869608E+03 -0.38750399352E+03  0.60515453626E+03  0.91316093860E+02 0.  0.
         23    2    4    4    0    0 -0.55102464170E+03  0.12188422514E+03  0.12536340536E+03  0.58512175062E+03  0.90374551435E+02 0.  0.
          4    1    3    3  502    0  0.43490936133E+03  0.21437361969E+03  0.53609895967E+03  0.72284458630E+03  0.00000000000E+00 0. -1.
         -3    1    3    3    0  502  0.22572881973E+03  0.10612085125E+03  0.19796223100E+03  0.31844022992E+03  0.00000000000E+00 0.  1.
         13    1    5    5    0    0 -0.67748396571E+02 -0.10681708072E+03 -0.98449003074E+02  0.16028705555E+03  0.00000000000E+00 0. -1.
        -13    1    5    5    0    0 -0.41865142791E+02 -0.33556161536E+03 -0.28905499045E+03  0.44486748070E+03  0.00000000000E+00 0.  1.
          1    1    6    6  503    0 -0.28432961552E+02  0.25688968193E+02  0.20657079776E+02  0.43532417051E+02  0.00000000000E+00 0. -1.
         -1    1    6    6    0  503 -0.52259168015E+03  0.96195256949E+02  0.10470632559E+03  0.54158933357E+03  0.00000000000E+00 0.  1.
<mgrwt>
<rscale>  0 0.21810905E+04</rscale>
<asrwt>0</asrwt>
<pdfrwt beam="1">  1        2 0.20796013E+00 0.21810905E+04</pdfrwt>
<pdfrwt beam="2">  1       -1 0.13535696E+00 0.21810905E+04</pdfrwt>
<totfact> 0.73637282E+00</totfact>
</mgrwt>
</event>
<event>
12    7  0.1743095E-007  0.1619414E+04  0.7818608E-02  0.8808709E-01
         -1   -1    0    0    0  501 -0.00000000000E+00  0.00000000000E+00  0.42657153001E+03  0.42657153001E+03  0.00000000000E+00 0.  1.
          2   -1    0    0  501    0  0.00000000000E+00 -0.00000000000E+00 -0.15369650285E+04  0.15369650285E+04  0.00000000000E+00 0. -1.
         24    2    1    2    0    0 -0.93209654295E+02 -0.65851737991E+02 -0.10427858795E+04  0.10519131582E+04  0.78066708635E+02 0.  0.
        254    2    1    2    0    0  0.93209654295E+02  0.65851737991E+02 -0.67607619006E+02  0.91162340025E+03  0.90192125082E+03 0.  0.
         23    2    4    4    0    0  0.35958812510E+03  0.32856052967E+03 -0.14921578959E+03  0.51785301063E+03  0.93009394032E+02 0.  0.
         23    2    4    4    0    0 -0.26637847080E+03 -0.26270879168E+03  0.81608170584E+02  0.39377038963E+03  0.91770514355E+02 0.  0.
          4    1    3    3  502    0 -0.73277032316E+02 -0.78168715565E+02 -0.68178158223E+03  0.69014925736E+03  0.00000000000E+00 0. -1.
         -3    1    3    3    0  502 -0.19932621980E+02  0.12316977574E+02 -0.36100429722E+03  0.36176390086E+03  0.00000000000E+00 0.  1.
         13    1    5    5    0    0  0.21378669260E+03  0.25295611654E+03 -0.89268649126E+02  0.34301667386E+03  0.00000000000E+00 0. -1.
        -13    1    5    5    0    0  0.14580143250E+03  0.75604413131E+02 -0.59947140464E+02  0.17483633676E+03  0.00000000000E+00 0.  1.
          4    1    6    6  503    0 -0.24789616272E+03 -0.26779394714E+03  0.83971846708E+02  0.37445610779E+03  0.00000000000E+00 0. -1.
         -4    1    6    6    0  503 -0.18482308083E+02  0.50851554623E+01 -0.23636761239E+01  0.19314281840E+02  0.00000000000E+00 0.  1.
<mgrwt>
<rscale>  0 0.16194141E+04</rscale>
<asrwt>0</asrwt>
<pdfrwt beam="1">  1        2 0.23645616E+00 0.16194141E+04</pdfrwt>
<pdfrwt beam="2">  1       -1 0.65626390E-01 0.16194141E+04</pdfrwt>
<totfact> 0.31066454E+01</totfact>
</mgrwt>
</event>
<event>
12    7  0.1675873E-007  0.1516853E+04  0.7818608E-02  0.8873323E-01
          2   -1    0    0  501    0  0.00000000000E+00  0.00000000000E+00  0.76580726170E+03  0.76580726170E+03  0.00000000000E+00 0. -1.
         -1   -1    0    0    0  501 -0.00000000000E+00 -0.00000000000E+00 -0.75111655721E+03  0.75111655721E+03  0.00000000000E+00 0.  1.
         24    2    1    2    0    0 -0.20918773078E+03 -0.11395910540E+03 -0.42167397192E+03  0.49095495730E+03  0.80508677104E+02 0.  0.
        254    2    1    2    0    0  0.20918773078E+03  0.11395910540E+03  0.43636467641E+03  0.10259688616E+04  0.89746965952E+03 0.  0.
         23    2    4    4    0    0  0.13920809694E+03  0.46200487180E+03  0.43970562469E+03  0.65935606867E+03  0.92639047280E+02 0.  0.
         23    2    4    4    0    0  0.69979633842E+02 -0.34804576641E+03 -0.33409482797E+01  0.36661279294E+03  0.91437264547E+02 0.  0.
          2    1    3    3  502    0 -0.98863632236E+02 -0.44460408780E+02 -0.11671062649E+03  0.15928627079E+03  0.00000000000E+00 0. -1.
         -1    1    3    3    0  502 -0.11032409854E+03 -0.69498696619E+02 -0.30496334544E+03  0.33166868651E+03  0.00000000000E+00 0.  1.
         13    1    5    5    0    0  0.58653594468E+02  0.30177238101E+03  0.31995223312E+03  0.44370738732E+03  0.00000000000E+00 0.  1.
        -13    1    5    5    0    0  0.80554502468E+02  0.16023249079E+03  0.11975339157E+03  0.21564868135E+03  0.00000000000E+00 0. -1.
          3    1    6    6  503    0  0.40979836317E+02 -0.48215296087E+02  0.14277335344E+02  0.64868359512E+02  0.00000000000E+00 0. -1.
         -3    1    6    6    0  503  0.28999797525E+02 -0.29983047032E+03 -0.17618283624E+02  0.30174443343E+03  0.00000000000E+00 0.  1.
<mgrwt>
<rscale>  0 0.15168527E+04</rscale>
<asrwt>0</asrwt>
<pdfrwt beam="1">  1        2 0.11781650E+00 0.15168527E+04</pdfrwt>
<pdfrwt beam="2">  1       -1 0.11555639E+00 0.15168527E+04</pdfrwt>
<totfact> 0.27290483E+01</totfact>
</mgrwt>
</event>
<event>
12    7  0.1675873E-007  0.1190577E+04  0.7818608E-02  0.9121144E-01
          2   -1    0    0  501    0  0.00000000000E+00  0.00000000000E+00  0.65847839798E+03  0.65847839798E+03  0.00000000000E+00 0. -1.
         -3   -1    0    0    0  501 -0.00000000000E+00 -0.00000000000E+00 -0.53816287551E+03  0.53816287551E+03  0.00000000000E+00 0.  1.
         24    2    1    2    0    0  0.80253486125E+02  0.62794391597E+02  0.25329072137E+03  0.28424369729E+03  0.79085600869E+02 0.  0.
        254    2    1    2    0    0 -0.80253486125E+02 -0.62794391597E+02 -0.13297519890E+03  0.91239757620E+03  0.89688526350E+03 0.  0.
         23    2    4    4    0    0  0.22305129893E+03 -0.17980077277E+03 -0.38641430028E+03  0.49000209704E+03  0.93305111340E+02 0.  0.
         23    2    4    4    0    0 -0.30330478505E+03  0.11700638117E+03  0.25343910138E+03  0.42239547916E+03  0.92207791649E+02 0.  0.
          2    1    3    3  502    0 -0.74681296186E+00  0.25541239008E+02  0.12765929898E+03  0.13019143303E+03  0.00000000000E+00 0. -1.
         -1    1    3    3    0  502  0.81000299087E+02  0.37253152589E+02  0.12563142239E+03  0.15405226425E+03  0.00000000000E+00 0.  1.
         13    1    5    5    0    0  0.24731600711E+02 -0.60300602284E+02 -0.12367901682E+03  0.13980097965E+03  0.00000000000E+00 0.  1.
        -13    1    5    5    0    0  0.19831969822E+03 -0.11950017048E+03 -0.26273528345E+03  0.35020111738E+03  0.00000000000E+00 0. -1.
          4    1    6    6  503    0 -0.11687479608E+03  0.27346782938E+02  0.43530742083E+02  0.12768120458E+03  0.00000000000E+00 0. -1.
         -4    1    6    6    0  503 -0.18642998897E+03  0.89659598232E+02  0.20990835929E+03  0.29471427458E+03  0.00000000000E+00 0.  1.
<mgrwt>
<rscale>  0 0.11905774E+04</rscale>
<asrwt>0</asrwt>
<pdfrwt beam="1">  1        2 0.10130437E+00 0.11905774E+04</pdfrwt>
<pdfrwt beam="2">  1       -3 0.82794288E-01 0.11905774E+04</pdfrwt>
<totfact> 0.37196955E+01</totfact>
</mgrwt>
</event>
<event>
12    7  0.1675873E-007  0.1592982E+04  0.7818608E-02  0.8824871E-01
         -1   -1    0    0    0  501 -0.00000000000E+00  0.00000000000E+00  0.24602636338E+03  0.24602636338E+03  0.00000000000E+00 0.  1.
          2   -1    0    0  501    0  0.00000000000E+00 -0.00000000000E+00 -0.25785759067E+04  0.25785759067E+04  0.00000000000E+00 0. -1.
         24    2    1    2    0    0 -0.18197146991E+03  0.51870850890E+03 -0.62382012686E+03  0.83536522415E+03  0.80693085041E+02 0.  0.
        254    2    1    2    0    0  0.18197146991E+03 -0.51870850890E+03 -0.17087294165E+04  0.19892370460E+04  0.85740053255E+03 0.  0.
         23    2    4    4    0    0  0.15237512598E+03 -0.35934894837E+03 -0.17526977477E+04  0.17979578707E+04  0.91396195154E+02 0.  0.
         23    2    4    4    0    0  0.29596343935E+02 -0.15935956053E+03  0.43968331187E+02  0.19127917524E+03  0.91559246537E+02 0.  0.
          4    1    3    3  502    0 -0.56078410509E+02  0.23737631253E+03 -0.32230924008E+03  0.40419741231E+03  0.00000000000E+00 0. -1.
         -3    1    3    3    0  502 -0.12589305940E+03  0.28133219637E+03 -0.30151088678E+03  0.43116781184E+03  0.00000000000E+00 0.  1.
         13    1    5    5    0    0  0.67545120497E+02 -0.10692377312E+03 -0.40826277952E+03  0.42740324485E+03  0.00000000000E+00 0.  1.
        -13    1    5    5    0    0  0.84830005482E+02 -0.25242517524E+03 -0.13444349682E+04  0.13705546259E+04  0.00000000000E+00 0. -1.
          3    1    6    6  503    0  0.46705311587E+01 -0.15241142079E+03  0.56390307024E+02  0.16257589543E+03  0.00000000000E+00 0. -1.
         -3    1    6    6    0  503  0.24925812776E+02 -0.69481397459E+01 -0.12421975837E+02  0.28703279815E+02  0.00000000000E+00 0.  1.
<mgrwt>
<rscale>  0 0.15929817E+04</rscale>
<asrwt>0</asrwt>
<pdfrwt beam="1">  1        2 0.39670396E+00 0.15929817E+04</pdfrwt>
<pdfrwt beam="2">  1       -1 0.37850212E-01 0.15929817E+04</pdfrwt>
<totfact> 0.23119701E+01</totfact>
</mgrwt>
</event>
<event>
12    7  0.1675873E-007  0.1114278E+04  0.7818608E-02  0.9191386E-01
          2   -1    0    0  501    0  0.00000000000E+00  0.00000000000E+00  0.23438177964E+03  0.23438177964E+03  0.00000000000E+00 0. -1.
         -1   -1    0    0    0  501 -0.00000000000E+00 -0.00000000000E+00 -0.13243518200E+04  0.13243518200E+04  0.00000000000E+00 0.  1.
         24    2    1    2    0    0  0.13469374473E+03  0.90803037848E+02 -0.21685918523E+03  0.28144039275E+03  0.76113020574E+02 0.  0.
        254    2    1    2    0    0 -0.13469374473E+03 -0.90803037848E+02 -0.87311085510E+03  0.12772932069E+04  0.91802384199E+03 0.  0.
         23    2    4    4    0    0  0.37697138468E+03 -0.20699238457E+02 -0.49712573357E+03  0.63262856086E+03  0.10270841107E+03 0.  0.
         23    2    4    4    0    0 -0.51166512940E+03 -0.70103799391E+02 -0.37598512154E+03  0.64466464601E+03  0.86671488150E+02 0.  0.
          4    1    3    3  502    0  0.96925176651E+01 -0.12152844377E+02 -0.32696364162E+02  0.36203435674E+02  0.00000000000E+00 0. -1.
         -3    1    3    3    0  502  0.12500122706E+03  0.10295588223E+03 -0.18416282107E+03  0.24523695708E+03  0.00000000000E+00 0.  1.
         13    1    5    5    0    0  0.35689493418E+03 -0.40861283821E+02 -0.43396875702E+03  0.56335825247E+03  0.00000000000E+00 0.  1.
        -13    1    5    5    0    0  0.20076450500E+02  0.20162045364E+02 -0.63156976549E+02  0.69270308392E+02  0.00000000000E+00 0. -1.
          1    1    6    6  503    0 -0.23278039928E+03 -0.29034513767E+02 -0.11822638898E+03  0.26269220836E+03  0.00000000000E+00 0.  1.
         -1    1    6    6    0  503 -0.27888473012E+03 -0.41069285624E+02 -0.25775873256E+03  0.38197243765E+03  0.00000000000E+00 0. -1.
<mgrwt>
<rscale>  0 0.11142781E+04</rscale>
<asrwt>0</asrwt>
<pdfrwt beam="1">  1        2 0.36058735E-01 0.11142781E+04</pdfrwt>
<pdfrwt beam="2">  1       -1 0.20374643E+00 0.11142781E+04</pdfrwt>
<totfact> 0.23372482E+01</totfact>
</mgrwt>
</event>
<event>
12    7  0.1675873E-007  0.1126468E+04  0.7818608E-02  0.9179772E-01
         -1   -1    0    0    0  501 -0.00000000000E+00  0.00000000000E+00  0.11509586204E+04  0.11509586204E+04  0.00000000000E+00 0.  1.
          2   -1    0    0  501    0  0.00000000000E+00 -0.00000000000E+00 -0.27562449711E+03  0.27562449711E+03  0.00000000000E+00 0. -1.
         24    2    1    2    0    0  0.68992588502E+02 -0.23578996340E+02  0.43630317547E+03  0.44906116637E+03  0.77327381166E+02 0.  0.
        254    2    1    2    0    0 -0.68992588502E+02  0.23578996340E+02  0.43903094782E+03  0.97752195114E+03  0.87033616809E+03 0.  0.
         23    2    4    4    0    0 -0.41603426211E+03  0.14586744065E+03  0.38742216126E+03  0.59489638910E+03  0.97180066051E+02 0.  0.
         23    2    4    4    0    0  0.34704167361E+03 -0.12228844431E+03  0.51608786564E+02  0.38262556205E+03  0.91359000921E+02 0.  0.
          4    1    3    3  502    0  0.19747447696E+02  0.52193115673E+01  0.19063422171E+02  0.27939523414E+02  0.00000000000E+00 0. -1.
         -3    1    3    3    0  502  0.49245140806E+02 -0.28798307907E+02  0.41723975330E+03  0.42112164296E+03  0.00000000000E+00 0.  1.
         13    1    5    5    0    0 -0.31667677860E+02  0.37784493245E+02  0.65667436812E+02  0.82114079233E+02  0.00000000000E+00 0.  1.
        -13    1    5    5    0    0 -0.38436658425E+03  0.10808294740E+03  0.32175472444E+03  0.51278230986E+03  0.00000000000E+00 0. -1.
          3    1    6    6  503    0  0.20582095721E+03 -0.70707348569E+02  0.75584929544E+02  0.23037985403E+03  0.00000000000E+00 0. -1.
         -3    1    6    6    0  503  0.14122071640E+03 -0.51581095740E+02 -0.23976142980E+02  0.15224570802E+03  0.00000000000E+00 0.  1.
<mgrwt>
<rscale>  0 0.11264677E+04</rscale>
<asrwt>0</asrwt>
<pdfrwt beam="1">  1        2 0.42403769E-01 0.11264677E+04</pdfrwt>
<pdfrwt beam="2">  1       -1 0.17707055E+00 0.11264677E+04</pdfrwt>
<totfact> 0.29968443E+01</totfact>
</mgrwt>
</event>
<event>
12    7  0.1675873E-007  0.1834799E+04  0.7818608E-02  0.8688009E-01
          2   -1    0    0  501    0  0.00000000000E+00  0.00000000000E+00  0.14132365916E+04  0.14132365916E+04  0.00000000000E+00 0. -1.
         -1   -1    0    0    0  501 -0.00000000000E+00 -0.00000000000E+00 -0.59552803811E+03  0.59552803811E+03  0.00000000000E+00 0.  1.
         24    2    1    2    0    0  0.55258322983E+03 -0.39121244847E+03  0.47880301141E+03  0.83297386059E+03  0.78725618255E+02 0.  0.
        254    2    1    2    0    0 -0.55258322983E+03  0.39121244847E+03  0.33890554203E+03  0.11757907691E+04  0.89957298787E+03 0.  0.
         23    2    4    4    0    0 -0.59057825402E+03  0.39771945567E+03 -0.10101713813E+03  0.72483865545E+03  0.90681721979E+02 0.  0.
         23    2    4    4    0    0  0.37995024190E+02 -0.65070071959E+01  0.43992268016E+03  0.45095211363E+03  0.91322950365E+02 0.  0.
          2    1    3    3  502    0  0.49986221515E+03 -0.37439728768E+03  0.42242212087E+03  0.75397348186E+03  0.00000000000E+00 0. -1.
         -1    1    3    3    0  502  0.52721014679E+02 -0.16815160795E+02  0.56380890538E+02  0.79000378729E+02  0.00000000000E+00 0.  1.
         13    1    5    5    0    0 -0.55259741859E+03  0.39435375530E+03 -0.10303840584E+03  0.68665544812E+03  0.00000000000E+00 0. -1.
        -13    1    5    5    0    0 -0.37980835425E+02  0.33657003645E+01  0.20212677158E+01  0.38183207326E+02  0.00000000000E+00 0.  1.
          2    1    6    6  503    0 -0.37696821691E+00 -0.44491441227E+02  0.22447033954E+03  0.22883741779E+03  0.00000000000E+00 0. -1.
         -2    1    6    6    0  503  0.38371992407E+02  0.37984434031E+02  0.21545234062E+03  0.22211469584E+03  0.00000000000E+00 0.  1.
<mgrwt>
<rscale>  0 0.18347992E+04</rscale>
<asrwt>0</asrwt>
<pdfrwt beam="1">  1        2 0.21742101E+00 0.18347992E+04</pdfrwt>
<pdfrwt beam="2">  1       -1 0.91619698E-01 0.18347992E+04</pdfrwt>
<totfact> 0.17716169E+01</totfact>
</mgrwt>
</event>
<event>
12    7  0.1675873E-007  0.1194806E+04  0.7818608E-02  0.9117415E-01
         -1   -1    0    0    0  501 -0.00000000000E+00  0.00000000000E+00  0.28659459056E+03  0.28659459056E+03  0.00000000000E+00 0.  1.
          2   -1    0    0  501    0  0.00000000000E+00 -0.00000000000E+00 -0.12452789174E+04  0.12452789174E+04  0.00000000000E+00 0. -1.
         24    2    1    2    0    0 -0.10388397728E+03 -0.21018934670E+02 -0.49810321504E+03  0.51535234400E+03  0.79041440316E+02 0.  0.
        254    2    1    2    0    0  0.10388397728E+03  0.21018934670E+02 -0.46058111184E+03  0.10165211640E+04  0.89997035502E+03 0.  0.
         23    2    4    4    0    0 -0.16379608801E+03  0.20431875120E+03  0.15219255369E+03  0.31705238132E+03  0.93724748925E+02 0.  0.
         23    2    4    4    0    0  0.26768006529E+03 -0.18329981653E+03 -0.61277366554E+03  0.69946878267E+03  0.92269023284E+02 0.  0.
          4    1    3    3  502    0 -0.51780341453E+02 -0.19298220992E+02 -0.40410308485E+03  0.40786385998E+03  0.00000000000E+00 0. -1.
         -3    1    3    3    0  502 -0.52103635822E+02 -0.17207136783E+01 -0.94000130194E+02  0.10748848403E+03  0.00000000000E+00 0.  1.
         13    1    5    5    0    0 -0.14567468557E+03  0.18062458159E+03  0.91520727467E+02  0.24944417622E+03  0.00000000000E+00 0. -1.
        -13    1    5    5    0    0 -0.18121402442E+02  0.23694169607E+02  0.60671826226E+02  0.67608205105E+02  0.00000000000E+00 0.  1.
          4    1    6    6  503    0  0.21824143566E+03 -0.17157096349E+03 -0.44800037262E+03  0.52703913860E+03  0.00000000000E+00 0. -1.
         -4    1    6    6    0  503  0.49438629629E+02 -0.11728853039E+02 -0.16477329292E+03  0.17242964407E+03  0.00000000000E+00 0.  1.
<mgrwt>
<rscale>  0 0.11948058E+04</rscale>
<asrwt>0</asrwt>
<pdfrwt beam="1">  1        2 0.19158137E+00 0.11948058E+04</pdfrwt>
<pdfrwt beam="2">  1       -1 0.44091475E-01 0.11948058E+04</pdfrwt>
<totfact> 0.10184984E+02</totfact>
</mgrwt>
</event>
<event>
12    7  0.1675873E-007  0.1380562E+04  0.7818608E-02  0.8968010E-01
          2   -1    0    0  501    0  0.00000000000E+00  0.00000000000E+00  0.77827408143E+03  0.77827408143E+03  0.00000000000E+00 0. -1.
         -1   -1    0    0    0  501 -0.00000000000E+00 -0.00000000000E+00 -0.61223685525E+03  0.61223685525E+03  0.00000000000E+00 0.  1.
         24    2    1    2    0    0 -0.15710536925E+03  0.12825244891E+03 -0.27966302774E+03  0.35472540908E+03  0.80547619868E+02 0.  0.
        254    2    1    2    0    0  0.15710536925E+03 -0.12825244891E+03  0.44570025392E+03  0.10357855276E+04  0.91272786477E+03 0.  0.
         23    2    4    4    0    0  0.39872321976E+03 -0.23481580551E+03 -0.42462239641E+02  0.47350139715E+03  0.91004740637E+02 0.  0.
         23    2    4    4    0    0 -0.24161785050E+03  0.10656335660E+03  0.48816249357E+03  0.56228413045E+03  0.90143710689E+02 0.  0.
          2    1    3    3  502    0  0.81150766553E+01  0.12164332507E+02 -0.94962370116E+01  0.17435709674E+02  0.00000000000E+00 0. -1.
         -1    1    3    3    0  502 -0.16522044591E+03  0.11608811640E+03 -0.27016679073E+03  0.33728969941E+03  0.00000000000E+00 0.  1.
         13    1    5    5    0    0  0.11983552497E+03 -0.79344549239E+02 -0.55183887866E+02  0.15395249923E+03  0.00000000000E+00 0.  1.
        -13    1    5    5    0    0  0.27888769479E+03 -0.15547125627E+03  0.12721648224E+02  0.31954889792E+03  0.00000000000E+00 0. -1.
          2    1    6    6  503    0 -0.56674242277E+02  0.61676861041E+02  0.20131470368E+03  0.21804498353E+03  0.00000000000E+00 0. -1.
         -2    1    6    6    0  503 -0.18494360823E+03  0.44886495562E+02  0.28684778989E+03  0.34423914692E+03  0.00000000000E+00 0.  1.
<mgrwt>
<rscale>  0 0.13805623E+04</rscale>
<asrwt>0</asrwt>
<pdfrwt beam="1">  1        2 0.11973447E+00 0.13805623E+04</pdfrwt>
<pdfrwt beam="2">  1       -1 0.94190286E-01 0.13805623E+04</pdfrwt>
<totfact> 0.43418856E+01</totfact>
</mgrwt>
</event>
<event>
12    7  0.1675873E-007  0.2609635E+04  0.7818608E-02  0.8364936E-01
          2   -1    0    0  501    0  0.00000000000E+00  0.00000000000E+00  0.78353922749E+03  0.78353922749E+03  0.00000000000E+00 0. -1.
         -1   -1    0    0    0  501 -0.00000000000E+00 -0.00000000000E+00 -0.21728959927E+04  0.21728959927E+04  0.00000000000E+00 0.  1.
         24    2    1    2    0    0  0.79259666005E+03 -0.79559506713E+03 -0.88581300907E+03  0.14325038747E+04  0.78877675075E+02 0.  0.
        254    2    1    2    0    0 -0.79259666005E+03  0.79559506713E+03 -0.50354375611E+03  0.15239313455E+04  0.89868206558E+03 0.  0.
         23    2    4    4    0    0  0.15380417271E+03  0.11062712247E+03  0.66690453872E+02  0.22083031989E+03  0.91784147742E+02 0.  0.
         23    2    4    4    0    0 -0.94640083276E+03  0.68496794466E+03 -0.57023420998E+03  0.13031010256E+04  0.89719602951E+02 0.  0.
          4    1    3    3  502    0  0.56677716608E+03 -0.59033398142E+03 -0.60409781151E+03  0.10171847086E+04  0.00000000000E+00 0. -1.
         -3    1    3    3    0  502  0.22581949397E+03 -0.20526108571E+03 -0.28171519756E+03  0.41531916607E+03  0.00000000000E+00 0.  1.
         13    1    5    5    0    0  0.12081674770E+03  0.11972691096E+03  0.74562571876E+02  0.18571698054E+03  0.00000000000E+00 0. -1.
        -13    1    5    5    0    0  0.32987425002E+02 -0.90997884890E+01 -0.78721180036E+01  0.35113339355E+02  0.00000000000E+00 0.  1.
          4    1    6    6  503    0 -0.93809090364E+03  0.66448432434E+03 -0.55852105007E+03  0.12780843963E+04  0.00000000000E+00 0. -1.
         -4    1    6    6    0  503 -0.83099291222E+01  0.20483620313E+02 -0.11713159912E+02  0.25016629235E+02  0.00000000000E+00 0.  1.
<mgrwt>
<rscale>  0 0.26096354E+04</rscale>
<asrwt>0</asrwt>
<pdfrwt beam="1">  1        2 0.12054450E+00 0.26096354E+04</pdfrwt>
<pdfrwt beam="2">  1       -1 0.33429169E+00 0.26096354E+04</pdfrwt>
<totfact> 0.70425941E-01</totfact>
</mgrwt>
</event>
<event>
12    7  0.1947012E-007  0.2099393E+04  0.7818608E-02  0.8561511E-01
          2   -1    0    0  501    0  0.00000000000E+00  0.00000000000E+00  0.12058749661E+04  0.12058749661E+04  0.00000000000E+00 0. -1.
         -1   -1    0    0    0  501 -0.00000000000E+00 -0.00000000000E+00 -0.91374529923E+03  0.91374529923E+03  0.00000000000E+00 0.  1.
         24    2    1    2    0    0  0.23623514463E+03 -0.43861478477E+03  0.81184368594E+03  0.95581318738E+03  0.79364386244E+02 0.  0.
        254    2    1    2    0    0 -0.23623514463E+03  0.43861478477E+03 -0.51971401905E+03  0.11638070780E+04  0.91441472000E+03 0.  0.
         23    2    4    4    0    0  0.37920739987E+02 -0.46884683240E+02  0.21213798368E+03  0.23946072558E+03  0.93288578796E+02 0.  0.
         23    2    4    4    0    0 -0.27415588461E+03  0.48549946800E+03 -0.73185200273E+03  0.92434635238E+03  0.89093449634E+02 0.  0.
          2    1    3    3  502    0  0.15685140391E+03 -0.25001204490E+03  0.54209639716E+03  0.61723325357E+03  0.00000000000E+00 0. -1.
         -1    1    3    3    0  502  0.79383740715E+02 -0.18860273986E+03  0.26974728878E+03  0.33857993381E+03  0.00000000000E+00 0.  1.
         13    1    5    5    0    0  0.31841955124E+02 -0.29845920657E+02  0.21649721477E+03  0.22085228794E+03  0.00000000000E+00 0. -1.
        -13    1    5    5    0    0  0.60787848637E+01 -0.17038762582E+02 -0.43592310912E+01  0.18608437641E+02  0.00000000000E+00 0.  1.
          1    1    6    6  503    0 -0.23402558113E+03  0.37174740176E+03 -0.61999821254E+03  0.75984333049E+03  0.00000000000E+00 0. -1.
         -1    1    6    6    0  503 -0.40130303483E+02  0.11375206624E+03 -0.11185379019E+03  0.16450302189E+03  0.00000000000E+00 0.  1.
<mgrwt>
<rscale>  0 0.20993928E+04</rscale>
<asrwt>0</asrwt>
<pdfrwt beam="1">  1        2 0.18551923E+00 0.20993928E+04</pdfrwt>
<pdfrwt beam="2">  1       -1 0.14057620E+00 0.20993928E+04</pdfrwt>
<totfact> 0.81863469E+00</totfact>
</mgrwt>
</event>
<event>
12    7  0.1675873E-007  0.1855546E+04  0.7818608E-02  0.8677306E-01
         -1   -1    0    0    0  501 -0.00000000000E+00  0.00000000000E+00  0.97496803632E+03  0.97496803632E+03  0.00000000000E+00 0.  1.
          2   -1    0    0  501    0  0.00000000000E+00 -0.00000000000E+00 -0.88286278131E+03  0.88286278131E+03  0.00000000000E+00 0. -1.
         24    2    1    2    0    0 -0.49053999594E+03  0.10126813260E+03  0.53380372251E+03  0.73646949636E+03  0.80970257530E+02 0.  0.
        254    2    1    2    0    0  0.49053999594E+03 -0.10126813260E+03 -0.44169846750E+03  0.11213613213E+04  0.90081571609E+03 0.  0.
         23    2    4    4    0    0  0.58268815857E+03 -0.88985565122E+01 -0.63721750738E+03  0.86852525985E+03  0.93194961495E+02 0.  0.
         23    2    4    4    0    0 -0.92148162634E+02 -0.92369576087E+02  0.19551903988E+03  0.25283606142E+03  0.93139446722E+02 0.  0.
          2    1    3    3  502    0 -0.17321550333E+02 -0.10094664407E+02  0.32265758702E+02  0.37987070695E+02  0.00000000000E+00 0. -1.
         -1    1    3    3    0  502 -0.47321844561E+03  0.11136279701E+03  0.50153796381E+03  0.69848242566E+03  0.00000000000E+00 0.  1.
         13    1    5    5    0    0  0.39778713887E+03 -0.48157469235E+02 -0.44856101680E+03  0.60146548986E+03  0.00000000000E+00 0. -1.
        -13    1    5    5    0    0  0.18490101970E+03  0.39258912723E+02 -0.18865649057E+03  0.26705977000E+03  0.00000000000E+00 0.  1.
          3    1    6    6  503    0 -0.10244048414E+03 -0.54707717332E+02  0.17108472085E+03  0.20677758301E+03  0.00000000000E+00 0. -1.
         -3    1    6    6    0  503  0.10292321509E+02 -0.37661858754E+02  0.24434319024E+02  0.46058478405E+02  0.00000000000E+00 0.  1.
<mgrwt>
<rscale>  0 0.18555463E+04</rscale>
<asrwt>0</asrwt>
<pdfrwt beam="1">  1        2 0.13582504E+00 0.18555463E+04</pdfrwt>
<pdfrwt beam="2">  1       -1 0.14999508E+00 0.18555463E+04</pdfrwt>
<totfact> 0.11273416E+01</totfact>
</mgrwt>
</event>
<event>
12    7  0.1675873E-007  0.2135161E+04  0.7818608E-02  0.8545911E-01
         -1   -1    0    0    0  501 -0.00000000000E+00  0.00000000000E+00  0.35556832478E+03  0.35556832478E+03  0.00000000000E+00 0.  1.
          2   -1    0    0  501    0  0.00000000000E+00 -0.00000000000E+00 -0.32053692803E+04  0.32053692803E+04  0.00000000000E+00 0. -1.
         24    2    1    2    0    0  0.19394631208E+03 -0.25860092618E+03  0.18205202824E+03  0.37946222073E+03  0.79743494933E+02 0.  0.
        254    2    1    2    0    0 -0.19394631208E+03  0.25860092618E+03 -0.30318529838E+04  0.31814753844E+04  0.90838510284E+03 0.  0.
         23    2    4    4    0    0 -0.70136929425E+02 -0.24429598261E+03 -0.20484069045E+04  0.20661071856E+04  0.90710197400E+02 0.  0.
         23    2    4    4    0    0 -0.12380938266E+03  0.50289690879E+03 -0.98344607929E+03  0.11153681988E+04  0.92983675486E+02 0.  0.
          4    1    3    3  502    0  0.90717591447E+01  0.54553803541E+01  0.63526158087E+01  0.12345595020E+02  0.00000000000E+00 0. -1.
         -3    1    3    3    0  502  0.18487455294E+03 -0.26405630654E+03  0.17569941243E+03  0.36711662571E+03  0.00000000000E+00 0.  1.
         13    1    5    5    0    0 -0.86800212642E+02 -0.20787915407E+03 -0.18526443383E+04  0.18662901874E+04  0.00000000000E+00 0. -1.
        -13    1    5    5    0    0  0.16663283217E+02 -0.36416828540E+02 -0.19576256622E+03  0.19981699813E+03  0.00000000000E+00 0.  1.
          2    1    6    6  503    0 -0.10238996385E+03  0.27592738516E+03 -0.62051674347E+03  0.68677554958E+03  0.00000000000E+00 0. -1.
         -2    1    6    6    0  503 -0.21419418808E+02  0.22696952363E+03 -0.36292933582E+03  0.42859264921E+03  0.00000000000E+00 0.  1.
<mgrwt>
<rscale>  0 0.21351607E+04</rscale>
<asrwt>0</asrwt>
<pdfrwt beam="1">  1        2 0.49313371E+00 0.21351607E+04</pdfrwt>
<pdfrwt beam="2">  1       -1 0.54702822E-01 0.21351607E+04</pdfrwt>
<totfact> 0.45529668E+00</totfact>
</mgrwt>
</event>
<event>
12    7  0.1675873E-007  0.1194327E+04  0.7818608E-02  0.9117837E-01
          2   -1    0    0  501    0  0.00000000000E+00  0.00000000000E+00  0.47951220773E+03  0.47951220773E+03  0.00000000000E+00 0. -1.
         -1   -1    0    0    0  501 -0.00000000000E+00 -0.00000000000E+00 -0.74368139504E+03  0.74368139504E+03  0.00000000000E+00 0.  1.
         24    2    1    2    0    0 -0.19543464072E+03 -0.12689494844E+03  0.38421031509E+02  0.24986512622E+03  0.81605017669E+02 0.  0.
        254    2    1    2    0    0  0.19543464072E+03  0.12689494844E+03 -0.30259021883E+03  0.97332847655E+03  0.89527116339E+03 0.  0.
         23    2    4    4    0    0  0.41391276841E+03 -0.57844543639E+01  0.14676031142E+03  0.44860733031E+03  0.91393150915E+02 0.  0.
         23    2    4    4    0    0 -0.21847812769E+03  0.13267940280E+03 -0.44935053025E+03  0.52472114624E+03  0.89888075249E+02 0.  0.
          2    1    3    3  502    0 -0.10380628329E+03 -0.11352541595E+03  0.31387348348E+02  0.15699977756E+03  0.00000000000E+00 0. -1.
         -1    1    3    3    0  502 -0.91628357427E+02 -0.13369532487E+02  0.70336831611E+01  0.92865348665E+02  0.00000000000E+00 0.  1.
         13    1    5    5    0    0  0.27242262221E+03 -0.37648584914E+02  0.12448036627E+03  0.30187226210E+03  0.00000000000E+00 0. -1.
        -13    1    5    5    0    0  0.14149014620E+03  0.31864130550E+02  0.22279945156E+02  0.14673506821E+03  0.00000000000E+00 0.  1.
          2    1    6    6  503    0 -0.15391415134E+03  0.12993619479E+03 -0.37895574410E+03  0.42916248285E+03  0.00000000000E+00 0. -1.
         -2    1    6    6    0  503 -0.64563976352E+02  0.27432080129E+01 -0.70394786146E+02  0.95558663392E+02  0.00000000000E+00 0.  1.
<mgrwt>
<rscale>  0 0.11943271E+04</rscale>
<asrwt>0</asrwt>
<pdfrwt beam="1">  1        2 0.73771109E-01 0.11943271E+04</pdfrwt>
<pdfrwt beam="2">  1       -1 0.11441252E+00 0.11943271E+04</pdfrwt>
<totfact> 0.50740462E+01</totfact>
</mgrwt>
</event>
<event>
12    7  0.1675873E-007  0.2243760E+04  0.7818608E-02  0.8500432E-01
          2   -1    0    0  501    0  0.00000000000E+00  0.00000000000E+00  0.12079389453E+04  0.12079389453E+04  0.00000000000E+00 0. -1.
         -1   -1    0    0    0  501 -0.00000000000E+00 -0.00000000000E+00 -0.10419525029E+04  0.10419525029E+04  0.00000000000E+00 0.  1.
         24    2    1    2    0    0  0.34200755898E+03  0.47498056335E+03 -0.66822851162E+03  0.89193107462E+03  0.80224635712E+02 0.  0.
        254    2    1    2    0    0 -0.34200755898E+03 -0.47498056335E+03  0.83421495399E+03  0.13579603735E+04  0.89753333125E+03 0.  0.
         23    2    4    4    0    0  0.23342194410E+03 -0.14921454048E+03  0.56990741506E+03  0.64015493771E+03  0.90846570952E+02 0.  0.
         23    2    4    4    0    0 -0.57542950308E+03 -0.32576602287E+03  0.26430753893E+03  0.71780543583E+03  0.90241641741E+02 0.  0.
          4    1    3    3  502    0  0.10181973788E+03  0.14530481081E+03 -0.14932093270E+03  0.23189973697E+03  0.00000000000E+00 0. -1.
         -3    1    3    3    0  502  0.24018782111E+03  0.32967575254E+03 -0.51890757892E+03  0.66003133765E+03  0.00000000000E+00 0.  1.
         13    1    5    5    0    0  0.63721730580E+01 -0.37882066395E+02  0.66319531715E+02  0.76641606394E+02  0.00000000000E+00 0. -1.
        -13    1    5    5    0    0  0.22704977104E+03 -0.11133247408E+03  0.50358788335E+03  0.56351333131E+03  0.00000000000E+00 0.  1.
          4    1    6    6  503    0 -0.16936090621E+03 -0.78548380024E+02  0.11605666908E+03  0.21982291736E+03  0.00000000000E+00 0. -1.
         -4    1    6    6    0  503 -0.40606859687E+03 -0.24721764285E+03  0.14825086985E+03  0.49798251848E+03  0.00000000000E+00 0.  1.
<mgrwt>
<rscale>  0 0.22437602E+04</rscale>
<asrwt>0</asrwt>
<pdfrwt beam="1">  1        2 0.18583676E+00 0.22437602E+04</pdfrwt>
<pdfrwt beam="2">  1       -1 0.16030038E+00 0.22437602E+04</pdfrwt>
<totfact> 0.56548989E+00</totfact>
</mgrwt>
</event>
<event>
12    7  0.1675873E-007  0.1289652E+04  0.7818608E-02  0.9037812E-01
          2   -1    0    0  501    0  0.00000000000E+00  0.00000000000E+00  0.76288080956E+03  0.76288080956E+03  0.00000000000E+00 0. -1.
         -1   -1    0    0    0  501 -0.00000000000E+00 -0.00000000000E+00 -0.54504001238E+03  0.54504001238E+03  0.00000000000E+00 0.  1.
         24    2    1    2    0    0  0.16621548469E+03  0.15431638499E+02 -0.22559311368E+03  0.29227444524E+03  0.81647875565E+02 0.  0.
        254    2    1    2    0    0 -0.16621548469E+03 -0.15431638499E+02  0.44343391086E+03  0.10156463767E+04  0.89835305220E+03 0.  0.
         23    2    4    4    0    0 -0.13307689410E+03 -0.43433224224E+03  0.33511882049E+03  0.57210949953E+03  0.93009135108E+02 0.  0.
         23    2    4    4    0    0 -0.33138590585E+02  0.41890060374E+03  0.10831509037E+03  0.44353687717E+03  0.91743776952E+02 0.  0.
          4    1    3    3  502    0  0.92517204876E+01  0.16682845423E+02 -0.64869632656E+02  0.67616424812E+02  0.00000000000E+00 0. -1.
         -3    1    3    3    0  502  0.15696376420E+03 -0.12512069243E+01 -0.16072348102E+03  0.22465802043E+03  0.00000000000E+00 0.  1.
         13    1    5    5    0    0  0.61145400481E+01 -0.27101561466E+01  0.16665633064E+02  0.17957613198E+02  0.00000000000E+00 0. -1.
        -13    1    5    5    0    0 -0.13919143415E+03 -0.43162208609E+03  0.31845318742E+03  0.55415188633E+03  0.00000000000E+00 0.  1.
          1    1    6    6  503    0 -0.26250427927E+02  0.32012008276E+02  0.22756115711E+02  0.47240813313E+02  0.00000000000E+00 0. -1.
         -1    1    6    6    0  503 -0.68881626574E+01  0.38688859547E+03  0.85558974656E+02  0.39629606386E+03  0.00000000000E+00 0.  1.
<mgrwt>
<rscale>  0 0.12896520E+04</rscale>
<asrwt>0</asrwt>
<pdfrwt beam="1">  1        2 0.11736628E+00 0.12896520E+04</pdfrwt>
<pdfrwt beam="2">  1       -1 0.83852310E-01 0.12896520E+04</pdfrwt>
<totfact> 0.57948939E+01</totfact>
</mgrwt>
</event>
<event>
12    7  0.1675873E-007  0.2625550E+04  0.7818608E-02  0.8359574E-01
          2   -1    0    0  501    0  0.00000000000E+00  0.00000000000E+00  0.31021549260E+04  0.31021549260E+04  0.00000000000E+00 0. -1.
         -1   -1    0    0    0  501 -0.00000000000E+00 -0.00000000000E+00 -0.55554225295E+03  0.55554225295E+03  0.00000000000E+00 0.  1.
         24    2    1    2    0    0  0.22709283755E+03  0.89053489932E+03  0.14668639810E+03  0.93475762571E+03  0.87357630852E+02 0.  0.
        254    2    1    2    0    0 -0.22709283755E+03 -0.89053489932E+03  0.23999262750E+04  0.27229395532E+04  0.90007228688E+03 0.  0.
         23    2    4    4    0    0 -0.50598613135E+03 -0.70071369657E+03  0.12582022590E+04  0.15290675738E+04  0.89179990747E+02 0.  0.
         23    2    4    4    0    0  0.27889329380E+03 -0.18982120275E+03  0.11417240159E+04  0.11938719795E+04  0.89347728387E+02 0.  0.
          4    1    3    3  502    0  0.99898003080E+02  0.55150956632E+03  0.72749056827E+02  0.56518566686E+03  0.00000000000E+00 0. -1.
         -3    1    3    3    0  502  0.12719483447E+03  0.33902533300E+03  0.73937341269E+02  0.36957195885E+03  0.00000000000E+00 0.  1.
         13    1    5    5    0    0 -0.47253011157E+03 -0.67465714461E+03  0.12198123873E+04  0.14718659006E+04  0.00000000000E+00 0.  1.
        -13    1    5    5    0    0 -0.33456019781E+02 -0.26056551957E+02  0.38389871746E+02  0.57201673159E+02  0.00000000000E+00 0. -1.
          4    1    6    6  503    0  0.35091445080E+02 -0.13062125692E+02  0.24720941962E+03  0.25002904990E+03  0.00000000000E+00 0. -1.
         -4    1    6    6    0  503  0.24380184872E+03 -0.17675907706E+03  0.89451459629E+03  0.94384292959E+03  0.00000000000E+00 0.  1.
<mgrwt>
<rscale>  0 0.26255500E+04</rscale>
<asrwt>0</asrwt>
<pdfrwt beam="1">  1        2 0.47725459E+00 0.26255500E+04</pdfrwt>
<pdfrwt beam="2">  1       -1 0.85468041E-01 0.26255500E+04</pdfrwt>
<totfact> 0.20365049E+00</totfact>
</mgrwt>
</event>
<event>
12    7  0.1675873E-007  0.1916114E+04  0.7818608E-02  0.8646877E-01
          2   -1    0    0  501    0  0.00000000000E+00  0.00000000000E+00  0.32527483135E+04  0.32527483135E+04  0.00000000000E+00 0. -1.
         -1   -1    0    0    0  501 -0.00000000000E+00 -0.00000000000E+00 -0.28218396265E+03  0.28218396265E+03  0.00000000000E+00 0.  1.
         24    2    1    2    0    0 -0.68808614521E+03 -0.25267122474E+03  0.13996056779E+04  0.15820577098E+04  0.81885605694E+02 0.  0.
        254    2    1    2    0    0  0.68808614521E+03  0.25267122474E+03  0.15709586730E+04  0.19528745664E+04  0.89916774233E+03 0.  0.
         23    2    4    4    0    0  0.31560912776E+03  0.57160246630E+03  0.91489746320E+03  0.11285432038E+04  0.10116270908E+03 0.  0.
         23    2    4    4    0    0  0.37247701745E+03 -0.31893124156E+03  0.65606120981E+03  0.82433136261E+03  0.93003327827E+02 0.  0.
          2    1    3    3  502    0 -0.58453259096E+03 -0.23944674931E+03  0.12343381916E+04  0.13865799172E+04  0.00000000000E+00 0. -1.
         -1    1    3    3    0  502 -0.10355355425E+03 -0.13224475431E+02  0.16526748629E+03  0.19547779253E+03  0.00000000000E+00 0.  1.
         13    1    5    5    0    0  0.48366169256E+02  0.57433574620E+02  0.16123780111E+03  0.17786379713E+03  0.00000000000E+00 0.  1.
        -13    1    5    5    0    0  0.26724295850E+03  0.51416889168E+03  0.75365966209E+03  0.95067940669E+03  0.00000000000E+00 0. -1.
          2    1    6    6  503    0  0.26524334643E+03 -0.18173000346E+03  0.37806647029E+03  0.49630039587E+03  0.00000000000E+00 0.  1.
         -2    1    6    6    0  503  0.10723367102E+03 -0.13720123810E+03  0.27799473953E+03  0.32803096674E+03  0.00000000000E+00 0. -1.
<mgrwt>
<rscale>  0 0.19161142E+04</rscale>
<asrwt>0</asrwt>
<pdfrwt beam="1">  1        2 0.50042279E+00 0.19161142E+04</pdfrwt>
<pdfrwt beam="2">  1       -1 0.43412920E-01 0.19161142E+04</pdfrwt>
<totfact> 0.67065042E+00</totfact>
</mgrwt>
</event>
<event>
12    7  0.1675873E-007  0.1177072E+04  0.7818608E-02  0.9133166E-01
          2   -1    0    0  501    0  0.00000000000E+00  0.00000000000E+00  0.41721321398E+03  0.41721321398E+03  0.00000000000E+00 0. -1.
         -1   -1    0    0    0  501 -0.00000000000E+00 -0.00000000000E+00 -0.83020974576E+03  0.83020974576E+03  0.00000000000E+00 0.  1.
         24    2    1    2    0    0 -0.92288261029E+02  0.18197508195E+03  0.35885300627E+02  0.22138004624E+03  0.78034072663E+02 0.  0.
        254    2    1    2    0    0  0.92288261029E+02 -0.18197508195E+03 -0.44888183241E+03  0.10260429135E+04  0.89979837036E+03 0.  0.
         23    2    4    4    0    0  0.26131754959E+03 -0.48295360186E+03 -0.19982969829E+03  0.59097008715E+03  0.88219568735E+02 0.  0.
         23    2    4    4    0    0 -0.16902928857E+03  0.30097851991E+03 -0.24905213412E+03  0.43507282635E+03  0.90013492753E+02 0.  0.
          2    1    3    3  502    0 -0.62313996381E+02  0.15087322503E+03  0.57516207593E+02  0.17307188770E+03  0.00000000000E+00 0. -1.
         -1    1    3    3    0  502 -0.29974264648E+02  0.31101856919E+02 -0.21630906966E+02  0.48308158536E+02  0.00000000000E+00 0.  1.
         13    1    5    5    0    0  0.10084056458E+03 -0.25582079708E+03 -0.68318246897E+02  0.28333810641E+03  0.00000000000E+00 0.  1.
        -13    1    5    5    0    0  0.16047698501E+03 -0.22713280479E+03 -0.13151145139E+03  0.30763198075E+03  0.00000000000E+00 0. -1.
          4    1    6    6  503    0 -0.13675406865E+03  0.17814121169E+03 -0.12266501069E+03  0.25589582146E+03  0.00000000000E+00 0. -1.
         -4    1    6    6    0  503 -0.32275219918E+02  0.12283730823E+03 -0.12638712343E+03  0.17917700489E+03  0.00000000000E+00 0.  1.
<mgrwt>
<rscale>  0 0.11770718E+04</rscale>
<asrwt>0</asrwt>
<pdfrwt beam="1">  1        2 0.64186649E-01 0.11770718E+04</pdfrwt>
<pdfrwt beam="2">  1       -1 0.12772457E+00 0.11770718E+04</pdfrwt>
<totfact> 0.45473898E+01</totfact>
</mgrwt>
</event>
<event>
12    7  0.1675873E-007  0.1220750E+04  0.7818608E-02  0.9094886E-01
          2   -1    0    0  501    0  0.00000000000E+00  0.00000000000E+00  0.83969322591E+03  0.83969322591E+03  0.00000000000E+00 0. -1.
         -1   -1    0    0    0  501 -0.00000000000E+00 -0.00000000000E+00 -0.44368295824E+03  0.44368295824E+03  0.00000000000E+00 0.  1.
         24    2    1    2    0    0 -0.25870102981E+03 -0.45629931540E+02  0.13559823935E+03  0.30659443779E+03  0.81270863724E+02 0.  0.
        254    2    1    2    0    0  0.25870102981E+03  0.45629931540E+02  0.26041202831E+03  0.97678174637E+03  0.90403531019E+03 0.  0.
         23    2    4    4    0    0  0.33916904311E+03 -0.29884271146E+02 -0.25961503979E+03  0.43749572630E+03  0.89854505648E+02 0.  0.
         23    2    4    4    0    0 -0.80468013299E+02  0.75514202686E+02  0.52002706810E+03  0.53928602007E+03  0.90684970690E+02 0.  0.
          4    1    3    3  502    0 -0.20364635261E+03 -0.59562553019E+02  0.78975804108E+02  0.22639945294E+03  0.00000000000E+00 0. -1.
         -3    1    3    3    0  502 -0.55054677193E+02  0.13932621479E+02  0.56622435246E+02  0.80194984852E+02  0.00000000000E+00 0.  1.
         13    1    5    5    0    0  0.13443713800E+03  0.13574537940E+02 -0.58518512755E+02  0.14724818671E+03  0.00000000000E+00 0. -1.
        -13    1    5    5    0    0  0.20473190511E+03 -0.43458809086E+02 -0.20109652703E+03  0.29024753959E+03  0.00000000000E+00 0.  1.
          4    1    6    6  503    0  0.10852890294E+02  0.11995438967E+02  0.14692628450E+02  0.21852897165E+02  0.00000000000E+00 0.  1.
         -4    1    6    6    0  503 -0.91320903592E+02  0.63518763719E+02  0.50533443965E+03  0.51743312290E+03  0.00000000000E+00 0. -1.
<mgrwt>
<rscale>  0 0.12207499E+04</rscale>
<asrwt>0</asrwt>
<pdfrwt beam="1">  1        2 0.12918357E+00 0.12207499E+04</pdfrwt>
<pdfrwt beam="2">  1       -1 0.68258917E-01 0.12207499E+04</pdfrwt>
<totfact> 0.78882712E+01</totfact>
</mgrwt>
</event>
<event>
12    7  0.1675873E-007  0.1681604E+04  0.7818608E-02  0.8771926E-01
         -1   -1    0    0    0  501 -0.00000000000E+00  0.00000000000E+00  0.93490291035E+03  0.93490291035E+03  0.00000000000E+00 0.  1.
          2   -1    0    0  501    0  0.00000000000E+00 -0.00000000000E+00 -0.75617272378E+03  0.75617272378E+03  0.00000000000E+00 0. -1.
         24    2    1    2    0    0 -0.56441418674E+03  0.68004921857E+02  0.25731547316E+03  0.62899412645E+03  0.78957677226E+02 0.  0.
        254    2    1    2    0    0  0.56441418674E+03 -0.68004921857E+02 -0.78585286588E+02  0.10620815077E+04  0.89367412299E+03 0.  0.
         23    2    4    4    0    0 -0.14372211434E+03 -0.88267903445E+02 -0.26047322499E+03  0.32519198420E+03  0.97243286277E+02 0.  0.
         23    2    4    4    0    0  0.70813630108E+03  0.20262981588E+02  0.18188793840E+03  0.73688952347E+03  0.89751536716E+02 0.  0.
          2    1    3    3  502    0 -0.13877195527E+03  0.47332769110E+02  0.48471386361E+02  0.15442642875E+03  0.00000000000E+00 0. -1.
         -1    1    3    3    0  502 -0.42564223147E+03  0.20672152747E+02  0.20884408680E+03  0.47456769770E+03  0.00000000000E+00 0.  1.
         13    1    5    5    0    0 -0.91452326709E+02 -0.50274152768E+02 -0.74256859894E+02  0.12808239433E+03  0.00000000000E+00 0. -1.
        -13    1    5    5    0    0 -0.52269787627E+02 -0.37993750677E+02 -0.18621636510E+03  0.19710958987E+03  0.00000000000E+00 0.  1.
          4    1    6    6  503    0  0.38707777735E+03 -0.12287669723E+02  0.59799642430E+02  0.39186246283E+03  0.00000000000E+00 0. -1.
         -4    1    6    6    0  503  0.32105852373E+03  0.32550651311E+02  0.12208829597E+03  0.34502706064E+03  0.00000000000E+00 0.  1.
<mgrwt>
<rscale>  0 0.16816041E+04</rscale>
<asrwt>0</asrwt>
<pdfrwt beam="1">  1        2 0.11633427E+00 0.16816041E+04</pdfrwt>
<pdfrwt beam="2">  1       -1 0.14383122E+00 0.16816041E+04</pdfrwt>
<totfact> 0.15760349E+01</totfact>
</mgrwt>
</event>
<event>
12    7  0.1675873E-007  0.1610589E+04  0.7818608E-02  0.8814069E-01
         -1   -1    0    0    0  501 -0.00000000000E+00  0.00000000000E+00  0.86826970272E+03  0.86826970272E+03  0.00000000000E+00 0.  1.
          2   -1    0    0  501    0  0.00000000000E+00 -0.00000000000E+00 -0.74688674251E+03  0.74688674251E+03  0.00000000000E+00 0. -1.
         24    2    1    2    0    0 -0.64842847715E+02 -0.43812004344E+03 -0.28674589043E+03  0.53363691194E+03  0.79946111479E+02 0.  0.
        254    2    1    2    0    0  0.64842847715E+02  0.43812004344E+03  0.40812885065E+03  0.10815195333E+04  0.89831040002E+03 0.  0.
         23    2    4    4    0    0  0.35441453818E+03  0.41830079997E+03 -0.20475353144E+02  0.55587873437E+03  0.89424287009E+02 0.  0.
         23    2    4    4    0    0 -0.28957169047E+03  0.19819243471E+02  0.42860420379E+03  0.52564079892E+03  0.91389931867E+02 0.  0.
          4    1    3    3  502    0 -0.79432159647E+02 -0.40238213129E+03 -0.24995107490E+03  0.48030863766E+03  0.00000000000E+00 0. -1.
         -3    1    3    3    0  502  0.14589311932E+02 -0.35737912156E+02 -0.36794815538E+02  0.53328274287E+02  0.00000000000E+00 0.  1.
         13    1    5    5    0    0  0.56187730599E+02  0.70321178315E+02  0.29855609625E+02  0.94833995041E+02  0.00000000000E+00 0. -1.
        -13    1    5    5    0    0  0.29822680758E+03  0.34797962166E+03 -0.50330962769E+02  0.46104473933E+03  0.00000000000E+00 0.  1.
          1    1    6    6  503    0 -0.60500146715E+01 -0.17241516739E+02  0.28918401706E+02  0.34207404669E+02  0.00000000000E+00 0. -1.
         -1    1    6    6    0  503 -0.28352167579E+03  0.37060760209E+02  0.39968580208E+03  0.49143339425E+03  0.00000000000E+00 0.  1.
<mgrwt>
<rscale>  0 0.16105889E+04</rscale>
<asrwt>0</asrwt>
<pdfrwt beam="1">  1        2 0.11490565E+00 0.16105889E+04</pdfrwt>
<pdfrwt beam="2">  1       -1 0.13357995E+00 0.16105889E+04</pdfrwt>
<totfact> 0.19527161E+01</totfact>
</mgrwt>
</event>
<event>
12    7  0.1675873E-007  0.1653734E+04  0.7818608E-02  0.8788201E-01
         -1   -1    0    0    0  501 -0.00000000000E+00  0.00000000000E+00  0.77975550594E+03  0.77975550594E+03  0.00000000000E+00 0.  1.
          2   -1    0    0  501    0  0.00000000000E+00 -0.00000000000E+00 -0.87682438536E+03  0.87682438536E+03  0.00000000000E+00 0. -1.
         24    2    1    2    0    0 -0.43450469212E+03  0.25870800369E+03 -0.31311718681E+03  0.60008693316E+03  0.79610275867E+02 0.  0.
        254    2    1    2    0    0  0.43450469212E+03 -0.25870800369E+03  0.21604830739E+03  0.10564929581E+04  0.90209552756E+03 0.  0.
         23    2    4    4    0    0 -0.21613530300E+03 -0.29302317179E+03  0.54869237360E+02  0.37911720197E+03  0.90233980357E+02 0.  0.
         23    2    4    4    0    0  0.65063999512E+03  0.34315168103E+02  0.16117907003E+03  0.67737575617E+03  0.91374440727E+02 0.  0.
          2    1    3    3  502    0 -0.43613469733E+03  0.25051361788E+03 -0.31139897033E+03  0.59155715335E+03  0.00000000000E+00 0. -1.
         -1    1    3    3    0  502  0.16300052046E+01  0.81943858046E+01 -0.17182164752E+01  0.85297798059E+01  0.00000000000E+00 0.  1.
         13    1    5    5    0    0 -0.19714411637E+03 -0.29562087706E+03  0.47103582584E+02  0.35843584233E+03  0.00000000000E+00 0. -1.
        -13    1    5    5    0    0 -0.18991186635E+02  0.25977052730E+01  0.77656547761E+01  0.20681359641E+02  0.00000000000E+00 0.  1.
          2    1    6    6  503    0  0.40026580990E+03  0.65466873519E+02  0.96147697483E+02  0.41682491508E+03  0.00000000000E+00 0. -1.
         -2    1    6    6    0  503  0.25037418523E+03 -0.31151705417E+02  0.65031372545E+02  0.26055084109E+03  0.00000000000E+00 0.  1.
<mgrwt>
<rscale>  0 0.16537335E+04</rscale>
<asrwt>0</asrwt>
<pdfrwt beam="1">  1        2 0.13489606E+00 0.16537335E+04</pdfrwt>
<pdfrwt beam="2">  1       -1 0.11996239E+00 0.16537335E+04</pdfrwt>
<totfact> 0.20539410E+01</totfact>
</mgrwt>
</event>
<event>
12    7  0.1675873E-007  0.1898023E+04  0.7818608E-02  0.8655841E-01
          2   -1    0    0  501    0  0.00000000000E+00  0.00000000000E+00  0.16760091811E+04  0.16760091811E+04  0.00000000000E+00 0. -1.
         -1   -1    0    0    0  501 -0.00000000000E+00 -0.00000000000E+00 -0.53736176491E+03  0.53736176491E+03  0.00000000000E+00 0.  1.
         24    2    1    2    0    0  0.44547158261E+03 -0.36642651294E+03 -0.87343193114E+02  0.58908106277E+03  0.81696663516E+02 0.  0.
        254    2    1    2    0    0 -0.44547158261E+03  0.36642651294E+03  0.12259906093E+04  0.16242898832E+04  0.89585229272E+03 0.  0.
         23    2    4    4    0    0 -0.15724043765E+03  0.62923533223E+03  0.65046522357E+03  0.92298523594E+03  0.90194679072E+02 0.  0.
         23    2    4    4    0    0 -0.28823114497E+03 -0.26280881929E+03  0.57552538570E+03  0.70130464727E+03  0.91940580083E+02 0.  0.
          4    1    3    3  502    0  0.25002813293E+03 -0.19293877522E+03 -0.87622777170E+02  0.32774561678E+03  0.00000000000E+00 0. -1.
         -3    1    3    3    0  502  0.19544344968E+03 -0.17348773772E+03  0.27958405534E+00  0.26133544599E+03  0.00000000000E+00 0.  1.
         13    1    5    5    0    0  0.72906065814E+01  0.83172038589E+01  0.20436774432E+02  0.23237697251E+02  0.00000000000E+00 0.  1.
        -13    1    5    5    0    0 -0.16453104423E+03  0.62091812837E+03  0.63002844913E+03  0.89974753869E+03  0.00000000000E+00 0. -1.
          3    1    6    6  503    0 -0.33800034416E+02 -0.75090015180E+02  0.15067980373E+03  0.17171300463E+03  0.00000000000E+00 0. -1.
         -3    1    6    6    0  503 -0.25443111055E+03 -0.18771880411E+03  0.42484558197E+03  0.52959164264E+03  0.00000000000E+00 0.  1.
<mgrwt>
<rscale>  0 0.18980234E+04</rscale>
<asrwt>0</asrwt>
<pdfrwt beam="1">  1        2 0.25784756E+00 0.18980234E+04</pdfrwt>
<pdfrwt beam="2">  1       -1 0.82671042E-01 0.18980234E+04</pdfrwt>
<totfact> 0.15687823E+01</totfact>
</mgrwt>
</event>
<event>
12    7  0.1675873E-007  0.1215393E+04  0.7818608E-02  0.9099489E-01
          2   -1    0    0  501    0  0.00000000000E+00  0.00000000000E+00  0.89664014268E+03  0.89664014268E+03  0.00000000000E+00 0. -1.
         -1   -1    0    0    0  501 -0.00000000000E+00 -0.00000000000E+00 -0.41186554685E+03  0.41186554685E+03  0.00000000000E+00 0.  1.
         24    2    1    2    0    0  0.83502257632E+02  0.39163379775E+02  0.36996086377E+03  0.39108718030E+03  0.87015771735E+02 0.  0.
        254    2    1    2    0    0 -0.83502257632E+02 -0.39163379775E+02  0.11481373206E+03  0.91741850922E+03  0.90552091674E+03 0.  0.
         23    2    4    4    0    0 -0.18291280234E+03 -0.18714406902E+03  0.44879283590E+03  0.52762604745E+03  0.92164204354E+02 0.  0.
         23    2    4    4    0    0  0.99410544709E+02  0.14798068925E+03 -0.33397910384E+03  0.38979246177E+03  0.92819074906E+02 0.  0.
          4    1    3    3  502    0  0.10150495536E+03  0.26906623941E+02  0.30824723212E+03  0.32564333017E+03  0.00000000000E+00 0. -1.
         -3    1    3    3    0  502 -0.18002697724E+02  0.12256755834E+02  0.61713631653E+02  0.65443850136E+02  0.00000000000E+00 0.  1.
         13    1    5    5    0    0 -0.32863409635E+02  0.49994125561E+01  0.45018190367E+02  0.55961015740E+02  0.00000000000E+00 0. -1.
        -13    1    5    5    0    0 -0.15004939271E+03 -0.19214348158E+03  0.40377464553E+03  0.47166503171E+03  0.00000000000E+00 0.  1.
          3    1    6    6  503    0  0.16949285291E+02 -0.53180673094E+01 -0.64837266606E+01  0.18910283531E+02  0.00000000000E+00 0. -1.
         -3    1    6    6    0  503  0.82461259418E+02  0.15329875656E+03 -0.32749537718E+03  0.37088217824E+03  0.00000000000E+00 0.  1.
<mgrwt>
<rscale>  0 0.12153932E+04</rscale>
<asrwt>0</asrwt>
<pdfrwt beam="1">  1        2 0.13794464E+00 0.12153932E+04</pdfrwt>
<pdfrwt beam="2">  1       -1 0.63363930E-01 0.12153932E+04</pdfrwt>
<totfact> 0.83770093E+01</totfact>
</mgrwt>
</event>
<event>
12    7  0.1675873E-007  0.1468871E+04  0.7818608E-02  0.8905422E-01
          2   -1    0    0  501    0  0.00000000000E+00  0.00000000000E+00  0.22017147192E+04  0.22017147192E+04  0.00000000000E+00 0. -1.
         -1   -1    0    0    0  501 -0.00000000000E+00 -0.00000000000E+00 -0.24498871178E+03  0.24498871178E+03  0.00000000000E+00 0.  1.
         24    2    1    2    0    0  0.72038201577E+01 -0.37540677416E+03  0.10117274457E+04  0.10822723471E+04  0.82090607303E+02 0.  0.
        254    2    1    2    0    0 -0.72038201577E+01  0.37540677416E+03  0.94499856180E+03  0.13644310840E+04  0.90976247448E+03 0.  0.
         23    2    4    4    0    0 -0.26121039735E+03  0.57080599772E+03  0.73551833312E+03  0.97120251082E+03  0.90535848935E+02 0.  0.
         23    2    4    4    0    0  0.25400657719E+03 -0.19539922357E+03  0.20948022868E+03  0.39322857315E+03  0.89702545680E+02 0.  0.
          2    1    3    3  502    0  0.35682376394E+02 -0.24776240961E+03  0.59519111755E+03  0.64568716110E+03  0.00000000000E+00 0. -1.
         -1    1    3    3    0  502 -0.28478556237E+02 -0.12764436455E+03  0.41653632810E+03  0.43658518595E+03  0.00000000000E+00 0.  1.
         13    1    5    5    0    0 -0.15920805497E+03  0.39782662670E+03  0.44244980347E+03  0.61593429704E+03  0.00000000000E+00 0.  1.
        -13    1    5    5    0    0 -0.10200234238E+03  0.17297937103E+03  0.29306852965E+03  0.35526821378E+03  0.00000000000E+00 0. -1.
          2    1    6    6  503    0  0.10400496392E+03 -0.57343230246E+02  0.32169759917E+02  0.12304540637E+03  0.00000000000E+00 0. -1.
         -2    1    6    6    0  503  0.15000161327E+03 -0.13805599332E+03  0.17731046876E+03  0.27018316678E+03  0.00000000000E+00 0.  1.
<mgrwt>
<rscale>  0 0.14688707E+04</rscale>
<asrwt>0</asrwt>
<pdfrwt beam="1">  1        2 0.33872533E+00 0.14688707E+04</pdfrwt>
<pdfrwt beam="2">  1       -1 0.37690572E-01 0.14688707E+04</pdfrwt>
<totfact> 0.38629228E+01</totfact>
</mgrwt>
</event>
<event>
12    7  0.1675873E-007  0.1625387E+04  0.7818608E-02  0.8805102E-01
          2   -1    0    0  501    0  0.00000000000E+00  0.00000000000E+00  0.59620157498E+03  0.59620157498E+03  0.00000000000E+00 0. -1.
         -1   -1    0    0    0  501 -0.00000000000E+00 -0.00000000000E+00 -0.11077979671E+04  0.11077979671E+04  0.00000000000E+00 0.  1.
         24    2    1    2    0    0  0.21138801186E+03  0.40656143405E+03 -0.50302101701E+03  0.68513455969E+03  0.80013312157E+02 0.  0.
        254    2    1    2    0    0 -0.21138801186E+03 -0.40656143405E+03 -0.85753751126E+01  0.10188649824E+04  0.90996440814E+03 0.  0.
         23    2    4    4    0    0 -0.13694375281E+03  0.26371153223E+03  0.10716693704E+03  0.32832899273E+03  0.89542232557E+02 0.  0.
         23    2    4    4    0    0 -0.74444259052E+02 -0.67027296628E+03 -0.11574231215E+03  0.69053598966E+03  0.92929398810E+02 0.  0.
          2    1    3    3  502    0  0.19296276715E+02  0.10287696294E+02 -0.43379315414E+02  0.48579295960E+02  0.00000000000E+00 0. -1.
         -1    1    3    3    0  502  0.19209173515E+03  0.39627373776E+03 -0.45964170159E+03  0.63655526373E+03  0.00000000000E+00 0.  1.
         13    1    5    5    0    0 -0.62019674869E+02  0.20280331944E+03  0.89411401860E+02  0.23015217841E+03  0.00000000000E+00 0.  1.
        -13    1    5    5    0    0 -0.74924077940E+02  0.60908212790E+02  0.17755535179E+02  0.98176814319E+02  0.00000000000E+00 0. -1.
          3    1    6    6  503    0 -0.55768771627E+00 -0.34427278751E+01  0.76176237041E+01  0.83780416392E+01  0.00000000000E+00 0. -1.
         -3    1    6    6    0  503 -0.73886571336E+02 -0.66683023840E+03 -0.12335993586E+03  0.68215794802E+03  0.00000000000E+00 0.  1.
<mgrwt>
<rscale>  0 0.16253872E+04</rscale>
<asrwt>0</asrwt>
<pdfrwt beam="1">  1        2 0.91723320E-01 0.16253872E+04</pdfrwt>
<pdfrwt beam="2">  1       -1 0.17043045E+00 0.16253872E+04</pdfrwt>
<totfact> 0.13349114E+01</totfact>
</mgrwt>
</event>
<event>
12    7  0.1675873E-007  0.1561750E+04  0.7818608E-02  0.8844397E-01
          2   -1    0    0  501    0  0.00000000000E+00  0.00000000000E+00  0.60798416396E+03  0.60798416396E+03  0.00000000000E+00 0. -1.
         -1   -1    0    0    0  501 -0.00000000000E+00 -0.00000000000E+00 -0.10029302332E+04  0.10029302332E+04  0.00000000000E+00 0.  1.
         24    2    1    2    0    0 -0.67129397442E+02  0.11520102632E+03 -0.64953784366E+03  0.66791259610E+03  0.80188485568E+02 0.  0.
        254    2    1    2    0    0  0.67129397442E+02 -0.11520102632E+03  0.25459177446E+03  0.94300180101E+03  0.89814129881E+03 0.  0.
         23    2    4    4    0    0 -0.14266433821E+03 -0.57533159746E+01  0.53760308255E+03  0.56349857304E+03  0.90151835320E+02 0.  0.
         23    2    4    4    0    0  0.20979373565E+03 -0.10944771034E+03 -0.28301130809E+03  0.37950322797E+03  0.89079103693E+02 0.  0.
          4    1    3    3  502    0  0.87712416278E+01  0.24099528035E+01 -0.79555090814E+01  0.12084398080E+02  0.00000000000E+00 0. -1.
         -1    1    3    3    0  502 -0.75900639069E+02  0.11279107352E+03 -0.64158233458E+03  0.65582819803E+03  0.00000000000E+00 0.  1.
         13    1    5    5    0    0  0.10152077981E+02  0.18840591230E+01  0.10869519492E+02  0.14992025217E+02  0.00000000000E+00 0. -1.
        -13    1    5    5    0    0 -0.15281641619E+03 -0.76373750976E+01  0.52673356306E+03  0.54850654783E+03  0.00000000000E+00 0.  1.
          3    1    6    6  503    0 -0.47148738186E+01 -0.16359211077E+02 -0.89278382313E+01  0.19223946464E+02  0.00000000000E+00 0. -1.
         -3    1    6    6    0  503  0.21450860947E+03 -0.93088499268E+02 -0.27408346986E+03  0.36027928151E+03  0.00000000000E+00 0.  1.
<mgrwt>
<rscale>  0 0.15617499E+04</rscale>
<asrwt>0</asrwt>
<pdfrwt beam="1">  1        2 0.93536025E-01 0.15617499E+04</pdfrwt>
<pdfrwt beam="2">  1       -1 0.15429696E+00 0.15617499E+04</pdfrwt>
<totfact> 0.17329648E+01</totfact>
</mgrwt>
</event>
<event>
12    7  0.1675873E-007  0.1154185E+04  0.7818608E-02  0.9153932E-01
          2   -1    0    0  501    0  0.00000000000E+00  0.00000000000E+00  0.31462379216E+04  0.31462379216E+04  0.00000000000E+00 0. -1.
         -1   -1    0    0    0  501 -0.00000000000E+00 -0.00000000000E+00 -0.10585197508E+03  0.10585197508E+03  0.00000000000E+00 0.  1.
         24    2    1    2    0    0 -0.16501997804E+03  0.36314774838E+02  0.22590694591E+03  0.29336661646E+03  0.80496381425E+02 0.  0.
        254    2    1    2    0    0  0.16501997804E+03 -0.36314774838E+02  0.28144790006E+04  0.29587232802E+04  0.89677257316E+03 0.  0.
         23    2    4    4    0    0 -0.10561560576E+03  0.37191177260E+03  0.96959388494E+03  0.10477512337E+04  0.90539070069E+02 0.  0.
         23    2    4    4    0    0  0.27063558380E+03 -0.40822654743E+03  0.18448851156E+04  0.19109720465E+04  0.91216990322E+02 0.  0.
          2    1    3    3  502    0 -0.85148946215E+01  0.95600656937E+01 -0.44830671396E+01  0.13564519065E+02  0.00000000000E+00 0. -1.
         -1    1    3    3    0  502 -0.15650508341E+03  0.26754709144E+02  0.23039001305E+03  0.27980209740E+03  0.00000000000E+00 0.  1.
         13    1    5    5    0    0 -0.46178293906E+02  0.51473158888E+02  0.21319133791E+03  0.22412600802E+03  0.00000000000E+00 0.  1.
        -13    1    5    5    0    0 -0.59437311859E+02  0.32043861371E+03  0.75640254703E+03  0.82362522567E+03  0.00000000000E+00 0. -1.
          1    1    6    6  503    0 -0.49523898910E+01 -0.28118623121E+02  0.95081235557E+02  0.99275497919E+02  0.00000000000E+00 0. -1.
         -1    1    6    6    0  503  0.27558797369E+03 -0.38010792431E+03  0.17498038801E+04  0.18116965486E+04  0.00000000000E+00 0.  1.
<mgrwt>
<rscale>  0 0.11541846E+04</rscale>
<asrwt>0</asrwt>
<pdfrwt beam="1">  1        2 0.48403653E+00 0.11541846E+04</pdfrwt>
<pdfrwt beam="2">  1       -1 0.16284922E-01 0.11541846E+04</pdfrwt>
<totfact> 0.46460823E+01</totfact>
</mgrwt>
</event>
<event>
12    7  0.1675873E-007  0.1346832E+04  0.7818608E-02  0.8993230E-01
          2   -1    0    0  501    0  0.00000000000E+00  0.00000000000E+00  0.15153151600E+04  0.15153151600E+04  0.00000000000E+00 0. -1.
         -1   -1    0    0    0  501 -0.00000000000E+00 -0.00000000000E+00 -0.29927053535E+03  0.29927053535E+03  0.00000000000E+00 0.  1.
         24    2    1    2    0    0 -0.23180725674E+03 -0.55422069250E+02 -0.43934314699E+02  0.25540264776E+03  0.80585845123E+02 0.  0.
        254    2    1    2    0    0  0.23180725674E+03  0.55422069250E+02  0.12599789394E+04  0.15591830476E+04  0.88696033637E+03 0.  0.
         23    2    4    4    0    0 -0.17881690105E+03  0.25748986867E+03  0.93491752066E+03  0.99021367642E+03  0.90420340385E+02 0.  0.
         23    2    4    4    0    0  0.41062415780E+03 -0.20206779942E+03  0.32506141869E+03  0.56896937119E+03  0.92831163412E+02 0.  0.
          4    1    3    3  502    0 -0.12133865738E+03 -0.53867388353E+02 -0.56360558629E+02  0.14422648117E+03  0.00000000000E+00 0. -1.
         -3    1    3    3    0  502 -0.11046859936E+03 -0.15546808973E+01  0.12426243929E+02  0.11117616658E+03  0.00000000000E+00 0.  1.
         13    1    5    5    0    0 -0.12700757192E+03  0.12190750416E+03  0.59768035964E+03  0.62306835515E+03  0.00000000000E+00 0. -1.
        -13    1    5    5    0    0 -0.51809329131E+02  0.13558236451E+03  0.33723716102E+03  0.36714532127E+03  0.00000000000E+00 0.  1.
          3    1    6    6  503    0  0.33197891868E+03 -0.12990023628E+03  0.21838757328E+03  0.41806363869E+03  0.00000000000E+00 0. -1.
         -3    1    6    6    0  503  0.78645239119E+02 -0.72167563140E+02  0.10667384542E+03  0.15090573250E+03  0.00000000000E+00 0.  1.
<mgrwt>
<rscale>  0 0.13468321E+04</rscale>
<asrwt>0</asrwt>
<pdfrwt beam="1">  1        2 0.23312540E+00 0.13468321E+04</pdfrwt>
<pdfrwt beam="2">  1       -1 0.46041622E-01 0.13468321E+04</pdfrwt>
<totfact> 0.64981147E+01</totfact>
</mgrwt>
</event>
<event>
12    7  0.1675873E-007  0.2498363E+04  0.7818608E-02  0.8403569E-01
         -1   -1    0    0    0  501 -0.00000000000E+00  0.00000000000E+00  0.64956177547E+03  0.64956177547E+03  0.00000000000E+00 0.  1.
          2   -1    0    0  501    0  0.00000000000E+00 -0.00000000000E+00 -0.24023192768E+04  0.24023192768E+04  0.00000000000E+00 0. -1.
         24    2    1    2    0    0 -0.21727120663E+03  0.19730528263E+03  0.52224832474E+03  0.60411784192E+03  0.77967316477E+02 0.  0.
        254    2    1    2    0    0  0.21727120663E+03 -0.19730528263E+03 -0.22750058261E+04  0.24477632103E+04  0.85425820070E+03 0.  0.
         23    2    4    4    0    0 -0.94326545679E+02 -0.45616855400E+03 -0.99495896958E+03  0.11022569102E+04  0.89664362748E+02 0.  0.
         23    2    4    4    0    0  0.31159775231E+03  0.25886327137E+03 -0.12800468565E+04  0.13455063002E+04  0.88112975971E+02 0.  0.
          4    1    3    3  502    0 -0.55407020617E+01 -0.48767214534E+01  0.28844739387E+01  0.79247701149E+01  0.00000000000E+00 0. -1.
         -3    1    3    3    0  502 -0.21173050457E+03  0.20218200408E+03  0.51936385081E+03  0.59619307180E+03  0.00000000000E+00 0.  1.
         13    1    5    5    0    0 -0.67397353330E+02 -0.42087323032E+03 -0.85378597933E+03  0.95426787526E+03  0.00000000000E+00 0. -1.
        -13    1    5    5    0    0 -0.26929192348E+02 -0.35295323681E+02 -0.14117299025E+03  0.14798903490E+03  0.00000000000E+00 0.  1.
          2    1    6    6  503    0  0.21041090232E+03  0.18381284666E+03 -0.10025138780E+04  0.10407180146E+04  0.00000000000E+00 0. -1.
         -2    1    6    6    0  503  0.10118684999E+03  0.75050424710E+02 -0.27753297849E+03  0.30478828555E+03  0.00000000000E+00 0.  1.
<mgrwt>
<rscale>  0 0.24983633E+04</rscale>
<asrwt>0</asrwt>
<pdfrwt beam="1">  1        2 0.36958759E+00 0.24983633E+04</pdfrwt>
<pdfrwt beam="2">  1       -1 0.99932579E-01 0.24983633E+04</pdfrwt>
<totfact> 0.38379254E+00</totfact>
</mgrwt>
</event>
<event>
12    7  0.1675873E-007  0.2762609E+04  0.7818608E-02  0.8314972E-01
         -1   -1    0    0    0  501 -0.00000000000E+00  0.00000000000E+00  0.14766430714E+04  0.14766430714E+04  0.00000000000E+00 0.  1.
          2   -1    0    0  501    0  0.00000000000E+00 -0.00000000000E+00 -0.12921210583E+04  0.12921210583E+04  0.00000000000E+00 0. -1.
         24    2    1    2    0    0 -0.10079175102E+04 -0.35217746132E+03 -0.53481963153E+03  0.11968307887E+04  0.80282171080E+02 0.  0.
        254    2    1    2    0    0  0.10079175102E+04  0.35217746132E+03  0.71934164460E+03  0.15719333410E+04  0.90199520809E+03 0.  0.
         23    2    4    4    0    0  0.17462323225E+03  0.50785039820E+03  0.29706132301E+03  0.62048527038E+03  0.91385124254E+02 0.  0.
         23    2    4    4    0    0  0.83329427791E+03 -0.15567293688E+03  0.42228032158E+03  0.95144807065E+03  0.91210439449E+02 0.  0.
          4    1    3    3  502    0 -0.89704428880E+03 -0.28851368410E+03 -0.45842302476E+03  0.10478932539E+04  0.00000000000E+00 0. -1.
         -3    1    3    3    0  502 -0.11087322137E+03 -0.63663777219E+02 -0.76396606769E+02  0.14893753480E+03  0.00000000000E+00 0.  1.
         13    1    5    5    0    0  0.77111995043E+01  0.59794268091E+02  0.66178112154E+02  0.89522955842E+02  0.00000000000E+00 0.  1.
        -13    1    5    5    0    0  0.16691203275E+03  0.44805613011E+03  0.23088321086E+03  0.53096231454E+03  0.00000000000E+00 0. -1.
          1    1    6    6  503    0  0.73092917126E+03 -0.10557049971E+03  0.36032502249E+03  0.82172787810E+03  0.00000000000E+00 0. -1.
         -1    1    6    6    0  503  0.10236510665E+03 -0.50102437165E+02  0.61955299088E+02  0.12972019255E+03  0.00000000000E+00 0.  1.
<mgrwt>
<rscale>  0 0.27626086E+04</rscale>
<asrwt>0</asrwt>
<pdfrwt beam="1">  1        2 0.19878786E+00 0.27626086E+04</pdfrwt>
<pdfrwt beam="2">  1       -1 0.22717586E+00 0.27626086E+04</pdfrwt>
<totfact> 0.16373888E+00</totfact>
</mgrwt>
</event>
<event>
12    7  0.1675873E-007  0.1349477E+04  0.7818608E-02  0.8991224E-01
          2   -1    0    0  501    0  0.00000000000E+00  0.00000000000E+00  0.49916720621E+03  0.49916720621E+03  0.00000000000E+00 0. -1.
         -1   -1    0    0    0  501 -0.00000000000E+00 -0.00000000000E+00 -0.91206368063E+03  0.91206368063E+03  0.00000000000E+00 0.  1.
         24    2    1    2    0    0 -0.13645661403E+03 -0.24526472472E+03 -0.40825338998E+03  0.50183607416E+03  0.79958878148E+02 0.  0.
        254    2    1    2    0    0  0.13645661403E+03  0.24526472472E+03 -0.46430844383E+01  0.90939481268E+03  0.86498680591E+03 0.  0.
         23    2    4    4    0    0 -0.39713129494E+01  0.51544820546E+03  0.16504022966E+03  0.54881289793E+03  0.90855355886E+02 0.  0.
         23    2    4    4    0    0  0.14042792698E+03 -0.27018348073E+03 -0.16968331409E+03  0.36058191475E+03  0.92237596610E+02 0.  0.
          4    1    3    3  502    0 -0.17447342584E+02 -0.46829763296E+02 -0.13398090000E+03  0.14299761557E+03  0.00000000000E+00 0. -1.
         -3    1    3    3    0  502 -0.11900927144E+03 -0.19843496143E+03 -0.27427248998E+03  0.35883845860E+03  0.00000000000E+00 0.  1.
         13    1    5    5    0    0  0.11528134010E+02  0.45060011188E+03  0.11426341190E+03  0.46500482363E+03  0.00000000000E+00 0. -1.
        -13    1    5    5    0    0 -0.15499446960E+02  0.64848093579E+02  0.50776817753E+02  0.83808074301E+02  0.00000000000E+00 0.  1.
          3    1    6    6  503    0  0.12863405118E+03 -0.25262532007E+03 -0.12240283446E+03  0.30878588916E+03  0.00000000000E+00 0. -1.
         -3    1    6    6    0  503  0.11793875796E+02 -0.17558160668E+02 -0.47280479639E+02  0.51796025593E+02  0.00000000000E+00 0.  1.
<mgrwt>
<rscale>  0 0.13494773E+04</rscale>
<asrwt>0</asrwt>
<pdfrwt beam="1">  1        2 0.76794955E-01 0.13494773E+04</pdfrwt>
<pdfrwt beam="2">  1       -1 0.14031749E+00 0.13494773E+04</pdfrwt>
<totfact> 0.28721179E+01</totfact>
</mgrwt>
</event>
<event>
12    7  0.1675873E-007  0.1129672E+04  0.7818608E-02  0.9176745E-01
         -1   -1    0    0    0  501 -0.00000000000E+00  0.00000000000E+00  0.16352991628E+03  0.16352991628E+03  0.00000000000E+00 0.  1.
          2   -1    0    0  501    0  0.00000000000E+00 -0.00000000000E+00 -0.19509548578E+04  0.19509548578E+04  0.00000000000E+00 0. -1.
         24    2    1    2    0    0 -0.15124508198E+03  0.11061875792E+03 -0.24682751944E+03  0.32016846085E+03  0.80451442125E+02 0.  0.
        254    2    1    2    0    0  0.15124508198E+03 -0.11061875792E+03 -0.15405974221E+04  0.17943163133E+04  0.90056595018E+03 0.  0.
         23    2    4    4    0    0  0.49590175847E+03 -0.10397708793E+03 -0.11786139290E+04  0.12860612677E+04  0.89961112366E+02 0.  0.
         23    2    4    4    0    0 -0.34465667649E+03 -0.66416699938E+01 -0.36198349310E+03  0.50825504557E+03  0.91971765506E+02 0.  0.
          4    1    3    3  502    0 -0.41967211551E+02  0.83381065760E+01 -0.17304594498E+02  0.46154304863E+02  0.00000000000E+00 0. -1.
         -3    1    3    3    0  502 -0.10927787043E+03  0.10228065135E+03 -0.22952292494E+03  0.27401415598E+03  0.00000000000E+00 0.  1.
         13    1    5    5    0    0  0.14552608488E+03 -0.30666953150E+01 -0.26439953223E+03  0.30181841998E+03  0.00000000000E+00 0.  1.
        -13    1    5    5    0    0  0.35037567359E+03 -0.10091039261E+03 -0.91421439678E+03  0.98424284771E+03  0.00000000000E+00 0. -1.
          2    1    6    6  503    0 -0.17659778928E+03  0.30824895183E+02 -0.14079201614E+03  0.22794592593E+03  0.00000000000E+00 0. -1.
         -2    1    6    6    0  503 -0.16805888721E+03 -0.37466565176E+02 -0.22119147695E+03  0.28030911964E+03  0.00000000000E+00 0.  1.
<mgrwt>
<rscale>  0 0.11296716E+04</rscale>
<asrwt>0</asrwt>
<pdfrwt beam="1">  1        2 0.30014690E+00 0.11296716E+04</pdfrwt>
<pdfrwt beam="2">  1       -1 0.25158448E-01 0.11296716E+04</pdfrwt>
<totfact> 0.11146097E+02</totfact>
</mgrwt>
</event>
<event>
12    7  0.1675873E-007  0.1472944E+04  0.7818608E-02  0.8902647E-01
          2   -1    0    0  501    0  0.00000000000E+00  0.00000000000E+00  0.12772393479E+04  0.12772393479E+04  0.00000000000E+00 0. -1.
         -1   -1    0    0    0  501 -0.00000000000E+00 -0.00000000000E+00 -0.42465893310E+03  0.42465893310E+03  0.00000000000E+00 0.  1.
         24    2    1    2    0    0  0.14152181522E+03 -0.33893090646E+03 -0.45179470382E+02  0.37891730610E+03  0.81452788688E+02 0.  0.
        254    2    1    2    0    0 -0.14152181522E+03  0.33893090646E+03  0.89775988514E+03  0.13229809749E+04  0.89966841944E+03 0.  0.
         23    2    4    4    0    0  0.17279754099E+03  0.42418118825E+03  0.86493514871E+03  0.98305370640E+03  0.92158057478E+02 0.  0.
         23    2    4    4    0    0 -0.31431935620E+03 -0.85250281792E+02  0.32824736437E+02  0.33992726846E+03  0.91699598103E+02 0.  0.
          2    1    3    3  502    0  0.66587281068E+02 -0.93014875113E+02 -0.41876530846E+02  0.12181657042E+03  0.00000000000E+00 0. -1.
         -1    1    3    3    0  502  0.74934534147E+02 -0.24591603134E+03 -0.33029395364E+01  0.25710073569E+03  0.00000000000E+00 0.  1.
         13    1    5    5    0    0  0.15615350929E+03  0.38734257986E+03  0.71768221434E+03  0.83035290895E+03  0.00000000000E+00 0. -1.
        -13    1    5    5    0    0  0.16644031702E+02  0.36838608394E+02  0.14725293437E+03  0.15270079744E+03  0.00000000000E+00 0.  1.
          4    1    6    6  503    0 -0.31984082425E+03 -0.83604946443E+02  0.26926419207E+02  0.33168203445E+03  0.00000000000E+00 0. -1.
         -4    1    6    6    0  503  0.55214680445E+01 -0.16453353490E+01  0.58983172297E+01  0.82452340124E+01  0.00000000000E+00 0.  1.
<mgrwt>
<rscale>  0 0.14729441E+04</rscale>
<asrwt>0</asrwt>
<pdfrwt beam="1">  1        2 0.19649836E+00 0.14729441E+04</pdfrwt>
<pdfrwt beam="2">  1       -1 0.65332144E-01 0.14729441E+04</pdfrwt>
<totfact> 0.44685767E+01</totfact>
</mgrwt>
</event>
<event>
12    7  0.1675873E-007  0.1787612E+04  0.7818608E-02  0.8712915E-01
         -1   -1    0    0    0  501 -0.00000000000E+00  0.00000000000E+00  0.13420676373E+04  0.13420676373E+04  0.00000000000E+00 0.  1.
          2   -1    0    0  501    0  0.00000000000E+00 -0.00000000000E+00 -0.59526719570E+03  0.59526719570E+03  0.00000000000E+00 0. -1.
         24    2    1    2    0    0  0.50094918151E+03 -0.94672228362E+02  0.73655980450E+03  0.89962904120E+03  0.83061139394E+02 0.  0.
        254    2    1    2    0    0 -0.50094918151E+03  0.94672228362E+02  0.10240637057E+02  0.10377057918E+04  0.90377847194E+03 0.  0.
         23    2    4    4    0    0 -0.24798381009E+03  0.44968786717E+03  0.19587308247E+03  0.55537389902E+03  0.79741804148E+02 0.  0.
         23    2    4    4    0    0 -0.25296537142E+03 -0.35501563881E+03 -0.18563244541E+03  0.48233189275E+03  0.90316482621E+02 0.  0.
          4    1    3    3  502    0  0.13076826950E+03 -0.18588070584E+02  0.13248456717E+03  0.18707757005E+03  0.00000000000E+00 0. -1.
         -3    1    3    3    0  502  0.37018091201E+03 -0.76084157778E+02  0.60407523733E+03  0.71255147115E+03  0.00000000000E+00 0.  1.
         13    1    5    5    0    0 -0.15848472834E+02  0.21106739286E+02 -0.71891516010E+01  0.27356031057E+02  0.00000000000E+00 0. -1.
        -13    1    5    5    0    0 -0.23213533726E+03  0.42858112788E+03  0.20306223407E+03  0.52801786796E+03  0.00000000000E+00 0.  1.
          3    1    6    6  503    0 -0.61690532563E+02 -0.10826116911E+03 -0.12234149068E+02  0.12520334240E+03  0.00000000000E+00 0. -1.
         -3    1    6    6    0  503 -0.19127483886E+03 -0.24675446970E+03 -0.17339829635E+03  0.35712855035E+03  0.00000000000E+00 0.  1.
<mgrwt>
<rscale>  0 0.17876116E+04</rscale>
<asrwt>0</asrwt>
<pdfrwt beam="1">  1        2 0.91579569E-01 0.17876116E+04</pdfrwt>
<pdfrwt beam="2">  1       -1 0.20647194E+00 0.17876116E+04</pdfrwt>
<totfact> 0.73429691E+00</totfact>
</mgrwt>
</event>
<event>
12    7  0.1675873E-007  0.2116998E+04  0.7818608E-02  0.8553792E-01
          2   -1    0    0  501    0  0.00000000000E+00  0.00000000000E+00  0.18143522058E+04  0.18143522058E+04  0.00000000000E+00 0. -1.
         -1   -1    0    0    0  501 -0.00000000000E+00 -0.00000000000E+00 -0.61753181578E+03  0.61753181578E+03  0.00000000000E+00 0.  1.
         24    2    1    2    0    0 -0.30986796687E+03 -0.76092756052E+03  0.79643773678E+03  0.11470986861E+04  0.80581745925E+02 0.  0.
        254    2    1    2    0    0  0.30986796687E+03  0.76092756052E+03  0.40038265325E+03  0.12847853355E+04  0.90296078547E+03 0.  0.
         23    2    4    4    0    0 -0.31228530188E+02 -0.17105657712E+03 -0.33170781375E+02  0.19763160477E+03  0.87877054988E+02 0.  0.
         23    2    4    4    0    0  0.34109649706E+03  0.93198413764E+03  0.43355343463E+03  0.10871537308E+04  0.94833540952E+02 0.  0.
          2    1    3    3  502    0 -0.27466893051E+03 -0.68493255244E+03  0.67862193199E+03  0.10025484274E+04  0.00000000000E+00 0. -1.
         -1    1    3    3    0  502 -0.35199036357E+02 -0.75995008080E+02  0.11781580479E+03  0.14455025864E+03  0.00000000000E+00 0.  1.
         13    1    5    5    0    0 -0.67528236839E+01 -0.16715959241E+03 -0.39823050950E+02  0.17197036183E+03  0.00000000000E+00 0. -1.
        -13    1    5    5    0    0 -0.24475706504E+02 -0.38969847137E+01  0.66522695749E+01  0.25661242940E+02  0.00000000000E+00 0.  1.
          2    1    6    6  503    0  0.25392586486E+03  0.71164841764E+03  0.37269686378E+03  0.84251098952E+03  0.00000000000E+00 0. -1.
         -2    1    6    6    0  503  0.87170632200E+02  0.22033572000E+03  0.60856570843E+02  0.24464274124E+03  0.00000000000E+00 0.  1.
<mgrwt>
<rscale>  0 0.21169981E+04</rscale>
<asrwt>0</asrwt>
<pdfrwt beam="1">  1        2 0.27913111E+00 0.21169981E+04</pdfrwt>
<pdfrwt beam="2">  1       -1 0.95004895E-01 0.21169981E+04</pdfrwt>
<totfact> 0.95039409E+00</totfact>
</mgrwt>
</event>
<event>
12    7  0.1675873E-007  0.1471425E+04  0.7818608E-02  0.8903681E-01
          2   -1    0    0  501    0  0.00000000000E+00  0.00000000000E+00  0.21590120384E+04  0.21590120384E+04  0.00000000000E+00 0. -1.
         -1   -1    0    0    0  501 -0.00000000000E+00 -0.00000000000E+00 -0.25070384307E+03  0.25070384307E+03  0.00000000000E+00 0.  1.
         24    2    1    2    0    0 -0.35573102854E+03  0.21830801761E+03  0.32710125122E+03  0.53617942225E+03  0.79310712248E+02 0.  0.
        254    2    1    2    0    0  0.35573102854E+03 -0.21830801761E+03  0.15812069441E+04  0.18735364592E+04  0.91417750394E+03 0.  0.
         23    2    4    4    0    0 -0.68939944372E+02 -0.42378009640E+03  0.38294322154E+03  0.58245426069E+03  0.90912973911E+02 0.  0.
         23    2    4    4    0    0  0.42467097291E+03  0.20547207880E+03  0.11982637225E+04  0.12910821985E+04  0.92157930565E+02 0.  0.
          2    1    3    3  502    0 -0.98295102778E+02  0.47125249663E+02  0.12948857036E+03  0.16926312723E+03  0.00000000000E+00 0. -1.
         -1    1    3    3    0  502 -0.25743592576E+03  0.17118276794E+03  0.19761268086E+03  0.36691629502E+03  0.00000000000E+00 0.  1.
         13    1    5    5    0    0 -0.65966905823E+02 -0.30903596670E+03  0.22817575010E+03  0.38976792365E+03  0.00000000000E+00 0. -1.
        -13    1    5    5    0    0 -0.29730385491E+01 -0.11474412971E+03  0.15476747145E+03  0.19268633703E+03  0.00000000000E+00 0.  1.
          2    1    6    6  503    0  0.36212239931E+03  0.20166440699E+03  0.98121467012E+03  0.10651682468E+04  0.00000000000E+00 0. -1.
         -2    1    6    6    0  503  0.62548573603E+02  0.38076718104E+01  0.21704905239E+03  0.22591395169E+03  0.00000000000E+00 0.  1.
<mgrwt>
<rscale>  0 0.14714246E+04</rscale>
<asrwt>0</asrwt>
<pdfrwt beam="1">  1        2 0.33215569E+00 0.14714246E+04</pdfrwt>
<pdfrwt beam="2">  1       -1 0.38569823E-01 0.14714246E+04</pdfrwt>
<totfact> 0.39133449E+01</totfact>
</mgrwt>
</event>
<event>
12    7  0.1675873E-007  0.1327331E+04  0.7818608E-02  0.9008168E-01
         -1   -1    0    0    0  501 -0.00000000000E+00  0.00000000000E+00  0.19370612967E+03  0.19370612967E+03  0.00000000000E+00 0.  1.
          2   -1    0    0  501    0  0.00000000000E+00 -0.00000000000E+00 -0.22738149362E+04  0.22738149362E+04  0.00000000000E+00 0. -1.
         24    2    1    2    0    0  0.96553203224E+02  0.22241169512E+03 -0.68961651265E+02  0.26525579820E+03  0.82555714232E+02 0.  0.
        254    2    1    2    0    0 -0.96553203224E+02 -0.22241169512E+03 -0.20111471552E+04  0.22022652676E+04  0.86398492225E+03 0.  0.
         23    2    4    4    0    0  0.60018855300E+02  0.47917906132E+02  0.39285149933E+02  0.12639137511E+03  0.92374606784E+02 0.  0.
         23    2    4    4    0    0 -0.15657205852E+03 -0.27032960125E+03 -0.20504323052E+04  0.20758738925E+04  0.85946941667E+02 0.  0.
          4    1    3    3  502    0  0.70592142995E+01  0.13580701612E+02 -0.31455234749E+02  0.34981420153E+02  0.00000000000E+00 0. -1.
         -3    1    3    3    0  502  0.89493988925E+02  0.20883099351E+03 -0.37506416515E+02  0.23027437804E+03  0.00000000000E+00 0.  1.
         13    1    5    5    0    0  0.80631606829E+02  0.16165982863E+02  0.28390605203E+02  0.86998974049E+02  0.00000000000E+00 0. -1.
        -13    1    5    5    0    0 -0.20612751529E+02  0.31751923269E+02  0.10894544730E+02  0.39392401066E+02  0.00000000000E+00 0.  1.
          4    1    6    6  503    0 -0.12043547536E+03 -0.19126722017E+03 -0.16930657192E+04  0.17080864681E+04  0.00000000000E+00 0. -1.
         -4    1    6    6    0  503 -0.36136583167E+02 -0.79062381087E+02 -0.35736658598E+03  0.36778742437E+03  0.00000000000E+00 0.  1.
<mgrwt>
<rscale>  0 0.13273310E+04</rscale>
<asrwt>0</asrwt>
<pdfrwt beam="1">  1        2 0.34981768E+00 0.13273310E+04</pdfrwt>
<pdfrwt beam="2">  1       -1 0.29800943E-01 0.13273310E+04</pdfrwt>
<totfact> 0.54102971E+01</totfact>
</mgrwt>
</event>
<event>
12    7  0.1675873E-007  0.1428279E+04  0.7818608E-02  0.8933599E-01
          2   -1    0    0  501    0  0.00000000000E+00  0.00000000000E+00  0.34224756072E+04  0.34224756072E+04  0.00000000000E+00 0. -1.
         -1   -1    0    0    0  501 -0.00000000000E+00 -0.00000000000E+00 -0.14901355387E+03  0.14901355387E+03  0.00000000000E+00 0.  1.
         24    2    1    2    0    0 -0.31084003706E+03  0.28633209085E+03  0.10646389394E+04  0.11482902464E+04  0.80664885150E+02 0.  0.
        254    2    1    2    0    0  0.31084003706E+03 -0.28633209085E+03  0.22088231139E+04  0.24231989146E+04  0.90243328658E+03 0.  0.
         23    2    4    4    0    0  0.23658038422E+03 -0.39766831000E+03  0.43418981919E+03  0.64121691774E+03  0.92347027693E+02 0.  0.
         23    2    4    4    0    0  0.74259652838E+02  0.11133621916E+03  0.17746332947E+04  0.17819819969E+04  0.90698715652E+02 0.  0.
          4    1    3    3  502    0 -0.61154316741E+01  0.20142303245E+02  0.10067694546E+03  0.10285406278E+03  0.00000000000E+00 0. -1.
         -3    1    3    3    0  502 -0.30472460539E+03  0.26618978760E+03  0.96396199397E+03  0.10454361836E+04  0.00000000000E+00 0.  1.
         13    1    5    5    0    0  0.13246679876E+03 -0.25143623779E+03  0.20661190224E+03  0.35136322033E+03  0.00000000000E+00 0. -1.
        -13    1    5    5    0    0  0.10411358546E+03 -0.14623207221E+03  0.22757791695E+03  0.28985369741E+03  0.00000000000E+00 0.  1.
          2    1    6    6  503    0  0.57319209485E+02  0.92775120121E+01  0.67495639246E+03  0.67744940456E+03  0.00000000000E+00 0. -1.
         -2    1    6    6    0  503  0.16940443353E+02  0.10205870714E+03  0.10996769022E+04  0.11045325924E+04  0.00000000000E+00 0.  1.
<mgrwt>
<rscale>  0 0.14282790E+04</rscale>
<asrwt>0</asrwt>
<pdfrwt beam="1">  1        2 0.52653465E+00 0.14282790E+04</pdfrwt>
<pdfrwt beam="2">  1       -1 0.22925165E-01 0.14282790E+04</pdfrwt>
<totfact> 0.16782078E+01</totfact>
</mgrwt>
</event>
<event>
12    7  0.1675873E-007  0.1871320E+04  0.7818608E-02  0.8669265E-01
          2   -1    0    0  501    0  0.00000000000E+00  0.00000000000E+00  0.19382543107E+04  0.19382543107E+04  0.00000000000E+00 0. -1.
         -1   -1    0    0    0  501 -0.00000000000E+00 -0.00000000000E+00 -0.45167431880E+03  0.45167431880E+03  0.00000000000E+00 0.  1.
         24    2    1    2    0    0 -0.32435545564E+03  0.63942167985E+03  0.49201608297E+03  0.87350394185E+03  0.82841802680E+02 0.  0.
        254    2    1    2    0    0  0.32435545564E+03 -0.63942167985E+03  0.99456390888E+03  0.15164246876E+04  0.89236759134E+03 0.  0.
         23    2    4    4    0    0 -0.20975732845E+03 -0.11864802534E+03  0.63001843598E+03  0.68056283650E+03  0.90371754394E+02 0.  0.
         23    2    4    4    0    0  0.53411278409E+03 -0.52077365451E+03  0.36454547290E+03  0.83586185111E+03  0.96384474711E+02 0.  0.
          4    1    3    3  502    0 -0.17819776282E+03  0.37847896775E+03  0.33355380049E+03  0.53503169020E+03  0.00000000000E+00 0. -1.
         -3    1    3    3    0  502 -0.14615769282E+03  0.26094271210E+03  0.15846228248E+03  0.33847225165E+03  0.00000000000E+00 0.  1.
         13    1    5    5    0    0 -0.19325712274E+03 -0.79317110045E+02  0.45893418793E+03  0.50424211277E+03  0.00000000000E+00 0.  1.
        -13    1    5    5    0    0 -0.16500205707E+02 -0.39330915294E+02  0.17108424805E+03  0.17632072373E+03  0.00000000000E+00 0. -1.
          4    1    6    6  503    0  0.30406889251E+03 -0.24233121955E+03  0.22070510886E+03  0.44709401298E+03  0.00000000000E+00 0.  1.
         -4    1    6    6    0  503  0.23004389158E+03 -0.27844243496E+03  0.14384036404E+03  0.38876783813E+03  0.00000000000E+00 0. -1.
<mgrwt>
<rscale>  0 0.18713201E+04</rscale>
<asrwt>0</asrwt>
<pdfrwt beam="1">  1        2 0.29819297E+00 0.18713201E+04</pdfrwt>
<pdfrwt beam="2">  1       -1 0.69488358E-01 0.18713201E+04</pdfrwt>
<totfact> 0.16189801E+01</totfact>
</mgrwt>
</event>
<event>
12    7  0.1675873E-007  0.1237108E+04  0.7818608E-02  0.9080982E-01
          2   -1    0    0  501    0  0.00000000000E+00  0.00000000000E+00  0.17620422713E+04  0.17620422713E+04  0.00000000000E+00 0. -1.
         -1   -1    0    0    0  501 -0.00000000000E+00 -0.00000000000E+00 -0.21713947182E+03  0.21713947182E+03  0.00000000000E+00 0.  1.
         24    2    1    2    0    0 -0.25517923466E+01 -0.15141501077E+03 -0.12032803188E+02  0.17202068322E+03  0.80705080209E+02 0.  0.
        254    2    1    2    0    0  0.25517923466E+01  0.15141501077E+03  0.15569356027E+04  0.18071610599E+04  0.90490309340E+03 0.  0.
         23    2    4    4    0    0  0.14726474924E+03  0.48275055896E+03  0.66630842033E+03  0.84100232387E+03  0.92644423480E+02 0.  0.
         23    2    4    4    0    0 -0.14471295689E+03 -0.33133554819E+03  0.89062718238E+03  0.96615873607E+03  0.97574791333E+02 0.  0.
          2    1    3    3  502    0  0.65488539519E+01 -0.45213509674E+02 -0.41191824665E+02  0.61513538057E+02  0.00000000000E+00 0. -1.
         -1    1    3    3    0  502 -0.91006462985E+01 -0.10620150109E+03  0.29159021476E+02  0.11050714516E+03  0.00000000000E+00 0.  1.
         13    1    5    5    0    0  0.13001886563E+03  0.47783460777E+03  0.64237055806E+03  0.81109232006E+03  0.00000000000E+00 0.  1.
        -13    1    5    5    0    0  0.17245883609E+02  0.49159511928E+01  0.23937862270E+02  0.29910003806E+02  0.00000000000E+00 0. -1.
          4    1    6    6  503    0 -0.24345993364E+02 -0.12384670482E+03  0.21623673794E+03  0.25037783553E+03  0.00000000000E+00 0. -1.
         -4    1    6    6    0  503 -0.12036696353E+03 -0.20748884337E+03  0.67439044444E+03  0.71578090054E+03  0.00000000000E+00 0.  1.
<mgrwt>
<rscale>  0 0.12371078E+04</rscale>
<asrwt>0</asrwt>
<pdfrwt beam="1">  1        2 0.27108342E+00 0.12371078E+04</pdfrwt>
<pdfrwt beam="2">  1       -1 0.33406074E-01 0.12371078E+04</pdfrwt>
<totfact> 0.85682451E+01</totfact>
</mgrwt>
</event>
<event>
12    7  0.1675873E-007  0.1394527E+04  0.7818608E-02  0.8957790E-01
         -1   -1    0    0    0  501 -0.00000000000E+00  0.00000000000E+00  0.26255656882E+03  0.26255656882E+03  0.00000000000E+00 0.  1.
          2   -1    0    0  501    0  0.00000000000E+00 -0.00000000000E+00 -0.18517017338E+04  0.18517017338E+04  0.00000000000E+00 0. -1.
         24    2    1    2    0    0  0.17841411646E+03  0.29793518446E+02  0.77695017881E+02  0.21305524268E+03  0.81466373020E+02 0.  0.
        254    2    1    2    0    0 -0.17841411646E+03 -0.29793518446E+02 -0.16668401829E+04  0.19012030599E+04  0.89638029274E+03 0.  0.
         23    2    4    4    0    0 -0.41679795571E+03  0.11876351641E+03 -0.38799766324E+03  0.58888141959E+03  0.91726936870E+02 0.  0.
         23    2    4    4    0    0  0.23838383925E+03 -0.14855703486E+03 -0.12788425196E+04  0.13123216403E+04  0.88621951639E+02 0.  0.
          4    1    3    3  502    0  0.92640528201E+01 -0.10916172026E+02  0.29075652390E+02  0.32409551806E+02  0.00000000000E+00 0. -1.
         -3    1    3    3    0  502  0.16915006364E+03  0.40709690472E+02  0.48619365491E+02  0.18064569087E+03  0.00000000000E+00 0.  1.
         13    1    5    5    0    0 -0.34339603650E+03  0.10037008484E+03 -0.36176604485E+03  0.50879235747E+03  0.00000000000E+00 0.  1.
        -13    1    5    5    0    0 -0.73401919205E+02  0.18393431573E+02 -0.26231618396E+02  0.80089062123E+02  0.00000000000E+00 0. -1.
          1    1    6    6  503    0  0.15592071861E+01 -0.93994814192E+01 -0.15891946777E+03  0.15920483226E+03  0.00000000000E+00 0. -1.
         -1    1    6    6    0  503  0.23682463206E+03 -0.13915755344E+03 -0.11199230518E+04  0.11531168081E+04  0.00000000000E+00 0.  1.
<mgrwt>
<rscale>  0 0.13945271E+04</rscale>
<asrwt>0</asrwt>
<pdfrwt beam="1">  1        2 0.28487720E+00 0.13945271E+04</pdfrwt>
<pdfrwt beam="2">  1       -1 0.40393317E-01 0.13945271E+04</pdfrwt>
<totfact> 0.53608381E+01</totfact>
</mgrwt>
</event>
<event>
12    7  0.1675873E-007  0.1720957E+04  0.7818608E-02  0.8749501E-01
          2   -1    0    0  501    0  0.00000000000E+00  0.00000000000E+00  0.19006360464E+04  0.19006360464E+04  0.00000000000E+00 0. -1.
         -1   -1    0    0    0  501 -0.00000000000E+00 -0.00000000000E+00 -0.38956625321E+03  0.38956625321E+03  0.00000000000E+00 0.  1.
         24    2    1    2    0    0  0.88118852991E+02  0.35065490887E+02 -0.26853291875E+03  0.29288075666E+03  0.68371692002E+02 0.  0.
        254    2    1    2    0    0 -0.88118852991E+02 -0.35065490887E+02  0.17796027120E+04  0.19973215430E+04  0.90183868439E+03 0.  0.
         23    2    4    4    0    0  0.42500920027E+02  0.18739784583E+03  0.17031164502E+04  0.17164386979E+04  0.92907910114E+02 0.  0.
         23    2    4    4    0    0 -0.13061977302E+03 -0.22246333671E+03  0.76486261738E+02  0.28088284508E+03  0.80582647876E+02 0.  0.
          4    1    3    3  502    0  0.36699117368E+02  0.32183836320E+02 -0.56416673961E+02  0.74602048475E+02  0.00000000000E+00 0. -1.
         -3    1    3    3    0  502  0.51419735623E+02  0.28816545672E+01 -0.21211624479E+03  0.21827870819E+03  0.00000000000E+00 0.  1.
         13    1    5    5    0    0  0.38625893560E+01  0.13299963588E+03  0.13863919426E+04  0.13927621624E+04  0.00000000000E+00 0. -1.
        -13    1    5    5    0    0  0.38638330672E+02  0.54398209944E+02  0.31672450768E+03  0.32367653546E+03  0.00000000000E+00 0.  1.
          4    1    6    6  503    0 -0.12484364325E+03 -0.19648269566E+03  0.40758852223E+02  0.23633169273E+03  0.00000000000E+00 0. -1.
         -4    1    6    6    0  503 -0.57761297671E+01 -0.25980641049E+02  0.35727409516E+02  0.44551152343E+02  0.00000000000E+00 0.  1.
<mgrwt>
<rscale>  0 0.17209575E+04</rscale>
<asrwt>0</asrwt>
<pdfrwt beam="1">  1        2 0.29240554E+00 0.17209575E+04</pdfrwt>
<pdfrwt beam="2">  1       -1 0.59933271E-01 0.17209575E+04</pdfrwt>
<totfact> 0.23173699E+01</totfact>
</mgrwt>
</event>
<event>
12    7  0.1675873E-007  0.1345018E+04  0.7818608E-02  0.8994608E-01
         -1   -1    0    0    0  501 -0.00000000000E+00  0.00000000000E+00  0.20495255884E+03  0.20495255884E+03  0.00000000000E+00 0.  1.
          2   -1    0    0  501    0  0.00000000000E+00 -0.00000000000E+00 -0.22066964294E+04  0.22066964294E+04  0.00000000000E+00 0. -1.
         24    2    1    2    0    0 -0.20780772761E+03 -0.19222103778E+03 -0.83775673117E+03  0.88748413011E+03  0.75224740309E+02 0.  0.
        254    2    1    2    0    0  0.20780772761E+03  0.19222103778E+03 -0.11639871394E+04  0.15241648581E+04  0.94237968732E+03 0.  0.
         23    2    4    4    0    0 -0.17227321463E+03  0.31004864738E+02  0.78471906183E+02  0.21183013253E+03  0.89859906913E+02 0.  0.
         23    2    4    4    0    0  0.38008094225E+03  0.16121617304E+03 -0.12424590455E+04  0.13123347256E+04  0.89809659830E+02 0.  0.
          2    1    3    3  502    0 -0.32649937540E+02 -0.21603636050E+02 -0.21323941147E+03  0.21680355651E+03  0.00000000000E+00 0. -1.
         -1    1    3    3    0  502 -0.17515779007E+03 -0.17061740173E+03 -0.62451731970E+03  0.67068057360E+03  0.00000000000E+00 0.  1.
         13    1    5    5    0    0 -0.15738804319E+03  0.55805330555E+02  0.59659386782E+02  0.17732589627E+03  0.00000000000E+00 0.  1.
        -13    1    5    5    0    0 -0.14885171446E+02 -0.24800465818E+02  0.18812519401E+02  0.34504236261E+02  0.00000000000E+00 0. -1.
          2    1    6    6  503    0  0.78070931095E+02 -0.13508691059E+01 -0.19080201050E+03  0.20616086520E+03  0.00000000000E+00 0. -1.
         -2    1    6    6    0  503  0.30201001115E+03  0.16256704215E+03 -0.10516570350E+04  0.11061738604E+04  0.00000000000E+00 0.  1.
<mgrwt>
<rscale>  0 0.13450176E+04</rscale>
<asrwt>0</asrwt>
<pdfrwt beam="1">  1        2 0.33949176E+00 0.13450176E+04</pdfrwt>
<pdfrwt beam="2">  1       -1 0.31531163E-01 0.13450176E+04</pdfrwt>
<totfact> 0.53349957E+01</totfact>
</mgrwt>
</event>
<event>
12    7  0.1675873E-007  0.1615093E+04  0.7818608E-02  0.8811329E-01
         -1   -1    0    0    0  501 -0.00000000000E+00  0.00000000000E+00  0.24378640416E+03  0.24378640416E+03  0.00000000000E+00 0.  1.
          2   -1    0    0  501    0  0.00000000000E+00 -0.00000000000E+00 -0.26750100709E+04  0.26750100709E+04  0.00000000000E+00 0. -1.
         24    2    1    2    0    0  0.92143771052E+02 -0.25690229002E+03 -0.17060889336E+04  0.17295329442E+04  0.77817057317E+02 0.  0.
        254    2    1    2    0    0 -0.92143771052E+02  0.25690229002E+03 -0.72513473313E+03  0.11892635309E+04  0.90224060181E+03 0.  0.
         23    2    4    4    0    0  0.32556848071E+03 -0.13200035252E+03 -0.31581519724E+03  0.48109210771E+03  0.91057391778E+02 0.  0.
         23    2    4    4    0    0 -0.41771225176E+03  0.38890264254E+03 -0.40931953589E+03  0.70817142318E+03  0.90749608812E+02 0.  0.
          2    1    3    3  502    0  0.59025703285E+02 -0.14545157996E+03 -0.12021745595E+04  0.12123794238E+04  0.00000000000E+00 0. -1.
         -1    1    3    3    0  502  0.33118067767E+02 -0.11145071006E+03 -0.50391437409E+03  0.51715352034E+03  0.00000000000E+00 0.  1.
         13    1    5    5    0    0  0.14134526597E+03 -0.43751203131E+02 -0.19137484509E+03  0.24190283860E+03  0.00000000000E+00 0. -1.
        -13    1    5    5    0    0  0.18422321474E+03 -0.88249149387E+02 -0.12444035215E+03  0.23918926911E+03  0.00000000000E+00 0.  1.
          3    1    6    6  503    0 -0.14170874494E+03  0.81761937608E+02 -0.94671043462E+02  0.18902113454E+03  0.00000000000E+00 0. -1.
         -3    1    6    6    0  503 -0.27600350683E+03  0.30714070493E+03 -0.31464849243E+03  0.51915028863E+03  0.00000000000E+00 0.  1.
<mgrwt>
<rscale>  0 0.16150927E+04</rscale>
<asrwt>0</asrwt>
<pdfrwt beam="1">  1        2 0.41154000E+00 0.16150927E+04</pdfrwt>
<pdfrwt beam="2">  1       -1 0.37505601E-01 0.16150927E+04</pdfrwt>
<totfact> 0.20595076E+01</totfact>
</mgrwt>
</event>
<event>
12    7  0.1675873E-007  0.1531009E+04  0.7818608E-02  0.8864090E-01
          2   -1    0    0  501    0  0.00000000000E+00  0.00000000000E+00  0.67749067810E+03  0.67749067810E+03  0.00000000000E+00 0. -1.
         -1   -1    0    0    0  501 -0.00000000000E+00 -0.00000000000E+00 -0.86495176989E+03  0.86495176989E+03  0.00000000000E+00 0.  1.
         24    2    1    2    0    0 -0.42352797249E+03 -0.23400499178E+03 -0.68429107808E+02  0.49530600112E+03  0.80692083239E+02 0.  0.
        254    2    1    2    0    0  0.42352797249E+03  0.23400499178E+03 -0.11903198399E+03  0.10471364469E+04  0.92097331421E+03 0.  0.
         23    2    4    4    0    0  0.42280100526E+03 -0.11427645940E+03  0.26519966193E+03  0.52043709457E+03  0.93295817113E+02 0.  0.
         23    2    4    4    0    0  0.72696722648E+00  0.34828145117E+03 -0.38423164591E+03  0.52669935230E+03  0.92074710322E+02 0.  0.
          4    1    3    3  502    0 -0.27256436082E+03 -0.18447442282E+03 -0.69685351925E+02  0.33641966609E+03  0.00000000000E+00 0. -1.
         -3    1    3    3    0  502 -0.15096361167E+03 -0.49530568960E+02  0.12562441163E+01  0.15888633503E+03  0.00000000000E+00 0.  1.
         13    1    5    5    0    0  0.11847001805E+03 -0.60007467396E+02  0.42478832712E+02  0.13942916678E+03  0.00000000000E+00 0. -1.
        -13    1    5    5    0    0  0.30433098721E+03 -0.54268992002E+02  0.22272082922E+03  0.38100792779E+03  0.00000000000E+00 0.  1.
          4    1    6    6  503    0  0.26828732868E+02  0.36871703376E+02 -0.69906833729E+02  0.83464176861E+02  0.00000000000E+00 0. -1.
         -4    1    6    6    0  503 -0.26101765641E+02  0.31140974780E+03 -0.31432481219E+03  0.44323517544E+03  0.00000000000E+00 0.  1.
<mgrwt>
<rscale>  0 0.15310085E+04</rscale>
<asrwt>0</asrwt>
<pdfrwt beam="1">  1        2 0.10422934E+00 0.15310085E+04</pdfrwt>
<pdfrwt beam="2">  1       -1 0.13306950E+00 0.15310085E+04</pdfrwt>
<totfact> 0.22474526E+01</totfact>
</mgrwt>
</event>
<event>
12    7  0.1675873E-007  0.1357000E+04  0.7818608E-02  0.8985546E-01
          2   -1    0    0  501    0  0.00000000000E+00  0.00000000000E+00  0.19935068128E+04  0.19935068128E+04  0.00000000000E+00 0. -1.
         -1   -1    0    0    0  501 -0.00000000000E+00 -0.00000000000E+00 -0.23093073550E+03  0.23093073550E+03  0.00000000000E+00 0.  1.
         24    2    1    2    0    0 -0.35583866046E+01 -0.28508842255E+03  0.82099978690E+03  0.87262797109E+03  0.78427387193E+02 0.  0.
        254    2    1    2    0    0  0.35583866046E+01  0.28508842255E+03  0.94157629043E+03  0.13518095772E+04  0.92711118623E+03 0.  0.
         23    2    4    4    0    0 -0.10594662505E+03  0.57856053225E+02 -0.15623302234E+03  0.22170709993E+03  0.10086263250E+03 0.  0.
         23    2    4    4    0    0  0.10950501165E+03  0.22723236933E+03  0.10978093128E+04  0.11301024773E+04  0.91216362449E+02 0.  0.
          2    1    3    3  502    0  0.60133135983E+01 -0.27373561272E+03  0.80713855164E+03  0.85231448841E+03  0.00000000000E+00 0. -1.
         -1    1    3    3    0  502 -0.95717002030E+01 -0.11352809830E+02  0.13861235255E+02  0.20313482680E+02  0.00000000000E+00 0.  1.
         13    1    5    5    0    0 -0.46282921743E+02  0.61276400979E+02 -0.30748734926E+02  0.82718745527E+02  0.00000000000E+00 0.  1.
        -13    1    5    5    0    0 -0.59663703307E+02 -0.34203477537E+01 -0.12548428741E+03  0.13898835440E+03  0.00000000000E+00 0. -1.
          3    1    6    6  503    0  0.31434807399E+02  0.15972621565E+03  0.74070270634E+03  0.75838058405E+03  0.00000000000E+00 0. -1.
         -3    1    6    6    0  503  0.78070204255E+02  0.67506153671E+02  0.35710660644E+03  0.37172189327E+03  0.00000000000E+00 0.  1.
<mgrwt>
<rscale>  0 0.13569996E+04</rscale>
<asrwt>0</asrwt>
<pdfrwt beam="1">  1        2 0.30669334E+00 0.13569996E+04</pdfrwt>
<pdfrwt beam="2">  1       -1 0.35527807E-01 0.13569996E+04</pdfrwt>
<totfact> 0.56636124E+01</totfact>
</mgrwt>
</event>
<event>
12    7  0.1675873E-007  0.2050323E+04  0.7818608E-02  0.8583448E-01
         -1   -1    0    0    0  501 -0.00000000000E+00  0.00000000000E+00  0.13845197859E+04  0.13845197859E+04  0.00000000000E+00 0.  1.
          2   -1    0    0  501    0  0.00000000000E+00 -0.00000000000E+00 -0.75907606838E+03  0.75907606838E+03  0.00000000000E+00 0. -1.
         24    2    1    2    0    0  0.68689850352E+03  0.44440777172E+03  0.15046092433E+03  0.83566689087E+03  0.79830076035E+02 0.  0.
        254    2    1    2    0    0 -0.68689850352E+03 -0.44440777172E+03  0.47498279322E+03  0.13079289634E+04  0.90318419928E+03 0.  0.
         23    2    4    4    0    0 -0.64139972726E+03 -0.10999149149E+03  0.64306847873E+03  0.91940315388E+03  0.90957972205E+02 0.  0.
         23    2    4    4    0    0 -0.45498776262E+02 -0.33441628023E+03 -0.16808568551E+03  0.38852580955E+03  0.93782300513E+02 0.  0.
          4    1    3    3  502    0  0.65171279189E+03  0.41835466315E+03  0.16016216376E+03  0.79082368831E+03  0.00000000000E+00 0. -1.
         -3    1    3    3    0  502  0.35185711632E+02  0.26053108575E+02 -0.97012394322E+01  0.44843202561E+02  0.00000000000E+00 0.  1.
         13    1    5    5    0    0 -0.12250514112E+02 -0.10888794005E+02  0.34259330083E+01  0.16744490075E+02  0.00000000000E+00 0.  1.
        -13    1    5    5    0    0 -0.62914921315E+03 -0.99102697485E+02  0.63964254572E+03  0.90265866380E+03  0.00000000000E+00 0. -1.
          3    1    6    6  503    0 -0.37412369742E+02 -0.31498080913E+03 -0.17962081127E+03  0.36452192166E+03  0.00000000000E+00 0. -1.
         -3    1    6    6    0  503 -0.80864065197E+01 -0.19435471107E+02  0.11535125766E+02  0.24003887893E+02  0.00000000000E+00 0.  1.
<mgrwt>
<rscale>  0 0.20503227E+04</rscale>
<asrwt>0</asrwt>
<pdfrwt beam="1">  1        2 0.11678093E+00 0.20503227E+04</pdfrwt>
<pdfrwt beam="2">  1       -1 0.21300304E+00 0.20503227E+04</pdfrwt>
<totfact> 0.47817246E+00</totfact>
</mgrwt>
</event>
<event>
12    7  0.1675873E-007  0.1499373E+04  0.7818608E-02  0.8884870E-01
         -1   -1    0    0    0  501 -0.00000000000E+00  0.00000000000E+00  0.11203327323E+04  0.11203327323E+04  0.00000000000E+00 0.  1.
          2   -1    0    0  501    0  0.00000000000E+00 -0.00000000000E+00 -0.50166332131E+03  0.50166332131E+03  0.00000000000E+00 0. -1.
         24    2    1    2    0    0  0.40704917630E+03 -0.29242168277E+02  0.48282822175E+03  0.63563354203E+03  0.66051280858E+02 0.  0.
        254    2    1    2    0    0 -0.40704917630E+03  0.29242168277E+02  0.13584118920E+03  0.98636251154E+03  0.88764522145E+03 0.  0.
         23    2    4    4    0    0 -0.58570757893E+03  0.16037073312E+03 -0.13100695203E+03  0.62811499932E+03  0.92701083207E+02 0.  0.
         23    2    4    4    0    0  0.17865840263E+03 -0.13112856484E+03  0.26684814123E+03  0.35824751223E+03  0.89553471124E+02 0.  0.
          2    1    3    3  502    0  0.37471511622E+02  0.15451897124E+02  0.58242670307E+02  0.70958325463E+02  0.00000000000E+00 0. -1.
         -1    1    3    3    0  502  0.36957766468E+03 -0.44694065401E+02  0.42458555144E+03  0.56467521656E+03  0.00000000000E+00 0.  1.
         13    1    5    5    0    0 -0.20872161550E+03  0.10251605863E+03 -0.39170618908E+02  0.23581474178E+03  0.00000000000E+00 0.  1.
        -13    1    5    5    0    0 -0.37698596343E+03  0.57854674488E+02 -0.91836333120E+02  0.39230025754E+03  0.00000000000E+00 0. -1.
          4    1    6    6  503    0  0.82919774195E+02 -0.25617666466E+02  0.15289529325E+03  0.17580934129E+03  0.00000000000E+00 0. -1.
         -4    1    6    6    0  503  0.95738628438E+02 -0.10551089837E+03  0.11395284798E+03  0.18243817093E+03  0.00000000000E+00 0.  1.
<mgrwt>
<rscale>  0 0.14993730E+04</rscale>
<asrwt>0</asrwt>
<pdfrwt beam="1">  1        2 0.77178972E-01 0.14993730E+04</pdfrwt>
<pdfrwt beam="2">  1       -1 0.17235888E+00 0.14993730E+04</pdfrwt>
<totfact> 0.16020984E+01</totfact>
</mgrwt>
</event>
<event>
12    7  0.1675873E-007  0.1895344E+04  0.7818608E-02  0.8657178E-01
         -1   -1    0    0    0  501 -0.00000000000E+00  0.00000000000E+00  0.17820933958E+04  0.17820933958E+04  0.00000000000E+00 0.  1.
          2   -1    0    0  501    0  0.00000000000E+00 -0.00000000000E+00 -0.50394775148E+03  0.50394775148E+03  0.00000000000E+00 0. -1.
         24    2    1    2    0    0  0.50129237890E+03  0.15407015746E+03 -0.11784574989E+03  0.54322093511E+03  0.78547444335E+02 0.  0.
        254    2    1    2    0    0 -0.50129237890E+03 -0.15407015746E+03  0.13959913942E+04  0.17428202122E+04  0.90199703806E+03 0.  0.
         23    2    4    4    0    0  0.11130965108E+03 -0.10211635475E+03 -0.39002981130E+02  0.17901853160E+03  0.87799850725E+02 0.  0.
         23    2    4    4    0    0 -0.61260202998E+03 -0.51953802706E+02  0.14349943753E+04  0.15638016806E+04  0.91029633369E+02 0.  0.
          4    1    3    3  502    0  0.26221329011E+03  0.45501634910E+02 -0.80245965197E+02  0.27796694627E+03  0.00000000000E+00 0. -1.
         -3    1    3    3    0  502  0.23907908879E+03  0.10856852255E+03 -0.37599784693E+02  0.26525398884E+03  0.00000000000E+00 0.  1.
         13    1    5    5    0    0 -0.89692900504E+01  0.63690441390E+01 -0.91636581249E+01  0.14317315303E+02  0.00000000000E+00 0. -1.
        -13    1    5    5    0    0  0.12027894113E+03 -0.10848539889E+03 -0.29839323005E+02  0.16470121629E+03  0.00000000000E+00 0.  1.
          3    1    6    6  503    0 -0.27207246007E+03 -0.67740033172E+02  0.66882146234E+03  0.72521326802E+03  0.00000000000E+00 0. -1.
         -3    1    6    6    0  503 -0.34052956991E+03  0.15786230465E+02  0.76617291300E+03  0.83858841255E+03  0.00000000000E+00 0.  1.
<mgrwt>
<rscale>  0 0.18953437E+04</rscale>
<asrwt>0</asrwt>
<pdfrwt beam="1">  1        2 0.77530424E-01 0.18953437E+04</pdfrwt>
<pdfrwt beam="2">  1       -1 0.27416821E+00 0.18953437E+04</pdfrwt>
<totfact> 0.31725349E+00</totfact>
</mgrwt>
</event>
<event>
12    7  0.1675873E-007  0.1921441E+04  0.7818608E-02  0.8644257E-01
         -1   -1    0    0    0  501 -0.00000000000E+00  0.00000000000E+00  0.11945439929E+04  0.11945439929E+04  0.00000000000E+00 0.  1.
          2   -1    0    0  501    0  0.00000000000E+00 -0.00000000000E+00 -0.77266593122E+03  0.77266593122E+03  0.00000000000E+00 0. -1.
         24    2    1    2    0    0 -0.30359653183E+03 -0.12789893235E+03  0.87422854701E+03  0.93822799951E+03  0.86413168140E+02 0.  0.
        254    2    1    2    0    0  0.30359653183E+03  0.12789893235E+03 -0.45235048530E+03  0.10289819246E+04  0.86351250636E+03 0.  0.
         23    2    4    4    0    0  0.48595729476E+02  0.26723376455E+03  0.17251769701E+03  0.33417997733E+03  0.90213478087E+02 0.  0.
         23    2    4    4    0    0  0.25500080236E+03 -0.13933483219E+03 -0.62486818230E+03  0.69480194731E+03  0.88599639163E+02 0.  0.
          4    1    3    3  502    0 -0.65185028403E+02 -0.59561011994E+01  0.26094308580E+03  0.26902761400E+03  0.00000000000E+00 0. -1.
         -3    1    3    3    0  502 -0.23841150343E+03 -0.12194283116E+03  0.61328546121E+03  0.66920038552E+03  0.00000000000E+00 0.  1.
         13    1    5    5    0    0  0.23010309398E+02  0.22963681131E+03  0.10689714967E+03  0.25434138486E+03  0.00000000000E+00 0. -1.
        -13    1    5    5    0    0  0.25585420078E+02  0.37596953236E+02  0.65620547341E+02  0.79838592463E+02  0.00000000000E+00 0.  1.
          4    1    6    6  503    0  0.17481205273E+03 -0.13500273427E+03 -0.41545102302E+03  0.47051519059E+03  0.00000000000E+00 0. -1.
         -4    1    6    6    0  503  0.80188749629E+02 -0.43320979211E+01 -0.20941715928E+03  0.22428675672E+03  0.00000000000E+00 0.  1.
<mgrwt>
<rscale>  0 0.19214405E+04</rscale>
<asrwt>0</asrwt>
<pdfrwt beam="1">  1        2 0.11887168E+00 0.19214405E+04</pdfrwt>
<pdfrwt beam="2">  1       -1 0.18377600E+00 0.19214405E+04</pdfrwt>
<totfact> 0.75267727E+00</totfact>
</mgrwt>
</event>
<event>
12    7  0.1675873E-007  0.1542188E+04  0.7818608E-02  0.8856873E-01
         -1   -1    0    0    0  501 -0.00000000000E+00  0.00000000000E+00  0.66933493998E+03  0.66933493998E+03  0.00000000000E+00 0.  1.
          2   -1    0    0  501    0  0.00000000000E+00 -0.00000000000E+00 -0.88832389290E+03  0.88832389290E+03  0.00000000000E+00 0. -1.
         24    2    1    2    0    0 -0.41730213429E+03 -0.80047325229E+02 -0.34518405415E+03  0.55313743786E+03  0.79122363232E+02 0.  0.
        254    2    1    2    0    0  0.41730213429E+03  0.80047325229E+02  0.12619510123E+03  0.10045213950E+04  0.90143739879E+03 0.  0.
         23    2    4    4    0    0  0.47539888734E+03 -0.90627691500E+02  0.41975338151E+03  0.64807692952E+03  0.97945519271E+02 0.  0.
         23    2    4    4    0    0 -0.58096753050E+02  0.17067501673E+03 -0.29355828027E+03  0.35644446550E+03  0.91493163781E+02 0.  0.
          4    1    3    3  502    0 -0.36239766321E+03 -0.41554739630E+02 -0.28287540934E+03  0.46160303280E+03  0.00000000000E+00 0. -1.
         -3    1    3    3    0  502 -0.54904471081E+02 -0.38492585599E+02 -0.62308644810E+02  0.91534405056E+02  0.00000000000E+00 0.  1.
         13    1    5    5    0    0  0.29651356807E+03 -0.81869287168E+02  0.31645120469E+03  0.44132101829E+03  0.00000000000E+00 0. -1.
        -13    1    5    5    0    0  0.17888531927E+03 -0.87584043316E+01  0.10330217681E+03  0.20675591124E+03  0.00000000000E+00 0.  1.
          2    1    6    6  503    0 -0.58372093346E+02  0.17373520786E+03 -0.29870462789E+03  0.35045067906E+03  0.00000000000E+00 0. -1.
         -2    1    6    6    0  503  0.27534029517E+00 -0.30601911332E+01  0.51463476179E+01  0.59937864371E+01  0.00000000000E+00 0.  1.
<mgrwt>
<rscale>  0 0.15421883E+04</rscale>
<asrwt>0</asrwt>
<pdfrwt beam="1">  1        2 0.13666521E+00 0.15421883E+04</pdfrwt>
<pdfrwt beam="2">  1       -1 0.10297461E+00 0.15421883E+04</pdfrwt>
<totfact> 0.29251337E+01</totfact>
</mgrwt>
</event>
<event>
12    7  0.1675873E-007  0.1492737E+04  0.7818608E-02  0.8889297E-01
          2   -1    0    0  501    0  0.00000000000E+00  0.00000000000E+00  0.56924700532E+03  0.56924700532E+03  0.00000000000E+00 0. -1.
         -1   -1    0    0    0  501 -0.00000000000E+00 -0.00000000000E+00 -0.97860116980E+03  0.97860116980E+03  0.00000000000E+00 0.  1.
         24    2    1    2    0    0 -0.30438840703E+01  0.34207924350E+03 -0.48623743321E+03  0.60006991403E+03  0.81422271003E+02 0.  0.
        254    2    1    2    0    0  0.30438840703E+01 -0.34207924350E+03  0.76883268729E+02  0.94777826110E+03  0.88053683690E+03 0.  0.
         23    2    4    4    0    0 -0.16478161506E+03 -0.35373585783E+03 -0.31626778345E+03  0.51034469765E+03  0.90246117918E+02 0.  0.
         23    2    4    4    0    0  0.16782549913E+03  0.11656614331E+02  0.39315105218E+03  0.43743356344E+03  0.92082016598E+02 0.  0.
          4    1    3    3  502    0  0.16335301302E+01  0.88985140737E+00  0.30374246631E+01  0.35617698968E+01  0.00000000000E+00 0. -1.
         -3    1    3    3    0  502 -0.46774142006E+01  0.34118939209E+03 -0.48927485787E+03  0.59650814414E+03  0.00000000000E+00 0.  1.
         13    1    5    5    0    0 -0.11652394461E+03 -0.31282378968E+03 -0.23940628430E+03  0.41079425753E+03  0.00000000000E+00 0.  1.
        -13    1    5    5    0    0 -0.48257670450E+02 -0.40912068151E+02 -0.76861499148E+02  0.99550440124E+02  0.00000000000E+00 0. -1.
          2    1    6    6  503    0  0.39004215928E+02 -0.36963070849E+02  0.98726048922E+02  0.11240298129E+03  0.00000000000E+00 0. -1.
         -2    1    6    6    0  503  0.12882128320E+03  0.48619685180E+02  0.29442500326E+03  0.32503058216E+03  0.00000000000E+00 0.  1.
<mgrwt>
<rscale>  0 0.14927368E+04</rscale>
<asrwt>0</asrwt>
<pdfrwt beam="1">  1        2 0.87576462E-01 0.14927368E+04</pdfrwt>
<pdfrwt beam="2">  1       -1 0.15055403E+00 0.14927368E+04</pdfrwt>
<totfact> 0.20167999E+01</totfact>
</mgrwt>
</event>
<event>
12    7  0.1675873E-007  0.1647199E+04  0.7818608E-02  0.8792065E-01
         -1   -1    0    0    0  501 -0.00000000000E+00  0.00000000000E+00  0.37347445684E+03  0.37347445684E+03  0.00000000000E+00 0.  1.
          2   -1    0    0  501    0  0.00000000000E+00 -0.00000000000E+00 -0.18162317910E+04  0.18162317910E+04  0.00000000000E+00 0. -1.
         24    2    1    2    0    0  0.28266710900E+03 -0.49845592639E+03 -0.48257211056E+03  0.75337531900E+03  0.79621129911E+02 0.  0.
        254    2    1    2    0    0 -0.28266710900E+03  0.49845592639E+03 -0.96018522363E+03  0.14363309289E+04  0.90151642720E+03 0.  0.
         23    2    4    4    0    0  0.30367249308E+02  0.68517707570E+03 -0.61569498545E+03  0.92684865909E+03  0.97868926976E+02 0.  0.
         23    2    4    4    0    0 -0.31303435831E+03 -0.18672114931E+03 -0.34449023818E+03  0.50948226978E+03  0.89684792122E+02 0.  0.
          2    1    3    3  502    0  0.25665765982E+03 -0.44120399006E+03 -0.45825856530E+03  0.68595555823E+03  0.00000000000E+00 0. -1.
         -1    1    3    3    0  502  0.26009449182E+02 -0.57251936329E+02 -0.24313545260E+02  0.67419760777E+02  0.00000000000E+00 0.  1.
         13    1    5    5    0    0 -0.17118183666E+00  0.60715495274E+03 -0.56200051663E+03  0.82733412031E+03  0.00000000000E+00 0.  1.
        -13    1    5    5    0    0  0.30538431144E+02  0.78022122960E+02 -0.53694468823E+02  0.99514538788E+02  0.00000000000E+00 0. -1.
          3    1    6    6  503    0 -0.77920672861E+01 -0.26854283006E+01  0.55309064222E+01  0.99256618721E+01  0.00000000000E+00 0. -1.
         -3    1    6    6    0  503 -0.30524229102E+03 -0.18403572101E+03 -0.35002114461E+03  0.49955660791E+03  0.00000000000E+00 0.  1.
<mgrwt>
<rscale>  0 0.16471991E+04</rscale>
<asrwt>0</asrwt>
<pdfrwt beam="1">  1        2 0.27942028E+00 0.16471991E+04</pdfrwt>
<pdfrwt beam="2">  1       -1 0.57457608E-01 0.16471991E+04</pdfrwt>
<totfact> 0.28217814E+01</totfact>
</mgrwt>
</event>
<event>
12    7  0.1675873E-007  0.1674846E+04  0.7818608E-02  0.8775842E-01
          2   -1    0    0  501    0  0.00000000000E+00  0.00000000000E+00  0.11642505213E+04  0.11642505213E+04  0.00000000000E+00 0. -1.
         -1   -1    0    0    0  501 -0.00000000000E+00 -0.00000000000E+00 -0.60234224304E+03  0.60234224304E+03  0.00000000000E+00 0.  1.
         24    2    1    2    0    0  0.47390259830E+03 -0.35736691086E+03  0.56650123904E+03  0.82436015771E+03  0.79694630551E+02 0.  0.
        254    2    1    2    0    0 -0.47390259830E+03  0.35736691086E+03 -0.45929607682E+01  0.94223260664E+03  0.73176936809E+03 0.  0.
         23    2    4    4    0    0  0.68101599009E+02  0.26115575578E+03  0.19950574364E+03  0.34791021421E+03  0.91645069889E+02 0.  0.
         23    2    4    4    0    0 -0.54200419731E+03  0.96211155077E+02 -0.20409870441E+03  0.59432239244E+03  0.92399614436E+02 0.  0.
          2    1    3    3  502    0  0.33389657513E+03 -0.24040586930E+03  0.43976929835E+03  0.60222831273E+03  0.00000000000E+00 0. -1.
         -1    1    3    3    0  502  0.14000602317E+03 -0.11696104156E+03  0.12673194069E+03  0.22213184499E+03  0.00000000000E+00 0.  1.
         13    1    5    5    0    0  0.68834549876E+02  0.24565254960E+03  0.20893208412E+03  0.32975140054E+03  0.00000000000E+00 0.  1.
        -13    1    5    5    0    0 -0.73295086706E+00  0.15503206187E+02 -0.94263404783E+01  0.18158813669E+02  0.00000000000E+00 0. -1.
          2    1    6    6  503    0 -0.42675835122E+03  0.99452841864E+02 -0.19195412265E+03  0.47839308450E+03  0.00000000000E+00 0.  1.
         -2    1    6    6    0  503 -0.11524584609E+03 -0.32416867871E+01 -0.12144581765E+02  0.11592930794E+03  0.00000000000E+00 0. -1.
<mgrwt>
<rscale>  0 0.16748460E+04</rscale>
<asrwt>0</asrwt>
<pdfrwt beam="1">  1        2 0.17911546E+00 0.16748460E+04</pdfrwt>
<pdfrwt beam="2">  1       -1 0.92668038E-01 0.16748460E+04</pdfrwt>
<totfact> 0.24500488E+01</totfact>
</mgrwt>
</event>
<event>
12    7  0.1675873E-007  0.4074406E+04  0.7818608E-02  0.7989702E-01
         -1   -1    0    0    0  501 -0.00000000000E+00  0.00000000000E+00  0.11648168746E+04  0.11648168746E+04  0.00000000000E+00 0.  1.
          2   -1    0    0  501    0  0.00000000000E+00 -0.00000000000E+00 -0.35629605749E+04  0.35629605749E+04  0.00000000000E+00 0. -1.
         24    2    1    2    0    0 -0.12443119637E+04 -0.11113839915E+04  0.77071379987E+01  0.16703791896E+04  0.81367054053E+02 0.  0.
        254    2    1    2    0    0  0.12443119637E+04  0.11113839915E+04 -0.24058508384E+04  0.30573982599E+04  0.88095358779E+03 0.  0.
         23    2    4    4    0    0  0.23899432172E+03 -0.74526178814E+02 -0.12288901200E+03  0.29371903946E+03  0.92177696464E+02 0.  0.
         23    2    4    4    0    0  0.10053176419E+04  0.11859101704E+04 -0.22829618263E+04  0.27636792205E+04  0.94665937533E+02 0.  0.
          4    1    3    3  502    0 -0.10834522584E+03 -0.10148277761E+03 -0.22260234837E+02  0.15010982702E+03  0.00000000000E+00 0. -1.
         -3    1    3    3    0  502 -0.11359667378E+04 -0.10099012139E+04  0.29967372836E+02  0.15202693626E+04  0.00000000000E+00 0.  1.
         13    1    5    5    0    0  0.10705562708E+03 -0.54969510163E+02 -0.10390793733E+03  0.15899501180E+03  0.00000000000E+00 0.  1.
        -13    1    5    5    0    0  0.13193869465E+03 -0.19556668651E+02 -0.18981074674E+02  0.13472402766E+03  0.00000000000E+00 0. -1.
          2    1    6    6  503    0  0.31199663024E+03  0.32578481190E+03 -0.72175803013E+03  0.85112413607E+03  0.00000000000E+00 0. -1.
         -2    1    6    6    0  503  0.69332101170E+03  0.86012535846E+03 -0.15612037962E+04  0.19125550844E+04  0.00000000000E+00 0.  1.
<mgrwt>
<rscale>  0 0.40744063E+04</rscale>
<asrwt>0</asrwt>
<pdfrwt beam="1">  1        2 0.54814778E+00 0.40744063E+04</pdfrwt>
<pdfrwt beam="2">  1       -1 0.17920260E+00 0.40744063E+04</pdfrwt>
<totfact> 0.13743172E-01</totfact>
</mgrwt>
</event>
<event>
12    7  0.1675873E-007  0.1104726E+04  0.7818608E-02  0.9200598E-01
         -1   -1    0    0    0  501 -0.00000000000E+00  0.00000000000E+00  0.17299902121E+03  0.17299902121E+03  0.00000000000E+00 0.  1.
          2   -1    0    0  501    0  0.00000000000E+00 -0.00000000000E+00 -0.17636216050E+04  0.17636216050E+04  0.00000000000E+00 0. -1.
         24    2    1    2    0    0 -0.80268804943E+02  0.85353425393E+02 -0.51388703054E+02  0.15123931712E+03  0.80648893169E+02 0.  0.
        254    2    1    2    0    0  0.80268804943E+02 -0.85353425393E+02 -0.15392338807E+04  0.17853813091E+04  0.89700456572E+03 0.  0.
         23    2    4    4    0    0  0.97075211842E+01 -0.32540113512E+03 -0.14934672015E+03  0.36982680502E+03  0.92126479290E+02 0.  0.
         23    2    4    4    0    0  0.70561283759E+02  0.24004770973E+03 -0.13898871606E+04  0.14155545040E+04  0.96986788161E+02 0.  0.
          4    1    3    3  502    0  0.69336924378E+00 -0.60081454324E+01 -0.25818011261E+02  0.26516943224E+02  0.00000000000E+00 0. -1.
         -3    1    3    3    0  502 -0.80962174187E+02  0.91361570826E+02 -0.25570691793E+02  0.12472237390E+03  0.00000000000E+00 0.  1.
         13    1    5    5    0    0 -0.17272208229E+02 -0.28524878487E+03 -0.10576451071E+03  0.30471516236E+03  0.00000000000E+00 0. -1.
        -13    1    5    5    0    0  0.26979729413E+02 -0.40152350251E+02 -0.43582209445E+02  0.65111642660E+02  0.00000000000E+00 0.  1.
          3    1    6    6  503    0  0.28914926373E+02  0.17043227580E+03 -0.11344554992E+04  0.11475506582E+04  0.00000000000E+00 0. -1.
         -3    1    6    6    0  503  0.41646357386E+02  0.69615433928E+02 -0.25543166140E+03  0.26800384582E+03  0.00000000000E+00 0.  1.
<mgrwt>
<rscale>  0 0.11047259E+04</rscale>
<asrwt>0</asrwt>
<pdfrwt beam="1">  1        2 0.27132640E+00 0.11047259E+04</pdfrwt>
<pdfrwt beam="2">  1       -1 0.26615234E-01 0.11047259E+04</pdfrwt>
<totfact> 0.12857151E+02</totfact>
</mgrwt>
</event>
<event>
12    7  0.1675873E-007  0.2495764E+04  0.7818608E-02  0.8404496E-01
         -1   -1    0    0    0  501 -0.00000000000E+00  0.00000000000E+00  0.45217755019E+03  0.45217755019E+03  0.00000000000E+00 0.  1.
          2   -1    0    0  501    0  0.00000000000E+00 -0.00000000000E+00 -0.34438015045E+04  0.34438015045E+04  0.00000000000E+00 0. -1.
         24    2    1    2    0    0 -0.31886176289E+03  0.18540150625E+03 -0.28985454327E+04  0.29230118644E+04  0.79913652982E+02 0.  0.
        254    2    1    2    0    0  0.31886176289E+03 -0.18540150625E+03 -0.93078521681E+02  0.97296719031E+03  0.89551940229E+03 0.  0.
         23    2    4    4    0    0 -0.28769286791E+03 -0.17916251548E+03 -0.82366367218E+02  0.36054478403E+03  0.91334164709E+02 0.  0.
         23    2    4    4    0    0  0.60655463081E+03 -0.62389907727E+01 -0.10712154463E+02  0.61242240628E+03  0.83660075930E+02 0.  0.
          4    1    3    3  502    0 -0.29581839952E+03  0.16856213545E+03 -0.24480068022E+04  0.24715701532E+04  0.00000000000E+00 0. -1.
         -3    1    3    3    0  502 -0.23043363372E+02  0.16839370799E+02 -0.45053863050E+03  0.45144171117E+03  0.00000000000E+00 0.  1.
         13    1    5    5    0    0 -0.17969812675E+03 -0.15310861056E+03 -0.80528967553E+02  0.24943652098E+03  0.00000000000E+00 0. -1.
        -13    1    5    5    0    0 -0.10799474116E+03 -0.26053904922E+02 -0.18373996654E+01  0.11110826305E+03  0.00000000000E+00 0.  1.
          3    1    6    6  503    0  0.39326468214E+03  0.84069564001E+01 -0.44918861082E+02  0.39591096375E+03  0.00000000000E+00 0. -1.
         -3    1    6    6    0  503  0.21328994867E+03 -0.14645947173E+02  0.34206706619E+02  0.21651144254E+03  0.00000000000E+00 0.  1.
<mgrwt>
<rscale>  0 0.24957642E+04</rscale>
<asrwt>0</asrwt>
<pdfrwt beam="1">  1        2 0.52981560E+00 0.24957642E+04</pdfrwt>
<pdfrwt beam="2">  1       -1 0.69565779E-01 0.24957642E+04</pdfrwt>
<totfact> 0.18883853E+00</totfact>
</mgrwt>
</event>
<event>
12    7  0.1675873E-007  0.1660254E+04  0.7818608E-02  0.8784363E-01
         -1   -1    0    0    0  501 -0.00000000000E+00  0.00000000000E+00  0.48511815089E+03  0.48511815089E+03  0.00000000000E+00 0.  1.
          2   -1    0    0  501    0  0.00000000000E+00 -0.00000000000E+00 -0.14205006784E+04  0.14205006784E+04  0.00000000000E+00 0. -1.
         24    2    1    2    0    0 -0.11386882587E+03  0.19246142686E+03  0.30498227408E+03  0.38626295608E+03  0.78596268366E+02 0.  0.
        254    2    1    2    0    0  0.11386882587E+03 -0.19246142686E+03 -0.12403648016E+04  0.15193558732E+04  0.84848684027E+03 0.  0.
         23    2    4    4    0    0  0.34751306258E+03  0.15361876212E+03 -0.87139777305E+03  0.95463831732E+03  0.87385269194E+02 0.  0.
         23    2    4    4    0    0 -0.23364423672E+03 -0.34608018898E+03 -0.36896702851E+03  0.56471755587E+03  0.91695819010E+02 0.  0.
          2    1    3    3  502    0  0.35719740511E+00  0.67015414767E+02  0.96119101171E+02  0.11717540278E+03  0.00000000000E+00 0. -1.
         -1    1    3    3    0  502 -0.11422602327E+03  0.12544601210E+03  0.20886317291E+03  0.26908755330E+03  0.00000000000E+00 0.  1.
         13    1    5    5    0    0  0.23446327368E+03  0.14670826386E+03 -0.61268576926E+03  0.67222034576E+03  0.00000000000E+00 0. -1.
        -13    1    5    5    0    0  0.11304978890E+03  0.69104982548E+01 -0.25871200379E+03  0.28241797156E+03  0.00000000000E+00 0.  1.
          3    1    6    6  503    0 -0.22620088089E+03 -0.33308821777E+03 -0.32241228577E+03  0.51581419266E+03  0.00000000000E+00 0. -1.
         -3    1    6    6    0  503 -0.74433558236E+01 -0.12991971212E+02 -0.46554742734E+02  0.48903363206E+02  0.00000000000E+00 0.  1.
<mgrwt>
<rscale>  0 0.16602538E+04</rscale>
<asrwt>0</asrwt>
<pdfrwt beam="1">  1        2 0.21853856E+00 0.16602538E+04</pdfrwt>
<pdfrwt beam="2">  1       -1 0.74633562E-01 0.16602538E+04</pdfrwt>
<totfact> 0.27677096E+01</totfact>
</mgrwt>
</event>
<event>
12    7  0.1675873E-007  0.2336829E+04  0.7818608E-02  0.8463540E-01
         -1   -1    0    0    0  501 -0.00000000000E+00  0.00000000000E+00  0.12515494675E+04  0.12515494675E+04  0.00000000000E+00 0.  1.
          2   -1    0    0  501    0  0.00000000000E+00 -0.00000000000E+00 -0.10908018977E+04  0.10908018977E+04  0.00000000000E+00 0. -1.
         24    2    1    2    0    0  0.90144107036E+03 -0.14606081327E+03  0.45985112935E+03  0.10255684906E+04  0.79986894032E+02 0.  0.
        254    2    1    2    0    0 -0.90144107036E+03  0.14606081327E+03 -0.29910355961E+03  0.13167828746E+04  0.90029130564E+03 0.  0.
         23    2    4    4    0    0 -0.25279324142E+03  0.38591892640E+01 -0.54097366894E+03  0.60455619434E+03  0.94426507861E+02 0.  0.
         23    2    4    4    0    0 -0.64864782894E+03  0.14220162401E+03  0.24187010933E+03  0.71222668028E+03  0.88319796457E+02 0.  0.
          4    1    3    3  502    0  0.23057118710E+03 -0.69645757237E+02  0.10437271940E+03  0.26250193975E+03  0.00000000000E+00 0. -1.
         -1    1    3    3    0  502  0.67086988327E+03 -0.76415056034E+02  0.35547840996E+03  0.76306655084E+03  0.00000000000E+00 0.  1.
         13    1    5    5    0    0 -0.19631224188E+03  0.31284669650E+02 -0.33833163344E+03  0.39240988909E+03  0.00000000000E+00 0.  1.
        -13    1    5    5    0    0 -0.56480999537E+02 -0.27425480386E+02 -0.20264203550E+03  0.21214630525E+03  0.00000000000E+00 0. -1.
          2    1    6    6  503    0 -0.45157405091E+03  0.99767463503E+02  0.12438235458E+03  0.47889836120E+03  0.00000000000E+00 0. -1.
         -2    1    6    6    0  503 -0.19707377803E+03  0.42434160504E+02  0.11748775475E+03  0.23332831907E+03  0.00000000000E+00 0.  1.
<mgrwt>
<rscale>  0 0.23368291E+04</rscale>
<asrwt>0</asrwt>
<pdfrwt beam="1">  1        2 0.16781568E+00 0.23368291E+04</pdfrwt>
<pdfrwt beam="2">  1       -1 0.19254607E+00 0.23368291E+04</pdfrwt>
<totfact> 0.38575615E+00</totfact>
</mgrwt>
</event>
<event>
12    7  0.1675873E-007  0.1821990E+04  0.7818608E-02  0.8694692E-01
         -1   -1    0    0    0  501 -0.00000000000E+00  0.00000000000E+00  0.11155150197E+04  0.11155150197E+04  0.00000000000E+00 0.  1.
          2   -1    0    0  501    0  0.00000000000E+00 -0.00000000000E+00 -0.74397211189E+03  0.74397211189E+03  0.00000000000E+00 0. -1.
         24    2    1    2    0    0  0.57971929372E+03 -0.34585657970E+03  0.11567883149E+02  0.67956162364E+03  0.77323677972E+02 0.  0.
        254    2    1    2    0    0 -0.57971929372E+03  0.34585657970E+03  0.35997502466E+03  0.11799255079E+04  0.89830448774E+03 0.  0.
         23    2    4    4    0    0 -0.56566470028E+03  0.61406565725E+03  0.25661002469E+03  0.87820767050E+03  0.91360950036E+02 0.  0.
         23    2    4    4    0    0 -0.14054593435E+02 -0.26820907755E+03  0.10336499997E+03  0.30171783745E+03  0.90640439870E+02 0.  0.
          4    1    3    3  502    0  0.18848143878E+03 -0.11928503916E+03 -0.32079880977E+02  0.22535148567E+03  0.00000000000E+00 0. -1.
         -3    1    3    3    0  502  0.39123785494E+03 -0.22657154054E+03  0.43647764126E+02  0.45421013797E+03  0.00000000000E+00 0.  1.
         13    1    5    5    0    0 -0.53012346954E+03  0.53486998494E+03  0.22923881759E+03  0.78718944940E+03  0.00000000000E+00 0.  1.
        -13    1    5    5    0    0 -0.35541230746E+02  0.79195672305E+02  0.27371207097E+02  0.91018221102E+02  0.00000000000E+00 0. -1.
          4    1    6    6  503    0  0.36871862565E+02 -0.93361288793E+02  0.24905184950E+02  0.10342210949E+03  0.00000000000E+00 0.  1.
         -4    1    6    6    0  503 -0.50926456001E+02 -0.17484778876E+03  0.78459815017E+02  0.19829572796E+03  0.00000000000E+00 0. -1.
<mgrwt>
<rscale>  0 0.18219902E+04</rscale>
<asrwt>0</asrwt>
<pdfrwt beam="1">  1        2 0.11445725E+00 0.18219902E+04</pdfrwt>
<pdfrwt beam="2">  1       -1 0.17161769E+00 0.18219902E+04</pdfrwt>
<totfact> 0.97612192E+00</totfact>
</mgrwt>
</event>
<event>
12    7  0.1675873E-007  0.2057818E+04  0.7818608E-02  0.8580056E-01
          2   -1    0    0  501    0  0.00000000000E+00  0.00000000000E+00  0.40383382086E+04  0.40383382086E+04  0.00000000000E+00 0. -1.
         -1   -1    0    0    0  501 -0.00000000000E+00 -0.00000000000E+00 -0.26215078225E+03  0.26215078225E+03  0.00000000000E+00 0.  1.
         24    2    1    2    0    0  0.22369188470E+03 -0.69153380989E+03  0.24758455862E+04  0.25815445632E+04  0.79397074493E+02 0.  0.
        254    2    1    2    0    0 -0.22369188470E+03  0.69153380989E+03  0.13003418401E+04  0.17189444276E+04  0.85768524216E+03 0.  0.
         23    2    4    4    0    0 -0.50130898470E+03  0.61976994075E+03  0.10849224332E+04  0.13488094024E+04  0.82490243461E+02 0.  0.
         23    2    4    4    0    0  0.27761710000E+03  0.71763869140E+02  0.21541940684E+03  0.37013502520E+03  0.91504693373E+02 0.  0.
          4    1    3    3  502    0  0.21922998270E+03 -0.58855934946E+03  0.21289499137E+04  0.22196602506E+04  0.00000000000E+00 0. -1.
         -3    1    3    3    0  502  0.44619019993E+01 -0.10297446044E+03  0.34689567255E+03  0.36188431260E+03  0.00000000000E+00 0.  1.
         13    1    5    5    0    0 -0.22283543666E+02  0.56712685567E+02  0.10367028471E+03  0.12025145718E+03  0.00000000000E+00 0. -1.
        -13    1    5    5    0    0 -0.47902544103E+03  0.56305725519E+03  0.98125214851E+03  0.12285579452E+04  0.00000000000E+00 0.  1.
          4    1    6    6  503    0  0.33859187939E+02 -0.15061082858E+02  0.66323346496E+01  0.37646629168E+02  0.00000000000E+00 0. -1.
         -4    1    6    6    0  503  0.24375791206E+03  0.86824951997E+02  0.20878707219E+03  0.33248839603E+03  0.00000000000E+00 0.  1.
<mgrwt>
<rscale>  0 0.20578178E+04</rscale>
<asrwt>0</asrwt>
<pdfrwt beam="1">  1        2 0.62128276E+00 0.20578178E+04</pdfrwt>
<pdfrwt beam="2">  1       -1 0.40330893E-01 0.20578178E+04</pdfrwt>
<totfact> 0.20301992E+00</totfact>
</mgrwt>
</event>
<event>
12    7  0.1675873E-007  0.2170227E+04  0.7818608E-02  0.8530924E-01
         -1   -1    0    0    0  501 -0.00000000000E+00  0.00000000000E+00  0.93993087777E+03  0.93993087777E+03  0.00000000000E+00 0.  1.
          2   -1    0    0  501    0  0.00000000000E+00 -0.00000000000E+00 -0.12527206669E+04  0.12527206669E+04  0.00000000000E+00 0. -1.
         24    2    1    2    0    0  0.75241785331E+03  0.48006581412E+03 -0.14957273760E+03  0.90854143259E+03  0.80496702046E+02 0.  0.
        254    2    1    2    0    0 -0.75241785331E+03 -0.48006581412E+03 -0.16321705149E+03  0.12841101120E+04  0.90868210175E+03 0.  0.
         23    2    4    4    0    0 -0.54928620601E+03  0.28849788877E+02  0.23048353322E+03  0.60321813843E+03  0.90563883640E+02 0.  0.
         23    2    4    4    0    0 -0.20313164730E+03 -0.50891560300E+03 -0.39370058470E+03  0.68089197359E+03  0.91412100927E+02 0.  0.
          4    1    3    3  502    0  0.45877416624E+02  0.90189932789E+01 -0.33335759491E+01  0.46874218121E+02  0.00000000000E+00 0. -1.
         -3    1    3    3    0  502  0.70654043668E+03  0.47104682084E+03 -0.14623916165E+03  0.86166721447E+03  0.00000000000E+00 0.  1.
         13    1    5    5    0    0 -0.55095567182E+03  0.33225320022E+02  0.23130560769E+03  0.59846333083E+03  0.00000000000E+00 0. -1.
        -13    1    5    5    0    0  0.16694658113E+01 -0.43755311447E+01 -0.82207447068E+00  0.47548076016E+01  0.00000000000E+00 0.  1.
          3    1    6    6  503    0 -0.16445793127E+03 -0.47847795737E+03 -0.36559353890E+03  0.62421647089E+03  0.00000000000E+00 0. -1.
         -3    1    6    6    0  503 -0.38673716023E+02 -0.30437645634E+02 -0.28107045801E+02  0.56675502702E+02  0.00000000000E+00 0.  1.
<mgrwt>
<rscale>  0 0.21702266E+04</rscale>
<asrwt>0</asrwt>
<pdfrwt beam="1">  1        2 0.19272626E+00 0.21702266E+04</pdfrwt>
<pdfrwt beam="2">  1       -1 0.14460475E+00 0.21702266E+04</pdfrwt>
<totfact> 0.70840958E+00</totfact>
</mgrwt>
</event>
<event>
12    7  0.1675873E-007  0.2155622E+04  0.7818608E-02  0.8537130E-01
          2   -1    0    0  501    0  0.00000000000E+00  0.00000000000E+00  0.22926560905E+04  0.22926560905E+04  0.00000000000E+00 0. -1.
         -1   -1    0    0    0  501 -0.00000000000E+00 -0.00000000000E+00 -0.50669444282E+03  0.50669444282E+03  0.00000000000E+00 0.  1.
         24    2    1    2    0    0 -0.30413474220E+03  0.74688229581E+03  0.12405581614E+04  0.14815651203E+04  0.75627697964E+02 0.  0.
        254    2    1    2    0    0  0.30413474220E+03 -0.74688229581E+03  0.54540348628E+03  0.13177854130E+04  0.88812292318E+03 0.  0.
         23    2    4    4    0    0  0.19717095059E+02 -0.84214866791E+02 -0.22572316650E+03  0.25816897819E+03  0.90660717943E+02 0.  0.
         23    2    4    4    0    0  0.28441764714E+03 -0.66266742902E+03  0.77112665278E+03  0.10596164348E+04  0.90161825690E+02 0.  0.
          2    1    3    3  502    0 -0.19011437096E+02  0.60207201559E+02  0.13769840973E+03  0.15148331229E+03  0.00000000000E+00 0. -1.
         -1    1    3    3    0  502 -0.28512330511E+03  0.68667509425E+03  0.11028597517E+04  0.13300818080E+04  0.00000000000E+00 0.  1.
         13    1    5    5    0    0  0.33403538179E+02  0.59692793102E+01 -0.66965911126E+02  0.75072377818E+02  0.00000000000E+00 0.  1.
        -13    1    5    5    0    0 -0.13686443120E+02 -0.90184146102E+02 -0.15875725538E+03  0.18309660037E+03  0.00000000000E+00 0. -1.
          1    1    6    6  503    0  0.92596445088E+02 -0.12460009460E+03  0.17663144661E+03  0.23515516824E+03  0.00000000000E+00 0. -1.
         -1    1    6    6    0  503  0.19182120205E+03 -0.53806733442E+03  0.59449520617E+03  0.82446126658E+03  0.00000000000E+00 0.  1.
<mgrwt>
<rscale>  0 0.21556216E+04</rscale>
<asrwt>0</asrwt>
<pdfrwt beam="1">  1        2 0.35271632E+00 0.21556216E+04</pdfrwt>
<pdfrwt beam="2">  1       -1 0.77952993E-01 0.21556216E+04</pdfrwt>
<totfact> 0.78768903E+00</totfact>
</mgrwt>
</event>
<event>
12    7  0.1675873E-007  0.1521278E+04  0.7818608E-02  0.8870425E-01
         -1   -1    0    0    0  501 -0.00000000000E+00  0.00000000000E+00  0.18789185364E+03  0.18789185364E+03  0.00000000000E+00 0.  1.
          2   -1    0    0  501    0  0.00000000000E+00 -0.00000000000E+00 -0.30792823224E+04  0.30792823224E+04  0.00000000000E+00 0. -1.
         24    2    1    2    0    0  0.16480419934E+03 -0.44616612425E+03 -0.72156379529E+03  0.86849232420E+03  0.86023089762E+02 0.  0.
        254    2    1    2    0    0 -0.16480419934E+03  0.44616612425E+03 -0.21698266735E+04  0.23986818518E+04  0.90515313562E+03 0.  0.
         23    2    4    4    0    0  0.13575758594E+03  0.12248104580E+03 -0.18106600704E+04  0.18220676582E+04  0.89492635616E+02 0.  0.
         23    2    4    4    0    0 -0.30056178529E+03  0.32368507845E+03 -0.35916660310E+03  0.57661419366E+03  0.91508812527E+02 0.  0.
          2    1    3    3  502    0  0.99119590683E+02 -0.32698074302E+03 -0.57204299535E+03  0.66631395610E+03  0.00000000000E+00 0. -1.
         -1    1    3    3    0  502  0.65684608658E+02 -0.11918538123E+03 -0.14952079994E+03  0.20217836810E+03  0.00000000000E+00 0.  1.
         13    1    5    5    0    0  0.12772493575E+03  0.13648812531E+03 -0.16975031131E+04  0.17077644704E+04  0.00000000000E+00 0.  1.
        -13    1    5    5    0    0  0.80326501994E+01 -0.14007079508E+02 -0.11315695729E+03  0.11430318775E+03  0.00000000000E+00 0. -1.
          3    1    6    6  503    0 -0.21377078488E+03  0.27447962529E+03 -0.30720451191E+03  0.46412457951E+03  0.00000000000E+00 0. -1.
         -3    1    6    6    0  503 -0.86791000405E+02  0.49205453159E+02 -0.51962091185E+02  0.11248961415E+03  0.00000000000E+00 0.  1.
<mgrwt>
<rscale>  0 0.15212785E+04</rscale>
<asrwt>0</asrwt>
<pdfrwt beam="1">  1        2 0.47373573E+00 0.15212785E+04</pdfrwt>
<pdfrwt beam="2">  1       -1 0.28906440E-01 0.15212785E+04</pdfrwt>
<totfact> 0.18706268E+01</totfact>
</mgrwt>
</event>
<event>
12    7  0.1675873E-007  0.3729555E+04  0.7818608E-02  0.8061443E-01
         -1   -1    0    0    0  501 -0.00000000000E+00  0.00000000000E+00  0.15114940755E+04  0.15114940755E+04  0.00000000000E+00 0.  1.
          2   -1    0    0  501    0  0.00000000000E+00 -0.00000000000E+00 -0.23006345304E+04  0.23006345304E+04  0.00000000000E+00 0. -1.
         24    2    1    2    0    0  0.11985251272E+04 -0.36414866879E+03 -0.16205163789E+04  0.20497903718E+04  0.80625681835E+02 0.  0.
        254    2    1    2    0    0 -0.11985251272E+04  0.36414866879E+03  0.83137592398E+03  0.17623382341E+04  0.91955608359E+03 0.  0.
         23    2    4    4    0    0 -0.63201579422E+03  0.64477693760E+03  0.40468339850E+03  0.99365196058E+03  0.91620425418E+02 0.  0.
         23    2    4    4    0    0 -0.56650933293E+03 -0.28062826880E+03  0.42669252548E+03  0.76868627348E+03  0.95535470824E+02 0.  0.
          4    1    3    3  502    0  0.95479778521E+03 -0.27171422323E+03 -0.12370171299E+04  0.15860891556E+04  0.00000000000E+00 0. -1.
         -3    1    3    3    0  502  0.24372734195E+03 -0.92434445563E+02 -0.38349924895E+03  0.46370121618E+03  0.00000000000E+00 0.  1.
         13    1    5    5    0    0 -0.81095156212E+02  0.10231982086E+03  0.91706799979E+02  0.15954907479E+03  0.00000000000E+00 0. -1.
        -13    1    5    5    0    0 -0.55092063801E+03  0.54245711673E+03  0.31297659852E+03  0.83410288580E+03  0.00000000000E+00 0.  1.
          1    1    6    6  503    0 -0.41764783371E+03 -0.22120894473E+03  0.26884788903E+03  0.54372998599E+03  0.00000000000E+00 0. -1.
         -1    1    6    6    0  503 -0.14886149923E+03 -0.59419324072E+02  0.15784463646E+03  0.22495628749E+03  0.00000000000E+00 0.  1.
<mgrwt>
<rscale>  0 0.37295552E+04</rscale>
<asrwt>0</asrwt>
<pdfrwt beam="1">  1        2 0.35394377E+00 0.37295552E+04</pdfrwt>
<pdfrwt beam="2">  1       -1 0.23253755E+00 0.37295552E+04</pdfrwt>
<totfact> 0.37713810E-01</totfact>
</mgrwt>
</event>
<event>
12    7  0.1675873E-007  0.1285489E+04  0.7818608E-02  0.9041152E-01
         -1   -1    0    0    0  501 -0.00000000000E+00  0.00000000000E+00  0.10940184577E+04  0.10940184577E+04  0.00000000000E+00 0.  1.
          2   -1    0    0  501    0  0.00000000000E+00 -0.00000000000E+00 -0.37761737991E+03  0.37761737991E+03  0.00000000000E+00 0. -1.
         24    2    1    2    0    0 -0.13248596075E+02  0.21619201196E+03  0.46021061001E+03  0.51519914379E+03  0.81986833457E+02 0.  0.
        254    2    1    2    0    0  0.13248596075E+02 -0.21619201196E+03  0.25619046777E+03  0.95643669382E+03  0.89566906957E+03 0.  0.
         23    2    4    4    0    0  0.19629080373E+03  0.45732939935E+02 -0.26070219008E+03  0.34196122899E+03  0.91379805161E+02 0.  0.
         23    2    4    4    0    0 -0.18304220766E+03 -0.26192495190E+03  0.51689265786E+03  0.61447546483E+03  0.91065618806E+02 0.  0.
          4    1    3    3  502    0  0.42366827703E+01 -0.66277952230E+01  0.11927751114E+02  0.14288050849E+02  0.00000000000E+00 0. -1.
         -3    1    3    3    0  502 -0.17485278846E+02  0.22281980718E+03  0.44828285890E+03  0.50091109294E+03  0.00000000000E+00 0.  1.
         13    1    5    5    0    0  0.11910115396E+03  0.50224050643E+02 -0.21851029913E+03  0.25387849646E+03  0.00000000000E+00 0. -1.
        -13    1    5    5    0    0  0.77189649775E+02 -0.44911107077E+01 -0.42191890951E+02  0.88082732529E+02  0.00000000000E+00 0.  1.
          2    1    6    6  503    0 -0.26319391232E+02 -0.31332534847E+02  0.13876013913E+03  0.14466794499E+03  0.00000000000E+00 0. -1.
         -2    1    6    6    0  503 -0.15672281643E+03 -0.23059241705E+03  0.37813251872E+03  0.46980751985E+03  0.00000000000E+00 0.  1.
<mgrwt>
<rscale>  0 0.12854888E+04</rscale>
<asrwt>0</asrwt>
<pdfrwt beam="1">  1        2 0.58094982E-01 0.12854888E+04</pdfrwt>
<pdfrwt beam="2">  1       -1 0.16831053E+00 0.12854888E+04</pdfrwt>
<totfact> 0.24130616E+01</totfact>
</mgrwt>
</event>
<event>
12    7  0.1675873E-007  0.2087422E+04  0.7818608E-02  0.8566805E-01
          2   -1    0    0  501    0  0.00000000000E+00  0.00000000000E+00  0.16137785361E+04  0.16137785361E+04  0.00000000000E+00 0. -1.
         -1   -1    0    0    0  501 -0.00000000000E+00 -0.00000000000E+00 -0.67501960618E+03  0.67501960618E+03  0.00000000000E+00 0.  1.
         24    2    1    2    0    0  0.37558520588E+03 -0.50758499814E+03 -0.23673418491E+03  0.67864498263E+03  0.76217851852E+02 0.  0.
        254    2    1    2    0    0 -0.37558520588E+03  0.50758499814E+03  0.11754931149E+04  0.16101531597E+04  0.90116721940E+03 0.  0.
         23    2    4    4    0    0  0.28085369590E+02  0.53580692173E+03  0.25597872678E+03  0.60138572590E+03  0.90894649944E+02 0.  0.
         23    2    4    4    0    0 -0.40367057547E+03 -0.28221923596E+02  0.91951438809E+03  0.10087674338E+04  0.91425461905E+02 0.  0.
          4    1    3    3  502    0  0.87501367034E+02 -0.12403875698E+03 -0.23131129168E+02  0.15354853175E+03  0.00000000000E+00 0. -1.
         -3    1    3    3    0  502  0.28808383884E+03 -0.38354624116E+03 -0.21360305574E+03  0.52509645088E+03  0.00000000000E+00 0.  1.
         13    1    5    5    0    0 -0.53134048742E+01  0.84913761594E+02  0.73297370442E+01  0.85394989458E+02  0.00000000000E+00 0.  1.
        -13    1    5    5    0    0  0.33398774464E+02  0.45089316014E+03  0.24864898973E+03  0.51599073644E+03  0.00000000000E+00 0. -1.
          1    1    6    6  503    0 -0.46221943027E+02 -0.33859799196E+02  0.12094688487E+03  0.13383236895E+03  0.00000000000E+00 0. -1.
         -1    1    6    6    0  503 -0.35744863244E+03  0.56378755998E+01  0.79856750321E+03  0.87493506482E+03  0.00000000000E+00 0.  1.
<mgrwt>
<rscale>  0 0.20874215E+04</rscale>
<asrwt>0</asrwt>
<pdfrwt beam="1">  1        2 0.24827362E+00 0.20874215E+04</pdfrwt>
<pdfrwt beam="2">  1       -1 0.10384917E+00 0.20874215E+04</pdfrwt>
<totfact> 0.10055423E+01</totfact>
</mgrwt>
</event>
<event>
12    7  0.1675873E-007  0.1748550E+04  0.7818608E-02  0.8734149E-01
          2   -1    0    0  501    0  0.00000000000E+00  0.00000000000E+00  0.15539936409E+04  0.15539936409E+04  0.00000000000E+00 0. -1.
         -1   -1    0    0    0  501 -0.00000000000E+00 -0.00000000000E+00 -0.49186609827E+03  0.49186609827E+03  0.00000000000E+00 0.  1.
         24    2    1    2    0    0 -0.62749378225E+03  0.54653062423E+02  0.27280297672E+03  0.69105887729E+03  0.80034391253E+02 0.  0.
        254    2    1    2    0    0  0.62749378225E+03 -0.54653062423E+02  0.78932456588E+03  0.13548008618E+04  0.90317036099E+03 0.  0.
         23    2    4    4    0    0  0.28865796311E+03 -0.27307860433E+03  0.84469177675E+03  0.93798519637E+03  0.91742504272E+02 0.  0.
         23    2    4    4    0    0  0.33883581914E+03  0.21842554190E+03 -0.55367210866E+02  0.41681566548E+03  0.90279240497E+02 0.  0.
          4    1    3    3  502    0 -0.12473585604E+02  0.11255290942E+01 -0.57485222544E+01  0.13780517467E+02  0.00000000000E+00 0. -1.
         -3    1    3    3    0  502 -0.61502019664E+03  0.53527533328E+02  0.27855149898E+03  0.67727835982E+03  0.00000000000E+00 0.  1.
         13    1    5    5    0    0  0.26666254152E+03 -0.22320066763E+03  0.77550591091E+03  0.84990403396E+03  0.00000000000E+00 0.  1.
        -13    1    5    5    0    0  0.21995421594E+02 -0.49877936692E+02  0.69185865840E+02  0.88081162412E+02  0.00000000000E+00 0. -1.
          3    1    6    6  503    0  0.17047382061E+03  0.12082726588E+03  0.15938601691E+02  0.20955808436E+03  0.00000000000E+00 0. -1.
         -3    1    6    6    0  503  0.16836199852E+03  0.97598276024E+02 -0.71305812557E+02  0.20725758112E+03  0.00000000000E+00 0.  1.
<mgrwt>
<rscale>  0 0.17485500E+04</rscale>
<asrwt>0</asrwt>
<pdfrwt beam="1">  1        2 0.23907594E+00 0.17485500E+04</pdfrwt>
<pdfrwt beam="2">  1       -1 0.75671708E-01 0.17485500E+04</pdfrwt>
<totfact> 0.22429279E+01</totfact>
</mgrwt>
</event>
<event>
12    7  0.1675873E-007  0.2377701E+04  0.7818608E-02  0.8447900E-01
          2   -1    0    0  501    0  0.00000000000E+00  0.00000000000E+00  0.29068998140E+04  0.29068998140E+04  0.00000000000E+00 0. -1.
         -1   -1    0    0    0  501 -0.00000000000E+00 -0.00000000000E+00 -0.48621040915E+03  0.48621040915E+03  0.00000000000E+00 0.  1.
         24    2    1    2    0    0 -0.73707925628E+03  0.69161360727E+03  0.12351875547E+04  0.15979834726E+04  0.79042213794E+02 0.  0.
        254    2    1    2    0    0  0.73707925628E+03 -0.69161360727E+03  0.11855018501E+04  0.17951267506E+04  0.89188015008E+03 0.  0.
         23    2    4    4    0    0  0.12095358803E+03  0.19310104773E+03  0.10673073963E+03  0.26706299494E+03  0.89517637331E+02 0.  0.
         23    2    4    4    0    0  0.61612566825E+03 -0.88471465499E+03  0.10787711105E+04  0.15280637556E+04  0.94344435720E+02 0.  0.
          4    1    3    3  502    0 -0.55916219649E+03  0.48218806163E+03  0.87369393143E+03  0.11439006839E+04  0.00000000000E+00 0. -1.
         -3    1    3    3    0  502 -0.17791705979E+03  0.20942554564E+03  0.36149362331E+03  0.45408278874E+03  0.00000000000E+00 0.  1.
         13    1    5    5    0    0  0.12399722887E+03  0.18853725096E+03  0.11791297981E+03  0.25460769543E+03  0.00000000000E+00 0. -1.
        -13    1    5    5    0    0 -0.30436408371E+01  0.45637967644E+01 -0.11182240175E+02  0.12455299506E+02  0.00000000000E+00 0.  1.
          4    1    6    6  503    0  0.44293936930E+03 -0.55783561578E+03  0.70725906418E+03  0.10037884453E+04  0.00000000000E+00 0. -1.
         -4    1    6    6    0  503  0.17318629896E+03 -0.32687903921E+03  0.37151204633E+03  0.52427531030E+03  0.00000000000E+00 0.  1.
<mgrwt>
<rscale>  0 0.23777005E+04</rscale>
<asrwt>0</asrwt>
<pdfrwt beam="1">  1        2 0.44721535E+00 0.23777005E+04</pdfrwt>
<pdfrwt beam="2">  1       -1 0.74801603E-01 0.23777005E+04</pdfrwt>
<totfact> 0.36666618E+00</totfact>
</mgrwt>
</event>
<event>
12    7  0.2301214E-007  0.2523753E+04  0.7818608E-02  0.8394572E-01
          2   -1    0    0  501    0  0.00000000000E+00  0.00000000000E+00  0.11727801782E+04  0.11727801782E+04  0.00000000000E+00 0. -1.
         -1   -1    0    0    0  501 -0.00000000000E+00 -0.00000000000E+00 -0.13577416522E+04  0.13577416522E+04  0.00000000000E+00 0.  1.
         24    2    1    2    0    0 -0.65616939353E+03  0.47068065939E+03  0.66782234190E+03  0.10514674500E+04  0.86594237772E+02 0.  0.
        254    2    1    2    0    0  0.65616939353E+03 -0.47068065939E+03 -0.85278381586E+03  0.14790543803E+04  0.89903451944E+03 0.  0.
         23    2    4    4    0    0 -0.14365604798E+03  0.11904625518E+03 -0.17706138909E+03  0.27367240172E+03  0.93470727846E+02 0.  0.
         23    2    4    4    0    0  0.79982544151E+03 -0.58972691457E+03 -0.67572242677E+03  0.12053819786E+04  0.94055013614E+02 0.  0.
          4    1    3    3  502    0 -0.63632366489E+03  0.47039410997E+03  0.65883123936E+03  0.10296781182E+04  0.00000000000E+00 0. -1.
         -3    1    3    3    0  502 -0.19845728635E+02  0.28654941507E+00  0.89911025337E+01  0.21789331802E+02  0.00000000000E+00 0.  1.
         13    1    5    5    0    0 -0.10746032409E+03  0.10269070107E+03 -0.18047791493E+03  0.23380628545E+03  0.00000000000E+00 0. -1.
        -13    1    5    5    0    0 -0.36195723887E+02  0.16355554108E+02  0.34165258314E+01  0.39866116273E+02  0.00000000000E+00 0.  1.
          1    1    6    6  503    0  0.77809141659E+03 -0.58338457543E+03 -0.67280903183E+03  0.11825547804E+04  0.00000000000E+00 0. -1.
         -1    1    6    6    0  503  0.21734024917E+02 -0.63423391404E+01 -0.29133949411E+01  0.22827198141E+02  0.00000000000E+00 0.  1.
<mgrwt>
<rscale>  0 0.25237532E+04</rscale>
<asrwt>0</asrwt>
<pdfrwt beam="1">  1        2 0.18042772E+00 0.25237532E+04</pdfrwt>
<pdfrwt beam="2">  1       -1 0.20888333E+00 0.25237532E+04</pdfrwt>
<totfact> 0.26103654E+00</totfact>
</mgrwt>
</event>
<event>
12    7  0.1675873E-007  0.1474105E+04  0.7818608E-02  0.8901858E-01
          2   -1    0    0  501    0  0.00000000000E+00  0.00000000000E+00  0.23638969289E+04  0.23638969289E+04  0.00000000000E+00 0. -1.
         -1   -1    0    0    0  501 -0.00000000000E+00 -0.00000000000E+00 -0.22980956834E+03  0.22980956834E+03  0.00000000000E+00 0.  1.
         24    2    1    2    0    0  0.19771411406E+03 -0.42596405006E+03  0.70835779536E+03  0.85336771058E+03  0.77002859511E+02 0.  0.
        254    2    1    2    0    0 -0.19771411406E+03  0.42596405006E+03  0.14257295652E+04  0.17403387867E+04  0.88064638558E+03 0.  0.
         23    2    4    4    0    0 -0.63564887270E+02  0.66717575050E+03  0.78116849631E+03  0.10332702479E+04  0.90880188476E+02 0.  0.
         23    2    4    4    0    0 -0.13414922679E+03 -0.24121170044E+03  0.64456106890E+03  0.70706853875E+03  0.91147394194E+02 0.  0.
          2    1    3    3  502    0  0.17893426691E+03 -0.35744081619E+03  0.64125871814E+03  0.75564155030E+03  0.00000000000E+00 0. -1.
         -1    1    3    3    0  502  0.18779847152E+02 -0.68523233871E+02  0.67099077222E+02  0.97726160281E+02  0.00000000000E+00 0.  1.
         13    1    5    5    0    0 -0.83768172698E+02  0.60834906978E+03  0.70595277261E+03  0.93566821823E+03  0.00000000000E+00 0. -1.
        -13    1    5    5    0    0  0.20203285429E+02  0.58826680725E+02  0.75215723699E+02  0.97602029686E+02  0.00000000000E+00 0.  1.
          2    1    6    6  503    0 -0.10589171147E+03 -0.22602707322E+03  0.61386123316E+03  0.66266651187E+03  0.00000000000E+00 0. -1.
         -2    1    6    6    0  503 -0.28257515322E+02 -0.15184627221E+02  0.30699835748E+02  0.44402026879E+02  0.00000000000E+00 0.  1.
<mgrwt>
<rscale>  0 0.14741047E+04</rscale>
<asrwt>0</asrwt>
<pdfrwt beam="1">  1        2 0.36367643E+00 0.14741047E+04</pdfrwt>
<pdfrwt beam="2">  1       -1 0.35355320E-01 0.14741047E+04</pdfrwt>
<totfact> 0.35101382E+01</totfact>
</mgrwt>
</event>
<event>
12    7  0.1675873E-007  0.1594638E+04  0.7818608E-02  0.8823849E-01
          2   -1    0    0  501    0  0.00000000000E+00  0.00000000000E+00  0.28347535819E+03  0.28347535819E+03  0.00000000000E+00 0. -1.
         -1   -1    0    0    0  501 -0.00000000000E+00 -0.00000000000E+00 -0.22425840064E+04  0.22425840064E+04  0.00000000000E+00 0.  1.
         24    2    1    2    0    0  0.34944162444E+03  0.26150065175E+03 -0.11769720536E+04  0.12575535398E+04  0.75403254802E+02 0.  0.
        254    2    1    2    0    0 -0.34944162444E+03 -0.26150065175E+03 -0.78213659462E+03  0.12685058248E+04  0.89826351093E+03 0.  0.
         23    2    4    4    0    0 -0.21105037662E+03  0.12020984038E+03 -0.81104480618E+03  0.85153916052E+03  0.91283060204E+02 0.  0.
         23    2    4    4    0    0 -0.13839124782E+03 -0.38171049213E+03  0.28908211559E+02  0.41696666425E+03  0.90390691544E+02 0.  0.
          4    1    3    3  502    0 -0.71876569904E+00  0.13785482686E+02 -0.30719454129E+02  0.33678494904E+02  0.00000000000E+00 0. -1.
         -3    1    3    3    0  502  0.35016039014E+03  0.24771516906E+03 -0.11462525994E+04  0.12238750449E+04  0.00000000000E+00 0.  1.
         13    1    5    5    0    0 -0.51874601444E+02  0.70357126578E+02 -0.20277646857E+03  0.22081529779E+03  0.00000000000E+00 0. -1.
        -13    1    5    5    0    0 -0.15917577517E+03  0.49852713806E+02 -0.60826833761E+03  0.63072386273E+03  0.00000000000E+00 0.  1.
          1    1    6    6  503    0 -0.55122714939E+02 -0.21703658807E+03 -0.23453092995E+02  0.22515204159E+03  0.00000000000E+00 0. -1.
         -1    1    6    6    0  503 -0.83268532885E+02 -0.16467390407E+03  0.52361304554E+02  0.19181462265E+03  0.00000000000E+00 0.  1.
<mgrwt>
<rscale>  0 0.15946376E+04</rscale>
<asrwt>0</asrwt>
<pdfrwt beam="1">  1        2 0.43611594E-01 0.15946376E+04</pdfrwt>
<pdfrwt beam="2">  1       -1 0.34501292E+00 0.15946376E+04</pdfrwt>
<totfact> 0.21621571E+00</totfact>
</mgrwt>
</event>
<event>
12    7  0.1675873E-007  0.1841004E+04  0.7818608E-02  0.8684793E-01
         -1   -1    0    0    0  501 -0.00000000000E+00  0.00000000000E+00  0.37481085169E+03  0.37481085169E+03  0.00000000000E+00 0.  1.
          2   -1    0    0  501    0  0.00000000000E+00 -0.00000000000E+00 -0.22606712296E+04  0.22606712296E+04  0.00000000000E+00 0. -1.
         24    2    1    2    0    0 -0.18664953210E+03 -0.46592529778E+03 -0.28860467572E+02  0.50873243999E+03  0.77790346241E+02 0.  0.
        254    2    1    2    0    0  0.18664953210E+03  0.46592529778E+03 -0.18569999103E+04  0.21267496413E+04  0.90702311922E+03 0.  0.
         23    2    4    4    0    0 -0.16695487221E+03  0.85791922528E+02 -0.11655107802E+02  0.20759020424E+03  0.87884401516E+02 0.  0.
         23    2    4    4    0    0  0.35360440432E+03  0.38013337525E+03 -0.18453448025E+04  0.19191594370E+04  0.91312906436E+02 0.  0.
          4    1    3    3  502    0 -0.32195977351E+02 -0.13238359970E+03 -0.36637234359E+02  0.14108254807E+03  0.00000000000E+00 0. -1.
         -3    1    3    3    0  502 -0.15445355475E+03 -0.33354169807E+03  0.77767667869E+01  0.36764989192E+03  0.00000000000E+00 0.  1.
         13    1    5    5    0    0 -0.11976335054E+03  0.15703647329E+02  0.72506864012E+01  0.12100593838E+03  0.00000000000E+00 0. -1.
        -13    1    5    5    0    0 -0.47191521679E+02  0.70088275199E+02 -0.18905794204E+02  0.86584265853E+02  0.00000000000E+00 0.  1.
          4    1    6    6  503    0  0.34061758898E+03  0.33825255060E+03 -0.16216578818E+04  0.16912153664E+04  0.00000000000E+00 0. -1.
         -4    1    6    6    0  503  0.12986815341E+02  0.41880824650E+02 -0.22368692072E+03  0.22794407066E+03  0.00000000000E+00 0.  1.
<mgrwt>
<rscale>  0 0.18410042E+04</rscale>
<asrwt>0</asrwt>
<pdfrwt beam="1">  1        2 0.34779557E+00 0.18410042E+04</pdfrwt>
<pdfrwt beam="2">  1       -1 0.57663208E-01 0.18410042E+04</pdfrwt>
<totfact> 0.15581618E+01</totfact>
</mgrwt>
</event>
<event>
12    7  0.1675873E-007  0.1550135E+04  0.7818608E-02  0.8851782E-01
         -1   -1    0    0    0  501 -0.00000000000E+00  0.00000000000E+00  0.21879824666E+03  0.21879824666E+03  0.00000000000E+00 0.  1.
          2   -1    0    0  501    0  0.00000000000E+00 -0.00000000000E+00 -0.27455867668E+04  0.27455867668E+04  0.00000000000E+00 0. -1.
         24    2    1    2    0    0  0.27216399540E+03  0.40614946037E+03 -0.56953525448E+03  0.75490445754E+03  0.80496641936E+02 0.  0.
        254    2    1    2    0    0 -0.27216399540E+03 -0.40614946037E+03 -0.19572532657E+04  0.22094805559E+04  0.90107344679E+03 0.  0.
         23    2    4    4    0    0 -0.35390223296E+03 -0.58515883073E+03 -0.92241783160E+03  0.11518796725E+04  0.91183750207E+02 0.  0.
         23    2    4    4    0    0  0.81738237564E+02  0.17900937035E+03 -0.10348354341E+04  0.10576008834E+04  0.94391518507E+02 0.  0.
          4    1    3    3  502    0  0.15331834095E+03  0.21516389894E+03 -0.36706431984E+03  0.45225903195E+03  0.00000000000E+00 0. -1.
         -3    1    3    3    0  502  0.11884565444E+03  0.19098556143E+03 -0.20247093464E+03  0.30264542558E+03  0.00000000000E+00 0.  1.
         13    1    5    5    0    0 -0.28670463540E+03 -0.43365815393E+03 -0.64131670931E+03  0.82555803192E+03  0.00000000000E+00 0. -1.
        -13    1    5    5    0    0 -0.67197597559E+02 -0.15150067679E+03 -0.28110112229E+03  0.32632164062E+03  0.00000000000E+00 0.  1.
          1    1    6    6  503    0  0.45960702832E+02  0.15680138793E+03 -0.64012216279E+03  0.66064774635E+03  0.00000000000E+00 0. -1.
         -1    1    6    6    0  503  0.35777534732E+02  0.22207982429E+02 -0.39471327130E+03  0.39695313705E+03  0.00000000000E+00 0.  1.
<mgrwt>
<rscale>  0 0.15501349E+04</rscale>
<asrwt>0</asrwt>
<pdfrwt beam="1">  1        2 0.42239797E+00 0.15501349E+04</pdfrwt>
<pdfrwt beam="2">  1       -1 0.33661268E-01 0.15501349E+04</pdfrwt>
<totfact> 0.22842775E+01</totfact>
</mgrwt>
</event>
<event>
12    7  0.1675873E-007  0.1435613E+04  0.7818608E-02  0.8928436E-01
          2   -1    0    0  501    0  0.00000000000E+00  0.00000000000E+00  0.37143314876E+03  0.37143314876E+03  0.00000000000E+00 0. -1.
         -1   -1    0    0    0  501 -0.00000000000E+00 -0.00000000000E+00 -0.13871834861E+04  0.13871834861E+04  0.00000000000E+00 0.  1.
         24    2    1    2    0    0  0.12842207706E+03 -0.37840267418E+03 -0.12420524794E+03  0.42605432386E+03  0.80090758248E+02 0.  0.
        254    2    1    2    0    0 -0.12842207706E+03  0.37840267418E+03 -0.89154508944E+03  0.13325623110E+04  0.90619471009E+03 0.  0.
         23    2    4    4    0    0 -0.18337340855E+03  0.20303621159E+03 -0.10404396045E+04  0.10796992344E+04  0.91577049900E+02 0.  0.
         23    2    4    4    0    0  0.54951331484E+02  0.17536646259E+03  0.14889451506E+03  0.25286307660E+03  0.89426583609E+02 0.  0.
          2    1    3    3  502    0  0.12413135318E+03 -0.35564584662E+03 -0.94445463557E+02  0.38834585957E+03  0.00000000000E+00 0. -1.
         -1    1    3    3    0  502  0.42907238798E+01 -0.22756827563E+02 -0.29759784386E+02  0.37708464286E+02  0.00000000000E+00 0.  1.
         13    1    5    5    0    0 -0.12162342477E+03  0.11425769753E+03 -0.46144158319E+03  0.49068871354E+03  0.00000000000E+00 0.  1.
        -13    1    5    5    0    0 -0.61749983772E+02  0.88778514053E+02 -0.57899802131E+03  0.58901052090E+03  0.00000000000E+00 0. -1.
          2    1    6    6  503    0 -0.37099586197E+01  0.16876795592E+02  0.58930465772E+02  0.61411642369E+02  0.00000000000E+00 0. -1.
         -2    1    6    6    0  503  0.58661290104E+02  0.15848966700E+03  0.89964049288E+02  0.19145143423E+03  0.00000000000E+00 0.  1.
<mgrwt>
<rscale>  0 0.14356127E+04</rscale>
<asrwt>0</asrwt>
<pdfrwt beam="1">  1        2 0.57143563E-01 0.14356127E+04</pdfrwt>
<pdfrwt beam="2">  1       -1 0.21341284E+00 0.14356127E+04</pdfrwt>
<totfact> 0.11706409E+01</totfact>
</mgrwt>
</event>
<event>
12    7  0.1675873E-007  0.1022968E+04  0.7818608E-02  0.9283706E-01
         -1   -1    0    0    0  501 -0.00000000000E+00  0.00000000000E+00  0.43673022307E+03  0.43673022307E+03  0.00000000000E+00 0.  1.
          2   -1    0    0  501    0  0.00000000000E+00 -0.00000000000E+00 -0.59903338199E+03  0.59903338199E+03  0.00000000000E+00 0. -1.
         24    2    1    2    0    0 -0.43002883622E+02 -0.43648709612E+02  0.33541839532E+02  0.10770385774E+03  0.81979315208E+02 0.  0.
        254    2    1    2    0    0  0.43002883622E+02  0.43648709612E+02 -0.19584499844E+03  0.92805974732E+03  0.90508848923E+03 0.  0.
         23    2    4    4    0    0  0.31924206703E+03  0.67175581049E+01  0.23511103288E+03  0.40695148804E+03  0.91496955628E+02 0.  0.
         23    2    4    4    0    0 -0.27623918341E+03  0.36931151507E+02 -0.43095603132E+03  0.52110825928E+03  0.90325636213E+02 0.  0.
          2    1    3    3  502    0  0.14704823885E+02 -0.99787619071E+01 -0.16483769008E+02  0.24238856726E+02  0.00000000000E+00 0. -1.
         -1    1    3    3    0  502 -0.57707707508E+02 -0.33669947705E+02  0.50025608540E+02  0.83465001013E+02  0.00000000000E+00 0.  1.
         13    1    5    5    0    0  0.18971045653E+03  0.24567906704E+02  0.18731970840E+03  0.26773552718E+03  0.00000000000E+00 0. -1.
        -13    1    5    5    0    0  0.12953161050E+03 -0.17850348599E+02  0.47791324473E+02  0.13921596087E+03  0.00000000000E+00 0.  1.
          1    1    6    6  503    0 -0.27953269902E+03  0.37457216840E+02 -0.43332141878E+03  0.51701936607E+03  0.00000000000E+00 0. -1.
         -1    1    6    6    0  503  0.32935156136E+01 -0.52606533320E+00  0.23653874629E+01  0.40888932098E+01  0.00000000000E+00 0.  1.
<mgrwt>
<rscale>  0 0.10229682E+04</rscale>
<asrwt>0</asrwt>
<pdfrwt beam="1">  1        2 0.92158981E-01 0.10229682E+04</pdfrwt>
<pdfrwt beam="2">  1       -1 0.67189265E-01 0.10229682E+04</pdfrwt>
<totfact> 0.12709868E+02</totfact>
</mgrwt>
</event>
<event>
12    7  0.1675873E-007  0.1765973E+04  0.7818608E-02  0.8724607E-01
          2   -1    0    0  501    0  0.00000000000E+00  0.00000000000E+00  0.13010603079E+04  0.13010603079E+04  0.00000000000E+00 0. -1.
         -1   -1    0    0    0  501 -0.00000000000E+00 -0.00000000000E+00 -0.59925386168E+03  0.59925386168E+03  0.00000000000E+00 0.  1.
         24    2    1    2    0    0 -0.36231386824E+03 -0.28682048098E+03 -0.23979091988E+03  0.52701224774E+03  0.81883432901E+02 0.  0.
        254    2    1    2    0    0  0.36231386824E+03  0.28682048098E+03  0.94159736610E+03  0.13733019218E+04  0.88646220521E+03 0.  0.
         23    2    4    4    0    0  0.35818846924E+03  0.45009463511E+03  0.21160034665E+03  0.61971782153E+03  0.91604102341E+02 0.  0.
         23    2    4    4    0    0  0.41253990075E+01 -0.16327415413E+03  0.72999701945E+03  0.75358410031E+03  0.91202409628E+02 0.  0.
          2    1    3    3  502    0 -0.60985920053E+02 -0.90169659966E+02 -0.44394222584E+02  0.11756146062E+03  0.00000000000E+00 0. -1.
         -1    1    3    3    0  502 -0.30132794819E+03 -0.19665082102E+03 -0.19539669729E+03  0.40945078713E+03  0.00000000000E+00 0.  1.
         13    1    5    5    0    0  0.20973659467E+02  0.55631096203E+02  0.45374141544E+02  0.74789878841E+02  0.00000000000E+00 0. -1.
        -13    1    5    5    0    0  0.33721480977E+03  0.39446353891E+03  0.16622620511E+03  0.54492794269E+03  0.00000000000E+00 0.  1.
          1    1    6    6  503    0  0.31592098957E+02 -0.12803887545E+02  0.13738262402E+03  0.14154852749E+03  0.00000000000E+00 0. -1.
         -1    1    6    6    0  503 -0.27466699949E+02 -0.15047026658E+03  0.59261439543E+03  0.61203557282E+03  0.00000000000E+00 0.  1.
<mgrwt>
<rscale>  0 0.17659733E+04</rscale>
<asrwt>0</asrwt>
<pdfrwt beam="1">  1        2 0.20016312E+00 0.17659733E+04</pdfrwt>
<pdfrwt beam="2">  1       -1 0.92192902E-01 0.17659733E+04</pdfrwt>
<totfact> 0.20400659E+01</totfact>
</mgrwt>
</event>
<event>
12    7  0.1675873E-007  0.2173095E+04  0.7818608E-02  0.8529711E-01
         -1   -1    0    0    0  501 -0.00000000000E+00  0.00000000000E+00  0.94080107246E+03  0.94080107246E+03  0.00000000000E+00 0.  1.
          2   -1    0    0  501    0  0.00000000000E+00 -0.00000000000E+00 -0.12548725314E+04  0.12548725314E+04  0.00000000000E+00 0. -1.
         24    2    1    2    0    0  0.57943024009E+03  0.60837473849E+03  0.19131908171E+03  0.86550669076E+03  0.81483833682E+02 0.  0.
        254    2    1    2    0    0 -0.57943024009E+03 -0.60837473849E+03 -0.50539054062E+03  0.13301669131E+04  0.89892446431E+03 0.  0.
         23    2    4    4    0    0 -0.49810074433E+03 -0.27876770616E+02  0.58972818440E+02  0.51088737109E+03  0.92987347432E+02 0.  0.
         23    2    4    4    0    0 -0.81329495757E+02 -0.58049796787E+03 -0.56436335906E+03  0.81927954199E+03  0.95501776330E+02 0.  0.
          4    1    3    3  502    0  0.18642803207E+03  0.24018037411E+03  0.44190878058E+02  0.30723746020E+03  0.00000000000E+00 0. -1.
         -3    1    3    3    0  502  0.39300220802E+03  0.36819436438E+03  0.14712820365E+03  0.55826923056E+03  0.00000000000E+00 0.  1.
         13    1    5    5    0    0 -0.37268407419E+03 -0.57227152569E+02  0.26105281343E+02  0.37795482780E+03  0.00000000000E+00 0. -1.
        -13    1    5    5    0    0 -0.12541667014E+03  0.29350381953E+02  0.32867537097E+02  0.13293254329E+03  0.00000000000E+00 0.  1.
          3    1    6    6  503    0 -0.77213559787E+01 -0.68144382964E+02 -0.28559262782E+02  0.74289351581E+02  0.00000000000E+00 0. -1.
         -3    1    6    6    0  503 -0.73608139778E+02 -0.51235358491E+03 -0.53580409628E+03  0.74499019041E+03  0.00000000000E+00 0.  1.
<mgrwt>
<rscale>  0 0.21730950E+04</rscale>
<asrwt>0</asrwt>
<pdfrwt beam="1">  1        2 0.19305731E+00 0.21730950E+04</pdfrwt>
<pdfrwt beam="2">  1       -1 0.14473863E+00 0.21730950E+04</pdfrwt>
<totfact> 0.70443578E+00</totfact>
</mgrwt>
</event>
<event>
12    7  0.1675873E-007  0.1334707E+04  0.7818608E-02  0.9002486E-01
         -3   -1    0    0    0  501 -0.00000000000E+00  0.00000000000E+00  0.30591448865E+03  0.30591448865E+03  0.00000000000E+00 0.  1.
          2   -1    0    0  501    0  0.00000000000E+00 -0.00000000000E+00 -0.14558342503E+04  0.14558342503E+04  0.00000000000E+00 0. -1.
         24    2    1    2    0    0 -0.28494846450E+03  0.10825194026E+03 -0.16420946500E+03  0.35532050612E+03  0.79836105162E+02 0.  0.
        254    2    1    2    0    0  0.28494846450E+03 -0.10825194026E+03 -0.98571029660E+03  0.14064282328E+04  0.95577271104E+03 0.  0.
         23    2    4    4    0    0 -0.46434500140E+02 -0.40602181792E+03 -0.13204615705E+03  0.43909768423E+03  0.91436914133E+02 0.  0.
         23    2    4    4    0    0  0.33138296464E+03  0.29776987766E+03 -0.85366413955E+03  0.96733054856E+03  0.92219074691E+02 0.  0.
          2    1    3    3  502    0 -0.91091884997E+02  0.42368883205E+02 -0.97459119384E+02  0.13996833116E+03  0.00000000000E+00 0. -1.
         -1    1    3    3    0  502 -0.19385657950E+03  0.65883057057E+02 -0.66750345618E+02  0.21535217497E+03  0.00000000000E+00 0.  1.
         13    1    5    5    0    0 -0.17617158376E+02 -0.37549217122E+03 -0.12716846405E+03  0.39683315532E+03  0.00000000000E+00 0. -1.
        -13    1    5    5    0    0 -0.28817341765E+02 -0.30529646708E+02 -0.48776930068E+01  0.42264528905E+02  0.00000000000E+00 0.  1.
          3    1    6    6  503    0  0.92666377632E+02  0.14235701175E+03 -0.30356422836E+03  0.34785602924E+03  0.00000000000E+00 0. -1.
         -3    1    6    6    0  503  0.23871658700E+03  0.15541286591E+03 -0.55009991119E+03  0.61947451932E+03  0.00000000000E+00 0.  1.
<mgrwt>
<rscale>  0 0.13347071E+04</rscale>
<asrwt>0</asrwt>
<pdfrwt beam="1">  1        2 0.22397450E+00 0.13347071E+04</pdfrwt>
<pdfrwt beam="2">  1       -3 0.47063767E-01 0.13347071E+04</pdfrwt>
<totfact> 0.37799616E+01</totfact>
</mgrwt>
</event>
<event>
12    7  0.1675873E-007  0.1985862E+04  0.7818608E-02  0.8613259E-01
         -3   -1    0    0    0  501 -0.00000000000E+00  0.00000000000E+00  0.64617768068E+03  0.64617768068E+03  0.00000000000E+00 0.  1.
          2   -1    0    0  501    0  0.00000000000E+00 -0.00000000000E+00 -0.15257594581E+04  0.15257594581E+04  0.00000000000E+00 0. -1.
         24    2    1    2    0    0 -0.54524078414E+03 -0.23142467330E+03 -0.93117093699E+03  0.11064358078E+04  0.79221151350E+02 0.  0.
        254    2    1    2    0    0  0.54524078414E+03  0.23142467330E+03  0.51589159554E+02  0.10655013310E+04  0.88418705760E+03 0.  0.
         23    2    4    4    0    0 -0.18501891863E+03  0.58708566815E+02  0.20076256578E+03  0.29423278653E+03  0.92674855193E+02 0.  0.
         23    2    4    4    0    0  0.73025970277E+03  0.17271610649E+03 -0.14917340623E+03  0.77126854445E+03  0.97428823225E+02 0.  0.
          2    1    3    3  502    0 -0.53907062048E+03 -0.22785438240E+03 -0.89358749057E+03  0.10681822676E+04  0.00000000000E+00 0. -1.
         -1    1    3    3    0  502 -0.61701636623E+01 -0.35702909028E+01 -0.37583446428E+02  0.38253540257E+02  0.00000000000E+00 0.  1.
         13    1    5    5    0    0 -0.17320324440E+02  0.14524862321E+01  0.74872670958E+02  0.76863646878E+02  0.00000000000E+00 0.  1.
        -13    1    5    5    0    0 -0.16769859419E+03  0.57256080583E+02  0.12588989482E+03  0.21736913966E+03  0.00000000000E+00 0. -1.
          2    1    6    6  503    0  0.59603468095E+03  0.10825840672E+03 -0.14194056728E+03  0.62219317592E+03  0.00000000000E+00 0. -1.
         -2    1    6    6    0  503  0.13422502183E+03  0.64457699765E+02 -0.72328389410E+01  0.14907536853E+03  0.00000000000E+00 0.  1.
<mgrwt>
<rscale>  0 0.19858617E+04</rscale>
<asrwt>0</asrwt>
<pdfrwt beam="1">  1        2 0.23473222E+00 0.19858617E+04</pdfrwt>
<pdfrwt beam="2">  1       -3 0.99411952E-01 0.19858617E+04</pdfrwt>
<totfact> 0.64381332E+00</totfact>
</mgrwt>
</event>
<event>
12    7  0.1675873E-007  0.1166712E+04  0.7818608E-02  0.9142503E-01
          2   -1    0    0  501    0  0.00000000000E+00  0.00000000000E+00  0.78069175576E+03  0.78069175576E+03  0.00000000000E+00 0. -1.
         -1   -1    0    0    0  501 -0.00000000000E+00 -0.00000000000E+00 -0.43590075459E+03  0.43590075459E+03  0.00000000000E+00 0.  1.
         24    2    1    2    0    0 -0.10607748295E+03 -0.20030016450E+03  0.84294286427E+02  0.25352470694E+03  0.76135812977E+02 0.  0.
        254    2    1    2    0    0  0.10607748295E+03  0.20030016450E+03  0.26049671474E+03  0.96306780341E+03  0.89903752273E+03 0.  0.
         23    2    4    4    0    0 -0.81385942262E+02  0.24183830970E+03 -0.27533288561E+03  0.38665534779E+03  0.92653766493E+02 0.  0.
         23    2    4    4    0    0  0.18746342521E+03 -0.41538145197E+02  0.53582960035E+03  0.57641245561E+03  0.90939568272E+02 0.  0.
          2    1    3    3  502    0 -0.47362276230E+02 -0.56522559155E+02  0.62564755292E+02  0.96707463559E+02  0.00000000000E+00 0. -1.
         -1    1    3    3    0  502 -0.58715206723E+02 -0.14377760535E+03  0.21729531135E+02  0.15681724338E+03  0.00000000000E+00 0.  1.
         13    1    5    5    0    0 -0.69442647303E+02  0.67911679505E+02 -0.98256283606E+02  0.13816140831E+03  0.00000000000E+00 0. -1.
        -13    1    5    5    0    0 -0.11943294959E+02  0.17392663019E+03 -0.17707660200E+03  0.24849393948E+03  0.00000000000E+00 0.  1.
          3    1    6    6  503    0  0.14019294666E+03  0.71847387796E+01  0.30395658076E+03  0.33480634067E+03  0.00000000000E+00 0. -1.
         -3    1    6    6    0  503  0.47270478555E+02 -0.48722883977E+02  0.23187301959E+03  0.24160611495E+03  0.00000000000E+00 0.  1.
<mgrwt>
<rscale>  0 0.11667118E+04</rscale>
<asrwt>0</asrwt>
<pdfrwt beam="1">  1        2 0.12010642E+00 0.11667118E+04</pdfrwt>
<pdfrwt beam="2">  1       -1 0.67061655E-01 0.11667118E+04</pdfrwt>
<totfact> 0.90503886E+01</totfact>
</mgrwt>
</event>
<event>
12    7  0.1675873E-007  0.1266175E+04  0.7818608E-02  0.9056827E-01
          2   -1    0    0  501    0  0.00000000000E+00  0.00000000000E+00  0.21774360738E+03  0.21774360738E+03  0.00000000000E+00 0. -1.
         -1   -1    0    0    0  501 -0.00000000000E+00 -0.00000000000E+00 -0.18406955773E+04  0.18406955773E+04  0.00000000000E+00 0.  1.
         24    2    1    2    0    0  0.20172736561E+03 -0.22373437056E+03 -0.46811964517E+03  0.56211532872E+03  0.78016933950E+02 0.  0.
        254    2    1    2    0    0 -0.20172736561E+03  0.22373437056E+03 -0.11548323247E+04  0.14963238560E+04  0.90254993492E+03 0.  0.
         23    2    4    4    0    0 -0.51426214110E+03  0.71443268680E+01 -0.44594493957E+03  0.68647700802E+03  0.88697250405E+02 0.  0.
         23    2    4    4    0    0  0.31253477549E+03  0.21659004369E+03 -0.70888738516E+03  0.80984684793E+03  0.93495237047E+02 0.  0.
          2    1    3    3  502    0  0.89319776318E+02 -0.85683062332E+02 -0.12701761765E+03  0.17735017566E+03  0.00000000000E+00 0. -1.
         -1    1    3    3    0  502  0.11240758929E+03 -0.13805130823E+03 -0.34110202752E+03  0.38476515307E+03  0.00000000000E+00 0.  1.
         13    1    5    5    0    0 -0.64966716747E+02  0.28171296127E+02 -0.44788978885E+02  0.83787521982E+02  0.00000000000E+00 0. -1.
        -13    1    5    5    0    0 -0.44929542435E+03 -0.21026969259E+02 -0.40115596069E+03  0.60268948604E+03  0.00000000000E+00 0.  1.
          3    1    6    6  503    0  0.20286370982E+03  0.87937605780E+02 -0.36727198376E+03  0.42869035133E+03  0.00000000000E+00 0. -1.
         -3    1    6    6    0  503  0.10967106567E+03  0.12865243791E+03 -0.34161540141E+03  0.38115649660E+03  0.00000000000E+00 0.  1.
<mgrwt>
<rscale>  0 0.12661749E+04</rscale>
<asrwt>0</asrwt>
<pdfrwt beam="1">  1        2 0.33499017E-01 0.12661749E+04</pdfrwt>
<pdfrwt beam="2">  1       -1 0.28318393E+00 0.12661749E+04</pdfrwt>
<totfact> 0.75469938E+00</totfact>
</mgrwt>
</event>
<event>
12    7  0.1675873E-007  0.1561731E+04  0.7818608E-02  0.8844409E-01
         -1   -1    0    0    0  501 -0.00000000000E+00  0.00000000000E+00  0.20146873821E+03  0.20146873821E+03  0.00000000000E+00 0.  1.
          2   -1    0    0  501    0  0.00000000000E+00 -0.00000000000E+00 -0.30265280500E+04  0.30265280500E+04  0.00000000000E+00 0. -1.
         24    2    1    2    0    0  0.82450784177E+00 -0.49109998630E+03 -0.11727211672E+04  0.12738139418E+04  0.78403736843E+02 0.  0.
        254    2    1    2    0    0 -0.82450784177E+00  0.49109998630E+03 -0.16523381446E+04  0.19541828464E+04  0.92055927393E+03 0.  0.
         23    2    4    4    0    0  0.10859508942E+03  0.69155628115E+03 -0.15141175153E+04  0.16705958059E+04  0.91079707662E+02 0.  0.
         23    2    4    4    0    0 -0.10941959726E+03 -0.20045629485E+03 -0.13822062928E+03  0.28358704050E+03  0.95714642419E+02 0.  0.
          2    1    3    3  502    0 -0.21956092635E+02 -0.48615881706E+02 -0.10382605092E+03  0.11672798640E+03  0.00000000000E+00 0. -1.
         -1    1    3    3    0  502  0.22780600477E+02 -0.44248410460E+03 -0.10688951162E+04  0.11570859554E+04  0.00000000000E+00 0.  1.
         13    1    5    5    0    0  0.43719494308E+02  0.81956038106E+02 -0.19875157211E+03  0.21938635732E+03  0.00000000000E+00 0. -1.
        -13    1    5    5    0    0  0.64875595108E+02  0.60960024304E+03 -0.13153659432E+04  0.14512094486E+04  0.00000000000E+00 0.  1.
          4    1    6    6  503    0 -0.44843529699E+02 -0.30078423318E+02 -0.71393189661E+02  0.89513357859E+02  0.00000000000E+00 0. -1.
         -4    1    6    6    0  503 -0.64576067559E+02 -0.17037787153E+03 -0.66827439619E+02  0.19407368264E+03  0.00000000000E+00 0.  1.
<mgrwt>
<rscale>  0 0.15617308E+04</rscale>
<asrwt>0</asrwt>
<pdfrwt beam="1">  1        2 0.46561968E+00 0.15617308E+04</pdfrwt>
<pdfrwt beam="2">  1       -1 0.30995192E-01 0.15617308E+04</pdfrwt>
<totfact> 0.17796346E+01</totfact>
</mgrwt>
</event>
<event>
12    7  0.1675873E-007  0.3701557E+04  0.7818608E-02  0.8067617E-01
          2   -1    0    0  501    0  0.00000000000E+00  0.00000000000E+00  0.25124021021E+04  0.25124021021E+04  0.00000000000E+00 0. -1.
         -1   -1    0    0    0  501 -0.00000000000E+00 -0.00000000000E+00 -0.13633888564E+04  0.13633888564E+04  0.00000000000E+00 0.  1.
         24    2    1    2    0    0  0.60511752863E+03 -0.24964635722E+03 -0.11481338830E+04  0.13241482487E+04  0.81649520533E+02 0.  0.
        254    2    1    2    0    0 -0.60511752863E+03  0.24964635722E+03  0.22971471287E+04  0.25516427098E+04  0.89749933727E+03 0.  0.
         23    2    4    4    0    0 -0.51330618308E+03  0.33860893665E+03  0.65757212668E+03  0.90458017548E+03  0.87891652149E+02 0.  0.
         23    2    4    4    0    0 -0.91811345550E+02 -0.88962579432E+02  0.16395750020E+04  0.16470625343E+04  0.90912820697E+02 0.  0.
          4    1    3    3  502    0 -0.16148886419E+00 -0.17504834169E+01 -0.20293647173E+02  0.20369643748E+02  0.00000000000E+00 0. -1.
         -3    1    3    3    0  502  0.60527901750E+03 -0.24789587380E+03 -0.11278402358E+04  0.13037786050E+04  0.00000000000E+00 0.  1.
         13    1    5    5    0    0 -0.29592761296E+03  0.17457145557E+03  0.42459138290E+03  0.54619244562E+03  0.00000000000E+00 0. -1.
        -13    1    5    5    0    0 -0.21737857012E+03  0.16403748108E+03  0.23298074377E+03  0.35838772986E+03  0.00000000000E+00 0.  1.
          3    1    6    6  503    0 -0.61319568478E+02 -0.10367597187E+03  0.13885629243E+04  0.13937775257E+04  0.00000000000E+00 0. -1.
         -3    1    6    6    0  503 -0.30491777072E+02  0.14713392437E+02  0.25101207774E+03  0.25328500855E+03  0.00000000000E+00 0.  1.
<mgrwt>
<rscale>  0 0.37015570E+04</rscale>
<asrwt>0</asrwt>
<pdfrwt beam="1">  1        2 0.38652340E+00 0.37015570E+04</pdfrwt>
<pdfrwt beam="2">  1       -1 0.20975213E+00 0.37015570E+04</pdfrwt>
<totfact> 0.40587123E-01</totfact>
</mgrwt>
</event>
<event>
12    7  0.1675873E-007  0.1516620E+04  0.7818608E-02  0.8873475E-01
          2   -1    0    0  501    0  0.00000000000E+00  0.00000000000E+00  0.11112532334E+04  0.11112532334E+04  0.00000000000E+00 0. -1.
         -1   -1    0    0    0  501 -0.00000000000E+00 -0.00000000000E+00 -0.51746439619E+03  0.51746439619E+03  0.00000000000E+00 0.  1.
         24    2    1    2    0    0  0.21869999689E+03 -0.40495399107E+02 -0.27175132142E+03  0.36032402103E+03  0.80715880996E+02 0.  0.
        254    2    1    2    0    0 -0.21869999689E+03  0.40495399107E+02  0.86554015861E+03  0.12683936086E+04  0.90010722365E+03 0.  0.
         23    2    4    4    0    0 -0.34339713526E+03  0.13392493880E+03  0.98293868163E+03  0.10546578342E+04  0.10137659345E+03 0.  0.
         23    2    4    4    0    0  0.12469713836E+03 -0.93429539691E+02 -0.11739852301E+03  0.21373577434E+03  0.87304712501E+02 0.  0.
          4    1    3    3  502    0 -0.31652687527E+01 -0.93745554905E+01 -0.25792727163E+02  0.27625459117E+02  0.00000000000E+00 0. -1.
         -3    1    3    3    0  502  0.22186526565E+03 -0.31120843617E+02 -0.24595859426E+03  0.33269856191E+03  0.00000000000E+00 0.  1.
         13    1    5    5    0    0 -0.62736769801E+02 -0.12765605134E+02  0.20379978584E+03  0.21361932419E+03  0.00000000000E+00 0. -1.
        -13    1    5    5    0    0 -0.28066036546E+03  0.14669054393E+03  0.77913889579E+03  0.84103851003E+03  0.00000000000E+00 0.  1.
          2    1    6    6  503    0  0.15383023980E+02  0.36999981004E+01  0.10889304617E+02  0.19206883343E+02  0.00000000000E+00 0. -1.
         -2    1    6    6    0  503  0.10931411438E+03 -0.97129537792E+02 -0.12828782763E+03  0.19452889100E+03  0.00000000000E+00 0.  1.
<mgrwt>
<rscale>  0 0.15166199E+04</rscale>
<asrwt>0</asrwt>
<pdfrwt beam="1">  1        2 0.17096204E+00 0.15166199E+04</pdfrwt>
<pdfrwt beam="2">  1       -1 0.79609907E-01 0.15166199E+04</pdfrwt>
<totfact> 0.37201771E+01</totfact>
</mgrwt>
</event>
<event>
12    7  0.1675873E-007  0.1138823E+04  0.7818608E-02  0.9168158E-01
         -1   -1    0    0    0  501 -0.00000000000E+00  0.00000000000E+00  0.14205970242E+04  0.14205970242E+04  0.00000000000E+00 0.  1.
          2   -1    0    0  501    0  0.00000000000E+00 -0.00000000000E+00 -0.22823446454E+03  0.22823446454E+03  0.00000000000E+00 0. -1.
         24    2    1    2    0    0  0.61424178703E+02  0.60467456709E+02 -0.36091611312E+02  0.12248510022E+03  0.79188081928E+02 0.  0.
        254    2    1    2    0    0 -0.61424178703E+02 -0.60467456709E+02  0.12284541710E+04  0.15263463886E+04  0.90177846755E+03 0.  0.
         23    2    4    4    0    0 -0.17544993114E+02 -0.45960378454E+03  0.83130941890E+03  0.95447930232E+03  0.91716536406E+02 0.  0.
         23    2    4    4    0    0 -0.43879185588E+02  0.39913632783E+03  0.39714475211E+03  0.57186708624E+03  0.89848867936E+02 0.  0.
          4    1    3    3  502    0  0.37207262740E+02  0.77630682036E+02 -0.34555739254E+02  0.92763151679E+02  0.00000000000E+00 0. -1.
         -3    1    3    3    0  502  0.24216915963E+02 -0.17163225326E+02 -0.15358720576E+01  0.29721948545E+02  0.00000000000E+00 0.  1.
         13    1    5    5    0    0  0.16839543636E+02 -0.30183526324E+03  0.47137018324E+03  0.55998030860E+03  0.00000000000E+00 0. -1.
        -13    1    5    5    0    0 -0.34384536751E+02 -0.15776852131E+03  0.35993923566E+03  0.39449899372E+03  0.00000000000E+00 0.  1.
          2    1    6    6  503    0 -0.66113519256E+02  0.27038960671E+03  0.29858216632E+03  0.40820686776E+03  0.00000000000E+00 0. -1.
         -2    1    6    6    0  503  0.22234333667E+02  0.12874672112E+03  0.98562585797E+02  0.16366021848E+03  0.00000000000E+00 0.  1.
<mgrwt>
<rscale>  0 0.11388226E+04</rscale>
<asrwt>0</asrwt>
<pdfrwt beam="1">  1        2 0.35112995E-01 0.11388226E+04</pdfrwt>
<pdfrwt beam="2">  1       -1 0.21855338E+00 0.11388226E+04</pdfrwt>
<totfact> 0.19088606E+01</totfact>
</mgrwt>
</event>
<event>
12    7  0.1675873E-007  0.1951481E+04  0.7818608E-02  0.8629647E-01
          2   -1    0    0  501    0  0.00000000000E+00  0.00000000000E+00  0.10505504917E+04  0.10505504917E+04  0.00000000000E+00 0. -1.
         -1   -1    0    0    0  501 -0.00000000000E+00 -0.00000000000E+00 -0.90625810040E+03  0.90625810040E+03  0.00000000000E+00 0.  1.
         24    2    1    2    0    0 -0.12907329897E+03  0.11161235809E+03  0.80651106832E+03  0.82787160820E+03  0.76118731931E+02 0.  0.
        254    2    1    2    0    0  0.12907329897E+03 -0.11161235809E+03 -0.66221867707E+03  0.11289369839E+04  0.89824712761E+03 0.  0.
         23    2    4    4    0    0 -0.10585823070E+03  0.28012092930E+03  0.75146128671E+01  0.31315286827E+03  0.91293753673E+02 0.  0.
         23    2    4    4    0    0  0.23493152967E+03 -0.39173328739E+03 -0.66973328994E+03  0.81578411558E+03  0.91177033861E+02 0.  0.
          4    1    3    3  502    0 -0.12013441904E+03  0.11074738028E+03  0.80063947395E+03  0.81714186536E+03  0.00000000000E+00 0. -1.
         -3    1    3    3    0  502 -0.89388799237E+01  0.86497781556E+00  0.58715943711E+01  0.10729742838E+02  0.00000000000E+00 0.  1.
         13    1    5    5    0    0 -0.67520593951E+02  0.25863154965E+03 -0.53684744437E+01  0.26735394068E+03  0.00000000000E+00 0. -1.
        -13    1    5    5    0    0 -0.38337636750E+02  0.21489379652E+02  0.12883087311E+02  0.45798927586E+02  0.00000000000E+00 0.  1.
          4    1    6    6  503    0  0.23901244160E+03 -0.37659044657E+03 -0.66214188768E+03  0.79836031408E+03  0.00000000000E+00 0. -1.
         -4    1    6    6    0  503 -0.40809119326E+01 -0.15142840824E+02 -0.75914022597E+01  0.17423801499E+02  0.00000000000E+00 0.  1.
<mgrwt>
<rscale>  0 0.19514814E+04</rscale>
<asrwt>0</asrwt>
<pdfrwt beam="1">  1        2 0.16162315E+00 0.19514814E+04</pdfrwt>
<pdfrwt beam="2">  1       -1 0.13942432E+00 0.19514814E+04</pdfrwt>
<totfact> 0.10543940E+01</totfact>
</mgrwt>
</event>
<event>
12    7  0.1675873E-007  0.1132886E+04  0.7818608E-02  0.9173719E-01
         -1   -1    0    0    0  501 -0.00000000000E+00  0.00000000000E+00  0.25622947621E+03  0.25622947621E+03  0.00000000000E+00 0.  1.
          2   -1    0    0  501    0  0.00000000000E+00 -0.00000000000E+00 -0.12522275545E+04  0.12522275545E+04  0.00000000000E+00 0. -1.
         24    2    1    2    0    0 -0.70414895305E+02 -0.70620931599E+02  0.36148865218E+02  0.13143243568E+03  0.77602649639E+02 0.  0.
        254    2    1    2    0    0  0.70414895305E+02  0.70620931599E+02 -0.10321469435E+04  0.13770245950E+04  0.90604848042E+03 0.  0.
         23    2    4    4    0    0  0.34576127512E+03  0.13490670229E+03 -0.95955468854E+02  0.39395896189E+03  0.90804922546E+02 0.  0.
         23    2    4    4    0    0 -0.27534637981E+03 -0.64285770689E+02 -0.93619147467E+03  0.98306563316E+03  0.10007633417E+03 0.  0.
          2    1    3    3  502    0 -0.17202870970E+02 -0.12006333945E+02 -0.24097532981E+02  0.31949677935E+02  0.00000000000E+00 0. -1.
         -1    1    3    3    0  502 -0.53212024335E+02 -0.58614597654E+02  0.60246398200E+02  0.99482757743E+02  0.00000000000E+00 0.  1.
         13    1    5    5    0    0  0.24106275933E+03  0.47481444878E+02 -0.61552789347E+02  0.25328736135E+03  0.00000000000E+00 0. -1.
        -13    1    5    5    0    0  0.10469851578E+03  0.87425257410E+02 -0.34402679507E+02  0.14067160054E+03  0.00000000000E+00 0.  1.
          3    1    6    6  503    0 -0.16707348209E+03 -0.36193609619E+01 -0.41683775450E+03  0.44908836744E+03  0.00000000000E+00 0. -1.
         -3    1    6    6    0  503 -0.10827289772E+03 -0.60666409727E+02 -0.51935372017E+03  0.53397726572E+03  0.00000000000E+00 0.  1.
<mgrwt>
<rscale>  0 0.11328859E+04</rscale>
<asrwt>0</asrwt>
<pdfrwt beam="1">  1        2 0.19265040E+00 0.11328859E+04</pdfrwt>
<pdfrwt beam="2">  1       -1 0.39419919E-01 0.11328859E+04</pdfrwt>
<totfact> 0.12450633E+02</totfact>
</mgrwt>
</event>
<event>
12    7  0.1675873E-007  0.2561870E+04  0.7818608E-02  0.8381270E-01
         -1   -1    0    0    0  501 -0.00000000000E+00  0.00000000000E+00  0.99559583731E+03  0.99559583731E+03  0.00000000000E+00 0.  1.
          2   -1    0    0  501    0  0.00000000000E+00 -0.00000000000E+00 -0.16480527844E+04  0.16480527844E+04  0.00000000000E+00 0. -1.
         24    2    1    2    0    0  0.95748399229E+03 -0.63893457853E+01 -0.87987597758E+03  0.13029360061E+04  0.81511232175E+02 0.  0.
        254    2    1    2    0    0 -0.95748399229E+03  0.63893457853E+01  0.22741903045E+03  0.13407126156E+04  0.91048035837E+03 0.  0.
         23    2    4    4    0    0 -0.49374236996E+03 -0.41278110783E+03  0.27781787098E+03  0.70693687643E+03  0.91690822544E+02 0.  0.
         23    2    4    4    0    0 -0.46374162233E+03  0.41917045361E+03 -0.50398840531E+02  0.63377573917E+03  0.91495808484E+02 0.  0.
          2    1    3    3  502    0  0.66831960012E+03 -0.17896921044E+02 -0.66036774887E+03  0.93971109998E+03  0.00000000000E+00 0. -1.
         -1    1    3    3    0  502  0.28916439217E+03  0.11507575259E+02 -0.21950822871E+03  0.36322490617E+03  0.00000000000E+00 0.  1.
         13    1    5    5    0    0 -0.14903743387E+03 -0.11567270243E+03  0.12739359448E+03  0.22764327070E+03  0.00000000000E+00 0.  1.
        -13    1    5    5    0    0 -0.34470493609E+03 -0.29710840540E+03  0.15042427650E+03  0.47929360572E+03  0.00000000000E+00 0. -1.
          3    1    6    6  503    0 -0.38399997021E+03  0.38126528742E+03 -0.62230270872E+02  0.54469422902E+03  0.00000000000E+00 0. -1.
         -3    1    6    6    0  503 -0.79741652119E+02  0.37905166191E+02  0.11831430342E+02  0.89081510150E+02  0.00000000000E+00 0.  1.
<mgrwt>
<rscale>  0 0.25618700E+04</rscale>
<asrwt>0</asrwt>
<pdfrwt beam="1">  1        2 0.25354658E+00 0.25618700E+04</pdfrwt>
<pdfrwt beam="2">  1       -1 0.15316859E+00 0.25618700E+04</pdfrwt>
<totfact> 0.34917009E+00</totfact>
</mgrwt>
</event>
<event>
12    7  0.1675873E-007  0.2225264E+04  0.7818608E-02  0.8507986E-01
          2   -1    0    0  501    0  0.00000000000E+00  0.00000000000E+00  0.97287374706E+03  0.97287374706E+03  0.00000000000E+00 0. -1.
         -1   -1    0    0    0  501 -0.00000000000E+00 -0.00000000000E+00 -0.12724669649E+04  0.12724669649E+04  0.00000000000E+00 0.  1.
         24    2    1    2    0    0 -0.19569912213E+03 -0.69808325865E+03 -0.71363167117E+03  0.10201915848E+04  0.76826591049E+02 0.  0.
        254    2    1    2    0    0  0.19569912213E+03  0.69808325865E+03  0.41403845331E+03  0.12251491272E+04  0.89662933296E+03 0.  0.
         23    2    4    4    0    0  0.18206970539E+02  0.24149807285E+03 -0.27320094983E+03  0.37636780569E+03  0.91439341682E+02 0.  0.
         23    2    4    4    0    0  0.17749215160E+03  0.45658518580E+03  0.68723940315E+03  0.84878132153E+03  0.90322969270E+02 0.  0.
          2    1    3    3  502    0  0.70245616353E+01 -0.33325821588E+02 -0.31969710360E+02  0.46712067297E+02  0.00000000000E+00 0. -1.
         -1    1    3    3    0  502 -0.20272368377E+03 -0.66475743706E+03 -0.68166196081E+03  0.97347951746E+03  0.00000000000E+00 0.  1.
         13    1    5    5    0    0  0.19718942958E+02  0.24827240492E+03 -0.25303982966E+03  0.35504531986E+03  0.00000000000E+00 0. -1.
        -13    1    5    5    0    0 -0.15119724196E+01 -0.67743320750E+01 -0.20161120170E+02  0.21322485834E+02  0.00000000000E+00 0.  1.
          4    1    6    6  503    0  0.97156736273E+02  0.33175557001E+03  0.42934891036E+03  0.55121835643E+03  0.00000000000E+00 0. -1.
         -4    1    6    6    0  503  0.80335415323E+02  0.12482961579E+03  0.25789049279E+03  0.29756296511E+03  0.00000000000E+00 0.  1.
<mgrwt>
<rscale>  0 0.22252638E+04</rscale>
<asrwt>0</asrwt>
<pdfrwt beam="1">  1        2 0.14967288E+00 0.22252638E+04</pdfrwt>
<pdfrwt beam="2">  1       -1 0.19576415E+00 0.22252638E+04</pdfrwt>
<totfact> 0.43936587E+00</totfact>
</mgrwt>
</event>
<event>
12    7  0.1675873E-007  0.2961173E+04  0.7818608E-02  0.8254906E-01
          2   -1    0    0  501    0  0.00000000000E+00  0.00000000000E+00  0.18313250146E+04  0.18313250146E+04  0.00000000000E+00 0. -1.
         -1   -1    0    0    0  501 -0.00000000000E+00 -0.00000000000E+00 -0.11970216895E+04  0.11970216895E+04  0.00000000000E+00 0.  1.
         24    2    1    2    0    0  0.96795379676E+03 -0.75134220186E+03 -0.27538559166E+03  0.12584304590E+04  0.79751734711E+02 0.  0.
        254    2    1    2    0    0 -0.96795379676E+03  0.75134220186E+03  0.90968891679E+03  0.17699162450E+04  0.89644851062E+03 0.  0.
         23    2    4    4    0    0 -0.73038617764E+03  0.43172782343E+02  0.27898955263E+03  0.78807329112E+03  0.88862163358E+02 0.  0.
         23    2    4    4    0    0 -0.23756761912E+03  0.70816941951E+03  0.63069936416E+03  0.98184295392E+03  0.91058211217E+02 0.  0.
          4    1    3    3  502    0 -0.12145368756E+01 -0.35404300537E+01 -0.18701544392E+00  0.37476285253E+01  0.00000000000E+00 0. -1.
         -3    1    3    3    0  502  0.96916833363E+03 -0.74780177180E+03 -0.27519857621E+03  0.12546828305E+04  0.00000000000E+00 0.  1.
         13    1    5    5    0    0 -0.19891759267E+03  0.12679050880E+02  0.34555134878E+02  0.20229440019E+03  0.00000000000E+00 0.  1.
        -13    1    5    5    0    0 -0.53146858497E+03  0.30493731463E+02  0.24443441775E+03  0.58577889093E+03  0.00000000000E+00 0. -1.
          3    1    6    6  503    0 -0.19453714965E+03  0.61986003105E+03  0.50823941670E+03  0.82485057155E+03  0.00000000000E+00 0. -1.
         -3    1    6    6    0  503 -0.43030469470E+02  0.88309388460E+02  0.12245994746E+03  0.15699238238E+03  0.00000000000E+00 0.  1.
<mgrwt>
<rscale>  0 0.29611726E+04</rscale>
<asrwt>0</asrwt>
<pdfrwt beam="1">  1        2 0.28174231E+00 0.29611726E+04</pdfrwt>
<pdfrwt beam="2">  1       -1 0.18415718E+00 0.29611726E+04</pdfrwt>
<totfact> 0.15743674E+00</totfact>
</mgrwt>
</event>
<event>
12    7  0.1675873E-007  0.3150945E+04  0.7818608E-02  0.8201894E-01
          2   -1    0    0  501    0  0.00000000000E+00  0.00000000000E+00  0.17284458201E+04  0.17284458201E+04  0.00000000000E+00 0. -1.
         -1   -1    0    0    0  501 -0.00000000000E+00 -0.00000000000E+00 -0.14360381108E+04  0.14360381108E+04  0.00000000000E+00 0.  1.
         24    2    1    2    0    0 -0.13607099997E+04 -0.89684384847E+02  0.50738170228E+03  0.14571742981E+04  0.79660222428E+02 0.  0.
        254    2    1    2    0    0  0.13607099997E+04  0.89684384847E+02 -0.21497399295E+03  0.17073096328E+04  0.10045483425E+04 0.  0.
         23    2    4    4    0    0  0.57629212204E+02 -0.19952193125E+03  0.20200490321E+03  0.30596491039E+03  0.98378952637E+02 0.  0.
         23    2    4    4    0    0  0.13030807875E+04  0.28920631610E+03 -0.41697889615E+03  0.14013447224E+04  0.90751303996E+02 0.  0.
          2    1    3    3  502    0 -0.13432512844E+04 -0.80696581035E+02  0.50534905371E+03  0.14374329958E+04  0.00000000000E+00 0. -1.
         -1    1    3    3    0  502 -0.17458715337E+02 -0.89878038125E+01  0.20326485701E+01  0.19741302358E+02  0.00000000000E+00 0.  1.
         13    1    5    5    0    0  0.26410248579E+02 -0.12970379148E+03  0.61415330264E+02  0.14591921582E+03  0.00000000000E+00 0. -1.
        -13    1    5    5    0    0  0.31218963625E+02 -0.69818139776E+02  0.14058957294E+03  0.16004569457E+03  0.00000000000E+00 0.  1.
          3    1    6    6  503    0  0.13010827686E+04  0.29164045071E+03 -0.41894085402E+03  0.13976344166E+04  0.00000000000E+00 0. -1.
         -3    1    6    6    0  503  0.19980189319E+01 -0.24341346109E+01  0.19619578641E+01  0.37103058657E+01  0.00000000000E+00 0.  1.
<mgrwt>
<rscale>  0 0.31509453E+04</rscale>
<asrwt>0</asrwt>
<pdfrwt beam="1">  1        2 0.26591474E+00 0.31509453E+04</pdfrwt>
<pdfrwt beam="2">  1       -1 0.22092894E+00 0.31509453E+04</pdfrwt>
<totfact> 0.98708253E-01</totfact>
</mgrwt>
</event>
<event>
12    7  0.1675873E-007  0.1325781E+04  0.7818608E-02  0.9009367E-01
          2   -1    0    0  501    0  0.00000000000E+00  0.00000000000E+00  0.87035173988E+03  0.87035173988E+03  0.00000000000E+00 0. -1.
         -1   -1    0    0    0  501 -0.00000000000E+00 -0.00000000000E+00 -0.50488072156E+03  0.50488072156E+03  0.00000000000E+00 0.  1.
         24    2    1    2    0    0  0.33042542709E+03 -0.29262345217E+01  0.22130175157E+03  0.40532839009E+03  0.78275876578E+02 0.  0.
        254    2    1    2    0    0 -0.33042542709E+03  0.29262345217E+01  0.14416926675E+03  0.96990407134E+03  0.90041079759E+03 0.  0.
         23    2    4    4    0    0  0.26818960378E+03 -0.27521180911E+02  0.21998434095E+03  0.35894156439E+03  0.88107079219E+02 0.  0.
         23    2    4    4    0    0 -0.59861503086E+03  0.30447415433E+02 -0.75815074206E+02  0.61096250695E+03  0.90885967801E+02 0.  0.
          2    1    3    3  502    0  0.28153895002E+03  0.92825260531E+01  0.15333522640E+03  0.32072112079E+03  0.00000000000E+00 0. -1.
         -1    1    3    3    0  502  0.48886477073E+02 -0.12208760575E+02  0.67966525173E+02  0.84607269306E+02  0.00000000000E+00 0.  1.
         13    1    5    5    0    0  0.69982631924E+02 -0.13474152709E+02  0.13796990404E+02  0.72591173750E+02  0.00000000000E+00 0.  1.
        -13    1    5    5    0    0  0.19820697185E+03 -0.14047028202E+02  0.20618735055E+03  0.28635039064E+03  0.00000000000E+00 0. -1.
          2    1    6    6  503    0 -0.44981462519E+03  0.21539598713E+02 -0.96251493288E+02  0.46050135864E+03  0.00000000000E+00 0. -1.
         -2    1    6    6    0  503 -0.14880040567E+03  0.89078167199E+01  0.20436419082E+02  0.15046114831E+03  0.00000000000E+00 0.  1.
<mgrwt>
<rscale>  0 0.13257810E+04</rscale>
<asrwt>0</asrwt>
<pdfrwt beam="1">  1        2 0.13390027E+00 0.13257810E+04</pdfrwt>
<pdfrwt beam="2">  1       -1 0.77673957E-01 0.13257810E+04</pdfrwt>
<totfact> 0.57000853E+01</totfact>
</mgrwt>
</event>
<event>
12    7  0.1675873E-007  0.2556423E+04  0.7818608E-02  0.8383156E-01
         -1   -1    0    0    0  501 -0.00000000000E+00  0.00000000000E+00  0.10475763613E+04  0.10475763613E+04  0.00000000000E+00 0.  1.
          2   -1    0    0  501    0  0.00000000000E+00 -0.00000000000E+00 -0.15596235600E+04  0.15596235600E+04  0.00000000000E+00 0. -1.
         24    2    1    2    0    0 -0.84289884702E+03  0.37038116864E+03  0.42065763237E+03  0.10155037182E+04  0.81451098961E+02 0.  0.
        254    2    1    2    0    0  0.84289884702E+03 -0.37038116864E+03 -0.93270483101E+03  0.15916962031E+04  0.90327062659E+03 0.  0.
         23    2    4    4    0    0  0.11808913249E+03 -0.52015778523E+03 -0.33964588212E+03  0.63927627733E+03  0.93838524973E+02 0.  0.
         23    2    4    4    0    0  0.72480971453E+03  0.14977661659E+03 -0.59305894889E+03  0.95241992579E+03  0.87193124891E+02 0.  0.
          4    1    3    3  502    0 -0.30111160773E+03  0.17256896625E+03  0.17350645118E+03  0.38801125888E+03  0.00000000000E+00 0. -1.
         -3    1    3    3    0  502 -0.54178723929E+03  0.19781220238E+03  0.24715118120E+03  0.62749245927E+03  0.00000000000E+00 0.  1.
         13    1    5    5    0    0  0.62240984659E+02 -0.36143678839E+03 -0.27748873627E+03  0.45990269725E+03  0.00000000000E+00 0. -1.
        -13    1    5    5    0    0  0.55848147826E+02 -0.15872099684E+03 -0.62157145847E+02  0.17937358008E+03  0.00000000000E+00 0.  1.
          2    1    6    6  503    0  0.72425212194E+03  0.14281849226E+03 -0.58627250915E+03  0.94268431240E+03  0.00000000000E+00 0. -1.
         -2    1    6    6    0  503  0.55759259505E+00  0.69581243333E+01 -0.67864397472E+01  0.97356133953E+01  0.00000000000E+00 0.  1.
<mgrwt>
<rscale>  0 0.25564231E+04</rscale>
<asrwt>0</asrwt>
<pdfrwt beam="1">  1        2 0.23994209E+00 0.25564231E+04</pdfrwt>
<pdfrwt beam="2">  1       -1 0.16116559E+00 0.25564231E+04</pdfrwt>
<totfact> 0.34014842E+00</totfact>
</mgrwt>
</event>
<event>
12    7  0.1675873E-007  0.3802232E+04  0.7818608E-02  0.8045676E-01
          2   -1    0    0  501    0  0.00000000000E+00  0.00000000000E+00  0.27241860325E+04  0.27241860325E+04  0.00000000000E+00 0. -1.
         -1   -1    0    0    0  501 -0.00000000000E+00 -0.00000000000E+00 -0.13267235717E+04  0.13267235717E+04  0.00000000000E+00 0.  1.
         24    2    1    2    0    0 -0.98938497269E+03 -0.14657655663E+04  0.97853067185E+03  0.20230457394E+04  0.88546420913E+02 0.  0.
        254    2    1    2    0    0  0.98938497269E+03  0.14657655663E+04  0.41893178891E+03  0.20278638648E+04  0.89965365059E+03 0.  0.
         23    2    4    4    0    0  0.66660829516E+03  0.86525023352E+03  0.68287898646E+03  0.12910826107E+04  0.86867783063E+02 0.  0.
         23    2    4    4    0    0  0.32277667752E+03  0.60051533275E+03 -0.26394719755E+03  0.73678125411E+03  0.91515271315E+02 0.  0.
          2    1    3    3  502    0 -0.24444792441E+03 -0.35964198464E+03  0.28479320351E+03  0.51981180597E+03  0.00000000000E+00 0. -1.
         -1    1    3    3    0  502 -0.74493704828E+03 -0.11061235816E+04  0.69373746835E+03  0.15032339335E+04  0.00000000000E+00 0.  1.
         13    1    5    5    0    0  0.44747394541E+03  0.61246345052E+03  0.51457099255E+03  0.91658481136E+03  0.00000000000E+00 0.  1.
        -13    1    5    5    0    0  0.21913434976E+03  0.25278678300E+03  0.16830799392E+03  0.37449779935E+03  0.00000000000E+00 0. -1.
          4    1    6    6  503    0  0.22618475689E+03  0.32708604593E+03 -0.14349880697E+03  0.42277267330E+03  0.00000000000E+00 0.  1.
         -4    1    6    6    0  503  0.96591920638E+02  0.27342928683E+03 -0.12044839058E+03  0.31400858081E+03  0.00000000000E+00 0. -1.
<mgrwt>
<rscale>  0 0.38022319E+04</rscale>
<asrwt>0</asrwt>
<pdfrwt beam="1">  1        2 0.41910554E+00 0.38022319E+04</pdfrwt>
<pdfrwt beam="2">  1       -1 0.20411132E+00 0.38022319E+04</pdfrwt>
<totfact> 0.32980596E-01</totfact>
</mgrwt>
</event>
<event>
12    7  0.1675873E-007  0.2044899E+04  0.7818608E-02  0.8585912E-01
          2   -1    0    0  501    0  0.00000000000E+00  0.00000000000E+00  0.73358350667E+03  0.73358350667E+03  0.00000000000E+00 0. -1.
         -1   -1    0    0    0  501 -0.00000000000E+00 -0.00000000000E+00 -0.14250639243E+04  0.14250639243E+04  0.00000000000E+00 0.  1.
         24    2    1    2    0    0 -0.47900851749E+03 -0.14598197037E+03  0.40316087219E+03  0.64737587694E+03  0.76137649514E+02 0.  0.
        254    2    1    2    0    0  0.47900851749E+03  0.14598197037E+03 -0.10946412898E+04  0.15112715540E+04  0.91375175029E+03 0.  0.
         23    2    4    4    0    0  0.65841756235E+02 -0.26949831243E+03 -0.79554163496E+03  0.84706031960E+03  0.87522653200E+02 0.  0.
         23    2    4    4    0    0  0.41316676126E+03  0.41548028281E+03 -0.29909965487E+03  0.66421123444E+03  0.91571406050E+02 0.  0.
          4    1    3    3  502    0 -0.23792903534E+03 -0.56433325796E+02  0.24108834852E+03  0.34339268762E+03  0.00000000000E+00 0. -1.
         -3    1    3    3    0  502 -0.24107948216E+03 -0.89548644578E+02  0.16207252367E+03  0.30398318932E+03  0.00000000000E+00 0.  1.
         13    1    5    5    0    0  0.27922943382E+02 -0.24181672210E+03 -0.64705675119E+03  0.69133020845E+03  0.00000000000E+00 0.  1.
        -13    1    5    5    0    0  0.37918812853E+02 -0.27681590329E+02 -0.14848488377E+03  0.15573011115E+03  0.00000000000E+00 0. -1.
          1    1    6    6  503    0  0.60082340700E+02  0.21061460215E+02 -0.30538985760E+02  0.70612339018E+02  0.00000000000E+00 0. -1.
         -1    1    6    6    0  503  0.35308442056E+03  0.39441882259E+03 -0.26856066911E+03  0.59359889542E+03  0.00000000000E+00 0.  1.
<mgrwt>
<rscale>  0 0.20448994E+04</rscale>
<asrwt>0</asrwt>
<pdfrwt beam="1">  1        2 0.11285900E+00 0.20448994E+04</pdfrwt>
<pdfrwt beam="2">  1       -1 0.21924060E+00 0.20448994E+04</pdfrwt>
<totfact> 0.45395097E+00</totfact>
</mgrwt>
</event>
<event>
12    7  0.1675873E-007  0.1832457E+04  0.7818608E-02  0.8689227E-01
         -1   -1    0    0    0  501 -0.00000000000E+00  0.00000000000E+00  0.15175048085E+04  0.15175048085E+04  0.00000000000E+00 0.  1.
          2   -1    0    0  501    0  0.00000000000E+00 -0.00000000000E+00 -0.55319433803E+03  0.55319433803E+03  0.00000000000E+00 0. -1.
         24    2    1    2    0    0  0.26814549742E+03  0.52756084315E+03 -0.43046457037E+02  0.59859904845E+03  0.79027668126E+02 0.  0.
        254    2    1    2    0    0 -0.26814549742E+03 -0.52756084315E+03  0.10073569275E+04  0.14721000981E+04  0.89559380771E+03 0.  0.
         23    2    4    4    0    0  0.20507424663E+03 -0.13010394781E+03 -0.30345743541E+02  0.26084516679E+03  0.90204506638E+02 0.  0.
         23    2    4    4    0    0 -0.47321974405E+03 -0.39745689534E+03  0.10377026711E+04  0.12112549313E+04  0.91666598665E+02 0.  0.
          2    1    3    3  502    0  0.12207484309E+03  0.24923590197E+03 -0.59534375178E+02  0.28383999713E+03  0.00000000000E+00 0. -1.
         -1    1    3    3    0  502  0.14607065432E+03  0.27832494118E+03  0.16487918141E+02  0.31475905131E+03  0.00000000000E+00 0.  1.
         13    1    5    5    0    0  0.45391485951E+02 -0.74129821065E+02 -0.28992717222E+02  0.91630753679E+02  0.00000000000E+00 0. -1.
        -13    1    5    5    0    0  0.15968276068E+03 -0.55974126747E+02 -0.13530263195E+01  0.16921441311E+03  0.00000000000E+00 0.  1.
          3    1    6    6  503    0 -0.11952759982E+02 -0.19916726223E+02  0.79100990599E+02  0.82440955649E+02  0.00000000000E+00 0. -1.
         -3    1    6    6    0  503 -0.46126698406E+03 -0.37754016911E+03  0.95860168047E+03  0.11288139757E+04  0.00000000000E+00 0.  1.
<mgrwt>
<rscale>  0 0.18324574E+04</rscale>
<asrwt>0</asrwt>
<pdfrwt beam="1">  1        2 0.85106822E-01 0.18324574E+04</pdfrwt>
<pdfrwt beam="2">  1       -1 0.23346228E+00 0.18324574E+04</pdfrwt>
<totfact> 0.52656253E+00</totfact>
</mgrwt>
</event>
<event>
12    7  0.1675873E-007  0.2825796E+04  0.7818608E-02  0.8295304E-01
         -1   -1    0    0    0  501 -0.00000000000E+00  0.00000000000E+00  0.11592497520E+04  0.11592497520E+04  0.00000000000E+00 0.  1.
          2   -1    0    0  501    0  0.00000000000E+00 -0.00000000000E+00 -0.17220454727E+04  0.17220454727E+04  0.00000000000E+00 0. -1.
         24    2    1    2    0    0 -0.10149819079E+04  0.54763803788E+03 -0.83755299491E+03  0.14275616550E+04  0.79633948773E+02 0.  0.
        254    2    1    2    0    0  0.10149819079E+04 -0.54763803788E+03  0.27475727416E+03  0.14537335697E+04  0.84128118850E+03 0.  0.
         23    2    4    4    0    0  0.90923262180E+03 -0.68892031859E+02  0.84064611759E+02  0.92014148676E+03  0.90240922521E+02 0.  0.
         23    2    4    4    0    0  0.10574928605E+03 -0.47874600602E+03  0.19069266240E+03  0.53359208293E+03  0.89309404260E+02 0.  0.
          4    1    3    3  502    0 -0.84911370615E+03  0.43761114329E+03 -0.72201856842E+03  0.11974173925E+04  0.00000000000E+00 0. -1.
         -3    1    3    3    0  502 -0.16586820171E+03  0.11002689459E+03 -0.11553442649E+03  0.23014426253E+03  0.00000000000E+00 0.  1.
         13    1    5    5    0    0  0.88164685106E+03 -0.72999895898E+02  0.66452677700E+02  0.88715619434E+03  0.00000000000E+00 0.  1.
        -13    1    5    5    0    0  0.27585770743E+02  0.41078640395E+01  0.17611934059E+02  0.32985292416E+02  0.00000000000E+00 0. -1.
          4    1    6    6  503    0  0.26166184671E+02 -0.21493424638E+02  0.18242992767E+02  0.38463532183E+02  0.00000000000E+00 0. -1.
         -4    1    6    6    0  503  0.79583101376E+02 -0.45725258138E+03  0.17244966964E+03  0.49512855075E+03  0.00000000000E+00 0.  1.
<mgrwt>
<rscale>  0 0.28257960E+04</rscale>
<asrwt>0</asrwt>
<pdfrwt beam="1">  1        2 0.26493007E+00 0.28257960E+04</pdfrwt>
<pdfrwt beam="2">  1       -1 0.17834612E+00 0.28257960E+04</pdfrwt>
<totfact> 0.20156193E+00</totfact>
</mgrwt>
</event>
<event>
12    7  0.1675873E-007  0.2209519E+04  0.7818608E-02  0.8514476E-01
          2   -1    0    0  501    0  0.00000000000E+00  0.00000000000E+00  0.22488670161E+04  0.22488670161E+04  0.00000000000E+00 0. -1.
         -1   -1    0    0    0  501 -0.00000000000E+00 -0.00000000000E+00 -0.54271506678E+03  0.54271506678E+03  0.00000000000E+00 0.  1.
         24    2    1    2    0    0  0.65269568176E+03 -0.25854208807E+03 -0.35868802316E+02  0.70743779475E+03  0.79536143783E+02 0.  0.
        254    2    1    2    0    0 -0.65269568176E+03  0.25854208807E+03  0.17420207516E+04  0.20841442881E+04  0.90341875690E+03 0.  0.
         23    2    4    4    0    0 -0.10895283279E+03 -0.29887874375E+03  0.32111438587E+03  0.46111202165E+03  0.91162626451E+02 0.  0.
         23    2    4    4    0    0 -0.54374284898E+03  0.55742083182E+03  0.14209063657E+04  0.16230322664E+04  0.94257987431E+02 0.  0.
          2    1    3    3  502    0  0.90652749775E+02 -0.66733579829E+02 -0.15841048492E+01  0.11257797789E+03  0.00000000000E+00 0. -1.
         -1    1    3    3    0  502  0.56204293199E+03 -0.19180850824E+03 -0.34284697467E+02  0.59485981686E+03  0.00000000000E+00 0.  1.
         13    1    5    5    0    0 -0.71314365721E+02 -0.17706736254E+03  0.12844707933E+03  0.23008094624E+03  0.00000000000E+00 0.  1.
        -13    1    5    5    0    0 -0.37638467065E+02 -0.12181138121E+03  0.19266730654E+03  0.23103107541E+03  0.00000000000E+00 0. -1.
          3    1    6    6  503    0 -0.49264592924E+03  0.47083425621E+03  0.11925062520E+04  0.13734831886E+04  0.00000000000E+00 0. -1.
         -3    1    6    6    0  503 -0.51096919742E+02  0.86586575609E+02  0.22840011374E+03  0.24954907782E+03  0.00000000000E+00 0.  1.
<mgrwt>
<rscale>  0 0.22095194E+04</rscale>
<asrwt>0</asrwt>
<pdfrwt beam="1">  1        2 0.34597954E+00 0.22095194E+04</pdfrwt>
<pdfrwt beam="2">  1       -1 0.83494627E-01 0.22095194E+04</pdfrwt>
<totfact> 0.71679265E+00</totfact>
</mgrwt>
</event>
<event>
12    7  0.1675873E-007  0.1342738E+04  0.7818608E-02  0.8996344E-01
          2   -1    0    0  501    0  0.00000000000E+00  0.00000000000E+00  0.99734765808E+03  0.99734765808E+03  0.00000000000E+00 0. -1.
         -1   -1    0    0    0  501 -0.00000000000E+00 -0.00000000000E+00 -0.45193494605E+03  0.45193494605E+03  0.00000000000E+00 0.  1.
         24    2    1    2    0    0  0.22618543830E+03  0.24534214598E+03 -0.52066859362E+01  0.34310044127E+03  0.79612700782E+02 0.  0.
        254    2    1    2    0    0 -0.22618543830E+03 -0.24534214598E+03  0.55061939796E+03  0.11061821629E+04  0.89950243741E+03 0.  0.
         23    2    4    4    0    0 -0.46037453250E+03  0.94735397461E+02  0.47947465699E+03  0.67740878978E+03  0.89817682416E+02 0.  0.
         23    2    4    4    0    0  0.23418909420E+03 -0.34007754344E+03  0.71144740978E+02  0.42877337307E+03  0.91037156660E+02 0.  0.
          4    1    3    3  502    0  0.39663306324E+02  0.96794208612E+02 -0.47910220292E+00  0.10460653052E+03  0.00000000000E+00 0. -1.
         -3    1    3    3    0  502  0.18652213198E+03  0.14854793737E+03 -0.47275837333E+01  0.23849391074E+03  0.00000000000E+00 0.  1.
         13    1    5    5    0    0 -0.12594657750E+03  0.62756043941E+02  0.16951739268E+03  0.22031116144E+03  0.00000000000E+00 0.  1.
        -13    1    5    5    0    0 -0.33442795500E+03  0.31979353520E+02  0.30995726430E+03  0.45709762834E+03  0.00000000000E+00 0. -1.
          4    1    6    6  503    0  0.18435762843E+03 -0.19915031518E+03  0.65568969104E+02  0.27919146281E+03  0.00000000000E+00 0. -1.
         -4    1    6    6    0  503  0.49831465772E+02 -0.14092722826E+03  0.55757718740E+01  0.14958191027E+03  0.00000000000E+00 0.  1.
<mgrwt>
<rscale>  0 0.13427379E+04</rscale>
<asrwt>0</asrwt>
<pdfrwt beam="1">  1        2 0.15343810E+00 0.13427379E+04</pdfrwt>
<pdfrwt beam="2">  1       -1 0.69528453E-01 0.13427379E+04</pdfrwt>
<totfact> 0.58995194E+01</totfact>
</mgrwt>
</event>
<event>
12    7  0.1675873E-007  0.1636664E+04  0.7818608E-02  0.8798335E-01
         -1   -1    0    0    0  501 -0.00000000000E+00  0.00000000000E+00  0.97213753412E+03  0.97213753412E+03  0.00000000000E+00 0.  1.
          2   -1    0    0  501    0  0.00000000000E+00 -0.00000000000E+00 -0.68886081881E+03  0.68886081881E+03  0.00000000000E+00 0. -1.
         24    2    1    2    0    0 -0.22801580231E+03 -0.27618454241E+03  0.54759175908E+03  0.65929548421E+03  0.80899278827E+02 0.  0.
        254    2    1    2    0    0  0.22801580231E+03  0.27618454241E+03 -0.26431504377E+03  0.10017028687E+04  0.89737232366E+03 0.  0.
         23    2    4    4    0    0  0.29480575620E+03 -0.23054784436E+03 -0.28976589923E+03  0.48192420391E+03  0.90685828693E+02 0.  0.
         23    2    4    4    0    0 -0.66789953888E+02  0.50673238678E+03  0.25450855455E+02  0.51977866482E+03  0.91013760523E+02 0.  0.
          4    1    3    3  502    0 -0.21453347174E+02 -0.54398203022E+01  0.64863915838E+02  0.68535868913E+02  0.00000000000E+00 0. -1.
         -3    1    3    3    0  502 -0.20656245514E+03 -0.27074472211E+03  0.48272784324E+03  0.59075961530E+03  0.00000000000E+00 0.  1.
         13    1    5    5    0    0  0.28214499370E+03 -0.23907540366E+03 -0.27810485594E+03  0.46271498463E+03  0.00000000000E+00 0. -1.
        -13    1    5    5    0    0  0.12660762500E+02  0.85275592946E+01 -0.11661043289E+02  0.19209219276E+02  0.00000000000E+00 0.  1.
          4    1    6    6  503    0 -0.85142993928E+02  0.35229686209E+03  0.16331719227E+01  0.36244320341E+03  0.00000000000E+00 0. -1.
         -4    1    6    6    0  503  0.18353040041E+02  0.15443552469E+03  0.23817683532E+02  0.15733546140E+03  0.00000000000E+00 0.  1.
<mgrwt>
<rscale>  0 0.16366642E+04</rscale>
<asrwt>0</asrwt>
<pdfrwt beam="1">  1        2 0.10597859E+00 0.16366642E+04</pdfrwt>
<pdfrwt beam="2">  1       -1 0.14955962E+00 0.16366642E+04</pdfrwt>
<totfact> 0.16060535E+01</totfact>
</mgrwt>
</event>
<event>
12    7  0.1675873E-007  0.1209719E+04  0.7818608E-02  0.9104392E-01
          2   -1    0    0  501    0  0.00000000000E+00  0.00000000000E+00  0.10121906376E+04  0.10121906376E+04  0.00000000000E+00 0. -1.
         -1   -1    0    0    0  501 -0.00000000000E+00 -0.00000000000E+00 -0.36144873584E+03  0.36144873584E+03  0.00000000000E+00 0.  1.
         24    2    1    2    0    0 -0.12883973562E+03  0.10900555127E+03 -0.80644947477E+02  0.20366745089E+03  0.80591161522E+02 0.  0.
        254    2    1    2    0    0  0.12883973562E+03 -0.10900555127E+03  0.73138684924E+03  0.11699719225E+04  0.89745511789E+03 0.  0.
         23    2    4    4    0    0  0.11524930986E+03  0.17499375000E+02  0.91574974429E+03  0.92765014374E+03  0.91370473668E+02 0.  0.
         23    2    4    4    0    0  0.13590425758E+02 -0.12650492627E+03 -0.18436289505E+03  0.24232177881E+03  0.92422785991E+02 0.  0.
          4    1    3    3  502    0 -0.42882578946E+02  0.27977051914E+02  0.13112198450E+02  0.52854146092E+02  0.00000000000E+00 0. -1.
         -3    1    3    3    0  502 -0.85957156674E+02  0.81028499355E+02 -0.93757145927E+02  0.15081330480E+03  0.00000000000E+00 0.  1.
         13    1    5    5    0    0  0.72047256372E+02 -0.14680520466E+02  0.74462853458E+03  0.74824994443E+03  0.00000000000E+00 0. -1.
        -13    1    5    5    0    0  0.43202053489E+02  0.32179895466E+02  0.17112120971E+03  0.17940019931E+03  0.00000000000E+00 0.  1.
          3    1    6    6  503    0  0.36183826097E+02 -0.12314738122E+03 -0.17635252252E+03  0.21811638859E+03  0.00000000000E+00 0. -1.
         -3    1    6    6    0  503 -0.22593400338E+02 -0.33575450472E+01 -0.80103725364E+01  0.24205390221E+02  0.00000000000E+00 0.  1.
<mgrwt>
<rscale>  0 0.12097190E+04</rscale>
<asrwt>0</asrwt>
<pdfrwt beam="1">  1        2 0.15572164E+00 0.12097190E+04</pdfrwt>
<pdfrwt beam="2">  1       -1 0.55607498E-01 0.12097190E+04</pdfrwt>
<totfact> 0.90994789E+01</totfact>
</mgrwt>
</event>
<event>
12    7  0.1675873E-007  0.1646005E+04  0.7818608E-02  0.8792773E-01
          2   -1    0    0  501    0  0.00000000000E+00  0.00000000000E+00  0.22154258010E+04  0.22154258010E+04  0.00000000000E+00 0. -1.
         -1   -1    0    0    0  501 -0.00000000000E+00 -0.00000000000E+00 -0.30573512631E+03  0.30573512631E+03  0.00000000000E+00 0.  1.
         24    2    1    2    0    0 -0.13402842632E+03  0.28948569561E+03 -0.54342037413E+02  0.33481700093E+03  0.85928924459E+02 0.  0.
        254    2    1    2    0    0  0.13402842632E+03 -0.28948569561E+03  0.19640327121E+04  0.21863439264E+04  0.90604066307E+03 0.  0.
         23    2    4    4    0    0  0.23581629140E+03 -0.67361369392E+02  0.67621348398E+02  0.27212780334E+03  0.96612717665E+02 0.  0.
         23    2    4    4    0    0 -0.10178786508E+03 -0.22212432622E+03  0.18964113637E+04  0.19142161230E+04  0.90262503394E+02 0.  0.
          2    1    3    3  502    0 -0.52659509886E+02  0.13592513734E+03  0.17401100353E+02  0.14680417309E+03  0.00000000000E+00 0. -1.
         -1    1    3    3    0  502 -0.81368916433E+02  0.15356055827E+03 -0.71743137766E+02  0.18801282784E+03  0.00000000000E+00 0.  1.
         13    1    5    5    0    0  0.89084385784E+02 -0.75297013992E+02  0.29322039585E+02  0.12027239963E+03  0.00000000000E+00 0. -1.
        -13    1    5    5    0    0  0.14673190561E+03  0.79356445994E+01  0.38299308813E+02  0.15185540371E+03  0.00000000000E+00 0.  1.
          3    1    6    6  503    0 -0.63489053921E+02 -0.13452409581E+03  0.80525211149E+03  0.81887639810E+03  0.00000000000E+00 0. -1.
         -3    1    6    6    0  503 -0.38298811159E+02 -0.87600230408E+02  0.10911592522E+04  0.10953397249E+04  0.00000000000E+00 0.  1.
<mgrwt>
<rscale>  0 0.16460055E+04</rscale>
<asrwt>0</asrwt>
<pdfrwt beam="1">  1        2 0.34083473E+00 0.16460055E+04</pdfrwt>
<pdfrwt beam="2">  1       -1 0.47036175E-01 0.16460055E+04</pdfrwt>
<totfact> 0.24842369E+01</totfact>
</mgrwt>
</event>
<event>
12    7  0.1675873E-007  0.1960746E+04  0.7818608E-02  0.8625197E-01
          2   -1    0    0  501    0  0.00000000000E+00  0.00000000000E+00  0.16290291967E+04  0.16290291967E+04  0.00000000000E+00 0. -1.
         -1   -1    0    0    0  501 -0.00000000000E+00 -0.00000000000E+00 -0.59000216596E+03  0.59000216596E+03  0.00000000000E+00 0.  1.
         24    2    1    2    0    0 -0.18019083635E+03  0.25534303318E+02  0.12638687576E+04  0.12793632332E+04  0.79279932777E+02 0.  0.
        254    2    1    2    0    0  0.18019083635E+03 -0.25534303318E+02 -0.22484172685E+03  0.93966812952E+03  0.89403671813E+03 0.  0.
         23    2    4    4    0    0  0.35090508443E+03  0.23066240631E+03 -0.38864614763E+03  0.57961860273E+03  0.92587108151E+02 0.  0.
         23    2    4    4    0    0 -0.17071424808E+03 -0.25619670963E+03  0.16380442078E+03  0.36004952679E+03  0.89574912513E+02 0.  0.
          4    1    3    3  502    0 -0.14697749456E+03 -0.22437727909E+01  0.11036862514E+04  0.11134319736E+04  0.00000000000E+00 0. -1.
         -3    1    3    3    0  502 -0.33213341791E+02  0.27778076109E+02  0.16018250624E+03  0.16593125954E+03  0.00000000000E+00 0.  1.
         13    1    5    5    0    0  0.29158292690E+02  0.19806371715E+02 -0.76474806344E+02  0.84207448592E+02  0.00000000000E+00 0. -1.
        -13    1    5    5    0    0  0.32174679174E+03  0.21085603460E+03 -0.31217134128E+03  0.49541115414E+03  0.00000000000E+00 0.  1.
          1    1    6    6  503    0 -0.24261051299E+02 -0.10098155016E+02  0.40442481597E+02  0.48230339648E+02  0.00000000000E+00 0. -1.
         -1    1    6    6    0  503 -0.14645319679E+03 -0.24609855461E+03  0.12336193919E+03  0.31181918715E+03  0.00000000000E+00 0.  1.
<mgrwt>
<rscale>  0 0.19607455E+04</rscale>
<asrwt>0</asrwt>
<pdfrwt beam="1">  1        2 0.25061988E+00 0.19607455E+04</pdfrwt>
<pdfrwt beam="2">  1       -1 0.90769564E-01 0.19607455E+04</pdfrwt>
<totfact> 0.13519222E+01</totfact>
</mgrwt>
</event>
<event>
12    7  0.1675873E-007  0.2405316E+04  0.7818608E-02  0.8437516E-01
          2   -1    0    0  501    0  0.00000000000E+00  0.00000000000E+00  0.17188959079E+04  0.17188959079E+04  0.00000000000E+00 0. -1.
         -1   -1    0    0    0  501 -0.00000000000E+00 -0.00000000000E+00 -0.84146205808E+03  0.84146205808E+03  0.00000000000E+00 0.  1.
         24    2    1    2    0    0  0.53594006048E+03 -0.41269650208E+03 -0.43162545759E+03  0.80508978133E+03  0.65718103301E+02 0.  0.
        254    2    1    2    0    0 -0.53594006048E+03  0.41269650208E+03  0.13090593075E+04  0.17552681847E+04  0.95382387186E+03 0.  0.
         23    2    4    4    0    0 -0.75209009113E+03  0.29446831024E+03  0.63555711991E+03  0.10320471225E+04  0.94007017745E+02 0.  0.
         23    2    4    4    0    0  0.21615003065E+03  0.11822819184E+03  0.67350218754E+03  0.72322106224E+03  0.93513459770E+02 0.  0.
          2    1    3    3  502    0  0.37496654285E+03 -0.29403436949E+03 -0.33842824604E+03  0.58445683880E+03  0.00000000000E+00 0. -1.
         -3    1    3    3    0  502  0.16097351763E+03 -0.11866213259E+03 -0.93197211550E+02  0.22063294253E+03  0.00000000000E+00 0.  1.
         13    1    5    5    0    0 -0.38335576577E+03  0.13987068987E+03  0.37939717201E+03  0.55719625551E+03  0.00000000000E+00 0.  1.
        -13    1    5    5    0    0 -0.36873432536E+03  0.15459762037E+03  0.25615994791E+03  0.47485086694E+03  0.00000000000E+00 0. -1.
          3    1    6    6  503    0  0.65429353646E+02  0.54665419586E+02  0.35590247801E+03  0.36597251573E+03  0.00000000000E+00 0. -1.
         -3    1    6    6    0  503  0.15072067700E+03  0.63562772253E+02  0.31759970953E+03  0.35724854652E+03  0.00000000000E+00 0.  1.
<mgrwt>
<rscale>  0 0.24053155E+04</rscale>
<asrwt>0</asrwt>
<pdfrwt beam="1">  1        2 0.26444552E+00 0.24053155E+04</pdfrwt>
<pdfrwt beam="2">  1       -1 0.12945570E+00 0.24053155E+04</pdfrwt>
<totfact> 0.50209719E+00</totfact>
</mgrwt>
</event>
<event>
12    7  0.1675873E-007  0.1554574E+04  0.7818608E-02  0.8848951E-01
         -3   -1    0    0    0  501 -0.00000000000E+00  0.00000000000E+00  0.30332937036E+03  0.30332937036E+03  0.00000000000E+00 0.  1.
          4   -1    0    0  501    0  0.00000000000E+00 -0.00000000000E+00 -0.19918123972E+04  0.19918123972E+04  0.00000000000E+00 0. -1.
         24    2    1    2    0    0  0.38778719130E+02 -0.30654094217E+03  0.40673697814E+02  0.32161617615E+03  0.79444803350E+02 0.  0.
        254    2    1    2    0    0 -0.38778719130E+02  0.30654094217E+03 -0.17291567246E+04  0.19735255914E+04  0.89963834025E+03 0.  0.
         23    2    4    4    0    0  0.27549336823E+03 -0.18560306335E+03 -0.81968448901E+03  0.88886453838E+03  0.88613842066E+02 0.  0.
         23    2    4    4    0    0 -0.31427208736E+03  0.49214400553E+03 -0.90947223561E+03  0.10846610530E+04  0.91526965839E+02 0.  0.
          4    1    3    3  502    0 -0.18982031448E+02 -0.27173981463E+02 -0.17992017803E+01  0.33196082803E+02  0.00000000000E+00 0. -1.
         -3    1    3    3    0  502  0.57760750578E+02 -0.27936696071E+03  0.42472899594E+02  0.28842009334E+03  0.00000000000E+00 0.  1.
         13    1    5    5    0    0  0.20747217012E+03 -0.14427423477E+03 -0.70779361880E+03  0.75155276795E+03  0.00000000000E+00 0.  1.
        -13    1    5    5    0    0  0.68021198103E+02 -0.41328828583E+02 -0.11189087020E+03  0.13731177043E+03  0.00000000000E+00 0. -1.
          1    1    6    6  503    0 -0.25885989325E+03  0.35941018695E+03 -0.73946455470E+03  0.86196981065E+03  0.00000000000E+00 0. -1.
         -1    1    6    6    0  503 -0.55412194108E+02  0.13273381857E+03 -0.17000768091E+03  0.22269124235E+03  0.00000000000E+00 0.  1.
<mgrwt>
<rscale>  0 0.15545742E+04</rscale>
<asrwt>0</asrwt>
<pdfrwt beam="1">  1        4 0.30643268E+00 0.15545742E+04</pdfrwt>
<pdfrwt beam="2">  1       -3 0.46666056E-01 0.15545742E+04</pdfrwt>
<totfact> 0.28429817E-01</totfact>
</mgrwt>
</event>
<event>
12    7  0.1675873E-007  0.1816894E+04  0.7818608E-02  0.8697367E-01
         -1   -1    0    0    0  501 -0.00000000000E+00  0.00000000000E+00  0.65042212453E+03  0.65042212453E+03  0.00000000000E+00 0.  1.
          2   -1    0    0  501    0  0.00000000000E+00 -0.00000000000E+00 -0.12688315349E+04  0.12688315349E+04  0.00000000000E+00 0. -1.
         24    2    1    2    0    0  0.57004422039E+03 -0.30479055753E+03 -0.43529502072E+03  0.78340231510E+03  0.79935818442E+02 0.  0.
        254    2    1    2    0    0 -0.57004422039E+03  0.30479055753E+03 -0.18311438969E+03  0.11358513444E+04  0.91584916862E+03 0.  0.
         23    2    4    4    0    0 -0.49701029456E+03 -0.15512105098E+03 -0.34872953597E+03  0.63335754201E+03  0.91911443265E+02 0.  0.
         23    2    4    4    0    0 -0.73033925828E+02  0.45991160851E+03  0.16561514628E+03  0.50249380237E+03  0.90658715946E+02 0.  0.
          2    1    3    3  502    0  0.54940739256E+03 -0.27910809375E+03 -0.42606623825E+03  0.74918772706E+03  0.00000000000E+00 0. -1.
         -1    1    3    3    0  502  0.20636827829E+02 -0.25682463780E+02 -0.92287824759E+01  0.34214588039E+02  0.00000000000E+00 0.  1.
         13    1    5    5    0    0 -0.21113859342E+03 -0.30909512030E+02 -0.17854513271E+03  0.27823239923E+03  0.00000000000E+00 0.  1.
        -13    1    5    5    0    0 -0.28587170114E+03 -0.12421153895E+03 -0.17018440326E+03  0.35512514277E+03  0.00000000000E+00 0. -1.
          4    1    6    6  503    0 -0.56895300419E+02  0.31502201617E+03  0.68623320163E+02  0.32739136511E+03  0.00000000000E+00 0. -1.
         -4    1    6    6    0  503 -0.16138625409E+02  0.14488959235E+03  0.96991826120E+02  0.17510243726E+03  0.00000000000E+00 0.  1.
<mgrwt>
<rscale>  0 0.18168942E+04</rscale>
<asrwt>0</asrwt>
<pdfrwt beam="1">  1        2 0.19520485E+00 0.18168942E+04</pdfrwt>
<pdfrwt beam="2">  1       -1 0.10006494E+00 0.18168942E+04</pdfrwt>
<totfact> 0.17638318E+01</totfact>
</mgrwt>
</event>
<event>
12    7  0.1675873E-007  0.1914280E+04  0.7818608E-02  0.8647781E-01
          2   -1    0    0  501    0  0.00000000000E+00  0.00000000000E+00  0.16399096662E+04  0.16399096662E+04  0.00000000000E+00 0. -1.
         -1   -1    0    0    0  501 -0.00000000000E+00 -0.00000000000E+00 -0.55863876568E+03  0.55863876568E+03  0.00000000000E+00 0.  1.
         24    2    1    2    0    0  0.39941028347E+03 -0.62496483805E+03  0.39731179997E+03  0.84518557949E+03  0.79827151020E+02 0.  0.
        254    2    1    2    0    0 -0.39941028347E+03  0.62496483805E+03  0.68395910059E+03  0.13533628524E+04  0.90204286802E+03 0.  0.
         23    2    4    4    0    0  0.16392940733E+03 -0.69444524105E+01  0.42280366410E+03  0.46283238596E+03  0.92356933180E+02 0.  0.
         23    2    4    4    0    0 -0.56333969080E+03  0.63190929046E+03  0.26115543649E+03  0.89053046649E+03  0.90451042755E+02 0.  0.
          2    1    3    3  502    0  0.19180064141E+03 -0.31892128159E+03  0.15553341690E+03  0.40334713792E+03  0.00000000000E+00 0. -1.
         -1    1    3    3    0  502  0.20760964206E+03 -0.30604355646E+03  0.24177838307E+03  0.44183844157E+03  0.00000000000E+00 0.  1.
         13    1    5    5    0    0  0.20321179207E+02  0.29948357353E+02  0.50844458614E+02  0.62410042495E+02  0.00000000000E+00 0.  1.
        -13    1    5    5    0    0  0.14360822812E+03 -0.36892809763E+02  0.37195920549E+03  0.40042234346E+03  0.00000000000E+00 0. -1.
          4    1    6    6  503    0 -0.44375664495E+03  0.53199909943E+03  0.24051564647E+03  0.73334219702E+03  0.00000000000E+00 0. -1.
         -4    1    6    6    0  503 -0.11958304585E+03  0.99910191026E+02  0.20639790017E+02  0.15718826947E+03  0.00000000000E+00 0.  1.
<mgrwt>
<rscale>  0 0.19142801E+04</rscale>
<asrwt>0</asrwt>
<pdfrwt beam="1">  1        2 0.25229379E+00 0.19142801E+04</pdfrwt>
<pdfrwt beam="2">  1       -1 0.85944426E-01 0.19142801E+04</pdfrwt>
<totfact> 0.15087805E+01</totfact>
</mgrwt>
</event>
<event>
12    7  0.1675873E-007  0.2035263E+04  0.7818608E-02  0.8590309E-01
         -1   -1    0    0    0  501 -0.00000000000E+00  0.00000000000E+00  0.98989706939E+03  0.98989706939E+03  0.00000000000E+00 0.  1.
          2   -1    0    0  501    0  0.00000000000E+00 -0.00000000000E+00 -0.10461425950E+04  0.10461425950E+04  0.00000000000E+00 0. -1.
         24    2    1    2    0    0 -0.47692640100E+03 -0.32084103781E+02  0.61273830045E+03  0.78114340119E+03  0.79048128985E+02 0.  0.
        254    2    1    2    0    0  0.47692640100E+03  0.32084103781E+02 -0.66898382610E+03  0.12548962632E+04  0.94801745249E+03 0.  0.
         23    2    4    4    0    0  0.41063529123E+03 -0.20296251364E+03 -0.82768869552E+03  0.95040820125E+03  0.91608121703E+02 0.  0.
         23    2    4    4    0    0  0.66291109775E+02  0.23504661742E+03  0.15870486942E+03  0.30448806199E+03  0.88793697558E+02 0.  0.
          4    1    3    3  502    0 -0.36119738350E+02  0.15450192193E+02  0.33020108700E+02  0.51319309386E+02  0.00000000000E+00 0. -1.
         -3    1    3    3    0  502 -0.44080666265E+03 -0.47534295974E+02  0.57971819175E+03  0.72982409181E+03  0.00000000000E+00 0.  1.
         13    1    5    5    0    0  0.21386149533E+03 -0.90651121216E+02 -0.32976587968E+03  0.40336075709E+03  0.00000000000E+00 0. -1.
        -13    1    5    5    0    0  0.19677379590E+03 -0.11231139242E+03 -0.49792281584E+03  0.54704744415E+03  0.00000000000E+00 0.  1.
          3    1    6    6  503    0  0.12664956975E+02  0.17077309479E+03  0.77849245151E+02  0.18810729919E+03  0.00000000000E+00 0. -1.
         -3    1    6    6    0  503  0.53626152800E+02  0.64273522632E+02  0.80855624266E+02  0.11638076281E+03  0.00000000000E+00 0.  1.
<mgrwt>
<rscale>  0 0.20352626E+04</rscale>
<asrwt>0</asrwt>
<pdfrwt beam="1">  1        2 0.16094501E+00 0.20352626E+04</pdfrwt>
<pdfrwt beam="2">  1       -1 0.15229186E+00 0.20352626E+04</pdfrwt>
<totfact> 0.83291940E+00</totfact>
</mgrwt>
</event>
<event>
12    7  0.1675873E-007  0.1687125E+04  0.7818608E-02  0.8768742E-01
         -1   -1    0    0    0  501 -0.00000000000E+00  0.00000000000E+00  0.24914360953E+03  0.24914360953E+03  0.00000000000E+00 0.  1.
          2   -1    0    0  501    0  0.00000000000E+00 -0.00000000000E+00 -0.28561756937E+04  0.28561756937E+04  0.00000000000E+00 0. -1.
         24    2    1    2    0    0 -0.21952320213E+03  0.43268498942E+03 -0.28526759821E+03  0.56778640191E+03  0.74813496523E+02 0.  0.
        254    2    1    2    0    0  0.21952320213E+03 -0.43268498942E+03 -0.23217644860E+04  0.25375329013E+04  0.90170735867E+03 0.  0.
         23    2    4    4    0    0 -0.56897477819E+02  0.19807230703E+03 -0.11759951801E+04  0.11974285904E+04  0.91654806897E+02 0.  0.
         23    2    4    4    0    0  0.27642067994E+03 -0.63075729645E+03 -0.11457693059E+04  0.13401043109E+04  0.93963304755E+02 0.  0.
          4    1    3    3  502    0 -0.43584062715E+02  0.34873208275E+02 -0.36508794293E+02  0.66697850332E+02  0.00000000000E+00 0. -1.
         -3    1    3    3    0  502 -0.17593913941E+03  0.39781178115E+03 -0.24875880392E+03  0.50108855158E+03  0.00000000000E+00 0.  1.
         13    1    5    5    0    0  0.20664573868E+01  0.11879259513E+03 -0.79508125016E+03  0.80390928920E+03  0.00000000000E+00 0. -1.
        -13    1    5    5    0    0 -0.58963935205E+02  0.79279711896E+02 -0.38091392995E+03  0.39351930118E+03  0.00000000000E+00 0.  1.
          1    1    6    6  503    0  0.44582542359E+02 -0.12456910210E+03 -0.15655741957E+03  0.20497631547E+03  0.00000000000E+00 0. -1.
         -1    1    6    6    0  503  0.23183813759E+03 -0.50618819435E+03 -0.98921188628E+03  0.11351279955E+04  0.00000000000E+00 0.  1.
<mgrwt>
<rscale>  0 0.16871253E+04</rscale>
<asrwt>0</asrwt>
<pdfrwt beam="1">  1        2 0.43941165E+00 0.16871253E+04</pdfrwt>
<pdfrwt beam="2">  1       -1 0.38329785E-01 0.16871253E+04</pdfrwt>
<totfact> 0.15322378E+01</totfact>
</mgrwt>
</event>
<event>
12    7  0.1675873E-007  0.3656553E+04  0.7818608E-02  0.8077659E-01
         -1   -1    0    0    0  501 -0.00000000000E+00  0.00000000000E+00  0.14309968254E+04  0.14309968254E+04  0.00000000000E+00 0.  1.
          2   -1    0    0  501    0  0.00000000000E+00 -0.00000000000E+00 -0.23358506728E+04  0.23358506728E+04  0.00000000000E+00 0. -1.
         24    2    1    2    0    0  0.34393057367E+03  0.53662566044E+03  0.12170314085E+04  0.13761964024E+04  0.80596213879E+02 0.  0.
        254    2    1    2    0    0 -0.34393057367E+03 -0.53662566044E+03 -0.21218852560E+04  0.23906510958E+04  0.89808701316E+03 0.  0.
         23    2    4    4    0    0 -0.41607192622E+03 -0.71362779056E+03 -0.13083556424E+04  0.15499833195E+04  0.90957860044E+02 0.  0.
         23    2    4    4    0    0  0.72141352549E+02  0.17700213013E+03 -0.81352961356E+03  0.84066777631E+03  0.91420726094E+02 0.  0.
          4    1    3    3  502    0  0.99588408711E+02  0.96004389826E+02  0.27957596370E+03  0.31192533320E+03  0.00000000000E+00 0. -1.
         -3    1    3    3    0  502  0.24434216496E+03  0.44062127061E+03  0.93745544484E+03  0.10642710692E+04  0.00000000000E+00 0.  1.
         13    1    5    5    0    0 -0.89525760728E+02 -0.15401832189E+03 -0.35658269929E+03  0.39860723368E+03  0.00000000000E+00 0. -1.
        -13    1    5    5    0    0 -0.32654616550E+03 -0.55960946868E+03 -0.95177294312E+03  0.11513760858E+04  0.00000000000E+00 0.  1.
          4    1    6    6  503    0  0.43668597444E+02  0.76462400604E+02 -0.55295833124E+03  0.55992531752E+03  0.00000000000E+00 0.  1.
         -4    1    6    6    0  503  0.28472755105E+02  0.10053972952E+03 -0.26057128232E+03  0.28074245879E+03  0.00000000000E+00 0. -1.
<mgrwt>
<rscale>  0 0.36565530E+04</rscale>
<asrwt>0</asrwt>
<pdfrwt beam="1">  1        2 0.35936164E+00 0.36565530E+04</pdfrwt>
<pdfrwt beam="2">  1       -1 0.22015336E+00 0.36565530E+04</pdfrwt>
<totfact> 0.43798839E-01</totfact>
</mgrwt>
</event>
<event>
12    7  0.1675873E-007  0.1742546E+04  0.7818608E-02  0.8737464E-01
          2   -1    0    0  501    0  0.00000000000E+00  0.00000000000E+00  0.85750609088E+03  0.85750609088E+03  0.00000000000E+00 0. -1.
         -1   -1    0    0    0  501 -0.00000000000E+00 -0.00000000000E+00 -0.88526124927E+03  0.88526124927E+03  0.00000000000E+00 0.  1.
         24    2    1    2    0    0 -0.51975572064E+03  0.36452537324E+03  0.40246098387E+02  0.64091711697E+03  0.78295884452E+02 0.  0.
        254    2    1    2    0    0  0.51975572064E+03 -0.36452537324E+03 -0.68001256780E+02  0.11018502232E+04  0.89801168508E+03 0.  0.
         23    2    4    4    0    0 -0.15864561425E+03 -0.48255028746E+02  0.22374198974E+03  0.29346637066E+03  0.92547577029E+02 0.  0.
         23    2    4    4    0    0  0.67840133489E+03 -0.31627034450E+03 -0.29174324652E+03  0.80838385253E+03  0.90083456579E+02 0.  0.
          4    1    3    3  502    0 -0.23495077612E+03  0.16347481995E+03  0.57198601618E+02  0.29188621753E+03  0.00000000000E+00 0. -1.
         -3    1    3    3    0  502 -0.28480494452E+03  0.20105055330E+03 -0.16952503231E+02  0.34903089945E+03  0.00000000000E+00 0.  1.
         13    1    5    5    0    0 -0.42808319748E+01  0.18907713764E+02  0.11400608517E+02  0.22490020826E+02  0.00000000000E+00 0. -1.
        -13    1    5    5    0    0 -0.15436478228E+03 -0.67162742510E+02  0.21234138122E+03  0.27097634983E+03  0.00000000000E+00 0.  1.
          1    1    6    6  503    0  0.75840610087E+02 -0.34905008493E+02 -0.64891529917E+02  0.10574057126E+03  0.00000000000E+00 0. -1.
         -1    1    6    6    0  503  0.60256072480E+03 -0.28136533601E+03 -0.22685171660E+03  0.70264328126E+03  0.00000000000E+00 0.  1.
<mgrwt>
<rscale>  0 0.17425463E+04</rscale>
<asrwt>0</asrwt>
<pdfrwt beam="1">  1        2 0.13192401E+00 0.17425463E+04</pdfrwt>
<pdfrwt beam="2">  1       -1 0.13619404E+00 0.17425463E+04</pdfrwt>
<totfact> 0.15287639E+01</totfact>
</mgrwt>
</event>
<event>
12    7  0.1675873E-007  0.1700163E+04  0.7818608E-02  0.8761271E-01
         -1   -1    0    0    0  501 -0.00000000000E+00  0.00000000000E+00  0.35481032838E+03  0.35481032838E+03  0.00000000000E+00 0.  1.
          2   -1    0    0  501    0  0.00000000000E+00 -0.00000000000E+00 -0.20366893745E+04  0.20366893745E+04  0.00000000000E+00 0. -1.
         24    2    1    2    0    0  0.75746117230E+02  0.46071587807E+03 -0.11824647386E+04  0.12738168126E+04  0.79936346392E+02 0.  0.
        254    2    1    2    0    0 -0.75746117230E+02 -0.46071587807E+03 -0.49941430752E+03  0.11176828903E+04  0.88419669647E+03 0.  0.
         23    2    4    4    0    0 -0.25186813593E+03 -0.57025019808E+03 -0.59945587087E+03  0.87059411463E+03  0.99819462025E+02 0.  0.
         23    2    4    4    0    0  0.17612201870E+03  0.10953432000E+03  0.10004156335E+03  0.24708877564E+03  0.89598079887E+02 0.  0.
          2    1    3    3  502    0  0.48810503151E+02  0.32150160311E+03 -0.71837219150E+03  0.78854571937E+03  0.00000000000E+00 0. -1.
         -1    1    3    3    0  502  0.26935614078E+02  0.13921427496E+03 -0.46409254707E+03  0.48527109321E+03  0.00000000000E+00 0.  1.
         13    1    5    5    0    0 -0.12821583617E+03 -0.23016906241E+03 -0.19430830363E+03  0.32737259323E+03  0.00000000000E+00 0. -1.
        -13    1    5    5    0    0 -0.12365229976E+03 -0.34008113566E+03 -0.40514756724E+03  0.54322152140E+03  0.00000000000E+00 0.  1.
          1    1    6    6  503    0  0.10563856865E+03  0.88497254051E+02  0.21489645182E+02  0.13947428441E+03  0.00000000000E+00 0. -1.
         -1    1    6    6    0  503  0.70483450045E+02  0.21037065954E+02  0.78551918171E+02  0.10761449123E+03  0.00000000000E+00 0.  1.
<mgrwt>
<rscale>  0 0.17001628E+04</rscale>
<asrwt>0</asrwt>
<pdfrwt beam="1">  1        2 0.31333683E+00 0.17001628E+04</pdfrwt>
<pdfrwt beam="2">  1       -1 0.54586204E-01 0.17001628E+04</pdfrwt>
<totfact> 0.23424473E+01</totfact>
</mgrwt>
</event>
<event>
12    7  0.1675873E-007  0.1565226E+04  0.7818608E-02  0.8842200E-01
         -1   -1    0    0    0  501 -0.00000000000E+00  0.00000000000E+00  0.11948226246E+04  0.11948226246E+04  0.00000000000E+00 0.  1.
          2   -1    0    0  501    0  0.00000000000E+00 -0.00000000000E+00 -0.51261434992E+03  0.51261434992E+03  0.00000000000E+00 0. -1.
         24    2    1    2    0    0  0.20425744147E+02  0.26451667803E+03  0.71286304212E+03  0.76468479702E+03  0.78631024311E+02 0.  0.
        254    2    1    2    0    0 -0.20425744147E+02 -0.26451667803E+03 -0.30654767451E+02  0.94275217749E+03  0.90413255080E+03 0.  0.
         23    2    4    4    0    0 -0.19598366789E+03 -0.73312106212E+01 -0.39743417177E+03  0.45278641439E+03  0.92726864707E+02 0.  0.
         23    2    4    4    0    0  0.17555792375E+03 -0.25718546741E+03  0.36677940431E+03  0.48996576310E+03  0.92597885212E+02 0.  0.
          4    1    3    3  502    0 -0.18426700149E+01  0.98173204760E+01  0.33876830161E+01  0.10547587892E+02  0.00000000000E+00 0. -1.
         -3    1    3    3    0  502  0.22268414162E+02  0.25469935755E+03  0.70947535911E+03  0.75413720913E+03  0.00000000000E+00 0.  1.
         13    1    5    5    0    0 -0.10204479232E+03  0.12466540558E+02 -0.29498697342E+03  0.31238736972E+03  0.00000000000E+00 0.  1.
        -13    1    5    5    0    0 -0.93938875569E+02 -0.19797751179E+02 -0.10244719835E+03  0.14039904467E+03  0.00000000000E+00 0. -1.
          4    1    6    6  503    0 -0.18703651123E+01 -0.20659316025E+02  0.61788922536E+02  0.65178037347E+02  0.00000000000E+00 0. -1.
         -4    1    6    6    0  503  0.17742828886E+03 -0.23652615138E+03  0.30499048178E+03  0.42478772576E+03  0.00000000000E+00 0.  1.
<mgrwt>
<rscale>  0 0.15652261E+04</rscale>
<asrwt>0</asrwt>
<pdfrwt beam="1">  1        2 0.78863746E-01 0.15652261E+04</pdfrwt>
<pdfrwt beam="2">  1       -1 0.18381886E+00 0.15652261E+04</pdfrwt>
<totfact> 0.12844486E+01</totfact>
</mgrwt>
</event>
<event>
12    7  0.1675873E-007  0.2274720E+04  0.7818608E-02  0.8487956E-01
         -1   -1    0    0    0  501 -0.00000000000E+00  0.00000000000E+00  0.79646938996E+03  0.79646938996E+03  0.00000000000E+00 0.  1.
          2   -1    0    0  501    0  0.00000000000E+00 -0.00000000000E+00 -0.16241530403E+04  0.16241530403E+04  0.00000000000E+00 0. -1.
         24    2    1    2    0    0 -0.77123501981E+03 -0.53332997855E+03 -0.16008547738E+03  0.95460277710E+03  0.79967369366E+02 0.  0.
        254    2    1    2    0    0  0.77123501981E+03  0.53332997855E+03 -0.66759817293E+03  0.14660196531E+04  0.90789976379E+03 0.  0.
         23    2    4    4    0    0  0.90166274607E+03  0.37915868898E+03 -0.28360961709E+03  0.10226567725E+04  0.92927070525E+02 0.  0.
         23    2    4    4    0    0 -0.13042772626E+03  0.15417128957E+03 -0.38398855584E+03  0.44336288060E+03  0.91341417643E+02 0.  0.
          2    1    3    3  502    0 -0.40010174687E+03 -0.23744650944E+03 -0.10318860042E+03  0.47656074109E+03  0.00000000000E+00 0. -1.
         -1    1    3    3    0  502 -0.37113327295E+03 -0.29588346911E+03 -0.56896876958E+02  0.47804203601E+03  0.00000000000E+00 0.  1.
         13    1    5    5    0    0  0.76672807727E+03  0.28540096772E+03 -0.24187468379E+03  0.85312895831E+03  0.00000000000E+00 0. -1.
        -13    1    5    5    0    0  0.13493466880E+03  0.93757721257E+02 -0.41734933299E+02  0.16952781423E+03  0.00000000000E+00 0.  1.
          1    1    6    6  503    0 -0.53074221618E+02  0.10805344908E+03 -0.28584885449E+03  0.31016445392E+03  0.00000000000E+00 0. -1.
         -1    1    6    6    0  503 -0.77353504637E+02  0.46117840487E+02 -0.98139701341E+02  0.13319842668E+03  0.00000000000E+00 0.  1.
<mgrwt>
<rscale>  0 0.22747204E+04</rscale>
<asrwt>0</asrwt>
<pdfrwt beam="1">  1        2 0.24986970E+00 0.22747204E+04</pdfrwt>
<pdfrwt beam="2">  1       -1 0.12253375E+00 0.22747204E+04</pdfrwt>
<totfact> 0.65768951E+00</totfact>
</mgrwt>
</event>
<event>
12    7  0.1675873E-007  0.1504864E+04  0.7818608E-02  0.8881225E-01
          2   -1    0    0  501    0  0.00000000000E+00  0.00000000000E+00  0.16166674723E+04  0.16166674723E+04  0.00000000000E+00 0. -1.
         -3   -1    0    0    0  501 -0.00000000000E+00 -0.00000000000E+00 -0.35019807465E+03  0.35019807465E+03  0.00000000000E+00 0.  1.
         24    2    1    2    0    0  0.19409333585E+03 -0.34282060694E+03  0.52124802707E+02  0.40512322473E+03  0.78801272805E+02 0.  0.
        254    2    1    2    0    0 -0.19409333585E+03  0.34282060694E+03  0.12143445949E+04  0.15617423222E+04  0.89955994474E+03 0.  0.
         23    2    4    4    0    0 -0.20282895194E+03  0.47597708530E+03  0.24494788893E+03  0.57911778458E+03  0.87659401353E+02 0.  0.
         23    2    4    4    0    0  0.87356160961E+01 -0.13315647836E+03  0.96939670596E+03  0.98262453760E+03  0.89521224559E+02 0.  0.
          4    1    3    3  502    0  0.17545019469E+03 -0.28825407644E+03  0.70235151413E+02  0.34468269451E+03  0.00000000000E+00 0. -1.
         -3    1    3    3    0  502  0.18643141159E+02 -0.54566530502E+02 -0.18110348706E+02  0.60440530223E+02  0.00000000000E+00 0.  1.
         13    1    5    5    0    0 -0.38487512689E+02  0.18949417543E+03  0.10890732357E+03  0.22192371726E+03  0.00000000000E+00 0.  1.
        -13    1    5    5    0    0 -0.16434143926E+03  0.28648290987E+03  0.13604056536E+03  0.35719406732E+03  0.00000000000E+00 0. -1.
          3    1    6    6  503    0 -0.28749902425E+01 -0.57716659140E+02  0.70683485417E+03  0.70919319609E+03  0.00000000000E+00 0. -1.
         -3    1    6    6    0  503  0.11610606339E+02 -0.75439819221E+02  0.26256185179E+03  0.27343134151E+03  0.00000000000E+00 0.  1.
<mgrwt>
<rscale>  0 0.15048639E+04</rscale>
<asrwt>0</asrwt>
<pdfrwt beam="1">  1        2 0.24871807E+00 0.15048639E+04</pdfrwt>
<pdfrwt beam="2">  1       -3 0.53876628E-01 0.15048639E+04</pdfrwt>
<totfact> 0.22966268E+01</totfact>
</mgrwt>
</event>
<event>
12    7  0.1675873E-007  0.1330610E+04  0.7818608E-02  0.9005637E-01
         -1   -1    0    0    0  501 -0.00000000000E+00  0.00000000000E+00  0.73872294755E+03  0.73872294755E+03  0.00000000000E+00 0.  1.
          2   -1    0    0  501    0  0.00000000000E+00 -0.00000000000E+00 -0.59918410294E+03  0.59918410294E+03  0.00000000000E+00 0. -1.
         24    2    1    2    0    0 -0.11628527237E+03 -0.18289699607E+03  0.31494341933E+03  0.39029024425E+03  0.78508226556E+02 0.  0.
        254    2    1    2    0    0  0.11628527237E+03  0.18289699607E+03 -0.17540457472E+03  0.94761680624E+03  0.90566951527E+03 0.  0.
         23    2    4    4    0    0 -0.33643756034E+03  0.18507296543E+03 -0.26819675352E+03  0.47670773942E+03  0.88761115833E+02 0.  0.
         23    2    4    4    0    0  0.45272283272E+03 -0.21759693639E+01  0.92792178794E+02  0.47090906682E+03  0.90455860277E+02 0.  0.
          4    1    3    3  502    0 -0.49230889077E+02 -0.13101685835E+03  0.15208581253E+03  0.20668621625E+03  0.00000000000E+00 0. -1.
         -3    1    3    3    0  502 -0.67054383297E+02 -0.51880137715E+02  0.16285760679E+03  0.18360402800E+03  0.00000000000E+00 0.  1.
         13    1    5    5    0    0 -0.48325528557E+02  0.33349463857E+02 -0.84343315161E+02  0.10276837190E+03  0.00000000000E+00 0.  1.
        -13    1    5    5    0    0 -0.28811203179E+03  0.15172350157E+03 -0.18385343836E+03  0.37393936753E+03  0.00000000000E+00 0. -1.
          4    1    6    6  503    0  0.36683321379E+03 -0.22595523219E+02  0.10389256475E+03  0.38193039866E+03  0.00000000000E+00 0. -1.
         -4    1    6    6    0  503  0.85889618923E+02  0.20419553855E+02 -0.11100385952E+02  0.88978668155E+02  0.00000000000E+00 0.  1.
<mgrwt>
<rscale>  0 0.13306105E+04</rscale>
<asrwt>0</asrwt>
<pdfrwt beam="1">  1        2 0.92182169E-01 0.13306105E+04</pdfrwt>
<pdfrwt beam="2">  1       -1 0.11364968E+00 0.13306105E+04</pdfrwt>
<totfact> 0.39228049E+01</totfact>
</mgrwt>
</event>
<event>
12    7  0.1675873E-007  0.1227154E+04  0.7818608E-02  0.9089415E-01
         -1   -1    0    0    0  501 -0.00000000000E+00  0.00000000000E+00  0.42658810515E+03  0.42658810515E+03  0.00000000000E+00 0.  1.
          2   -1    0    0  501    0  0.00000000000E+00 -0.00000000000E+00 -0.88253047583E+03  0.88253047583E+03  0.00000000000E+00 0. -1.
         24    2    1    2    0    0 -0.26665122229E+03 -0.41087486024E+02 -0.65524183389E+02  0.28898448150E+03  0.80172040540E+02 0.  0.
        254    2    1    2    0    0  0.26665122229E+03  0.41087486024E+02 -0.39041818729E+03  0.10201340995E+04  0.90302611485E+03 0.  0.
         23    2    4    4    0    0  0.30898835136E+03  0.84970300081E+02  0.22075862406E+03  0.39961535392E+03  0.90908238490E+02 0.  0.
         23    2    4    4    0    0 -0.42337129071E+02 -0.43882814057E+02 -0.61117681135E+03  0.62051874556E+03  0.88251260577E+02 0.  0.
          2    1    3    3  502    0 -0.16775379624E+03 -0.31649090604E+02 -0.13601188455E+01  0.17071863112E+03  0.00000000000E+00 0. -1.
         -1    1    3    3    0  502 -0.98897426045E+02 -0.94383954199E+01 -0.64164064544E+02  0.11826585038E+03  0.00000000000E+00 0.  1.
         13    1    5    5    0    0  0.29846445327E+03  0.98727347237E+02  0.20007293166E+03  0.37263560879E+03  0.00000000000E+00 0. -1.
        -13    1    5    5    0    0  0.10523898090E+02 -0.13757047156E+02  0.20685692396E+02  0.26979745131E+02  0.00000000000E+00 0.  1.
          2    1    6    6  503    0 -0.47591958062E+02  0.22734329225E+01 -0.45749372387E+03  0.45996811884E+03  0.00000000000E+00 0. -1.
         -2    1    6    6    0  503  0.52548289906E+01 -0.46156246980E+02 -0.15368308748E+03  0.16055062672E+03  0.00000000000E+00 0.  1.
<mgrwt>
<rscale>  0 0.12271544E+04</rscale>
<asrwt>0</asrwt>
<pdfrwt beam="1">  1        2 0.13577392E+00 0.12271544E+04</pdfrwt>
<pdfrwt beam="2">  1       -1 0.65628940E-01 0.12271544E+04</pdfrwt>
<totfact> 0.79739959E+01</totfact>
</mgrwt>
</event>
<event>
12    7  0.1675873E-007  0.1786619E+04  0.7818608E-02  0.8713448E-01
         -1   -1    0    0    0  501 -0.00000000000E+00  0.00000000000E+00  0.73238167960E+03  0.73238167960E+03  0.00000000000E+00 0.  1.
          2   -1    0    0  501    0  0.00000000000E+00 -0.00000000000E+00 -0.10895985567E+04  0.10895985567E+04  0.00000000000E+00 0. -1.
         24    2    1    2    0    0  0.76499373198E+02  0.65741148314E+03 -0.17736041913E+03  0.68972939606E+03  0.78917103732E+02 0.  0.
        254    2    1    2    0    0 -0.76499373198E+02 -0.65741148314E+03 -0.17985645799E+03  0.11322508402E+04  0.90088934254E+03 0.  0.
         23    2    4    4    0    0 -0.55619464402E+02 -0.86995128607E+03 -0.87815796204E+02  0.88186917090E+03  0.10036361669E+03 0.  0.
         23    2    4    4    0    0 -0.20879908796E+02  0.21253980294E+03 -0.92040661785E+02  0.25038166935E+03  0.92792017444E+02 0.  0.
          4    1    3    3  502    0  0.50657204601E+01  0.46399896309E+01  0.46598532697E+01  0.83009192292E+01  0.00000000000E+00 0. -1.
         -1    1    3    3    0  502  0.71433652738E+02  0.65277149350E+03 -0.18202027240E+03  0.68142847683E+03  0.00000000000E+00 0.  1.
         13    1    5    5    0    0  0.24441856638E+02 -0.36673503544E+03 -0.23800316125E+02  0.36831840250E+03  0.00000000000E+00 0.  1.
        -13    1    5    5    0    0 -0.80061321041E+02 -0.50321625063E+03 -0.64015480079E+02  0.51355076839E+03  0.00000000000E+00 0. -1.
          3    1    6    6  503    0  0.23241439600E+02  0.16629306547E+03 -0.76975597080E+02  0.18471272475E+03  0.00000000000E+00 0. -1.
         -3    1    6    6    0  503 -0.44121348396E+02  0.46246737464E+02 -0.15065064705E+02  0.65668944600E+02  0.00000000000E+00 0.  1.
<mgrwt>
<rscale>  0 0.17866192E+04</rscale>
<asrwt>0</asrwt>
<pdfrwt beam="1">  1        2 0.16763055E+00 0.17866192E+04</pdfrwt>
<pdfrwt beam="2">  1       -1 0.11267410E+00 0.17866192E+04</pdfrwt>
<totfact> 0.17183238E+01</totfact>
</mgrwt>
</event>
<event>
12    7  0.1675873E-007  0.2539926E+04  0.7818608E-02  0.8388898E-01
          2   -1    0    0  501    0  0.00000000000E+00  0.00000000000E+00  0.11147835569E+04  0.11147835569E+04  0.00000000000E+00 0. -1.
         -1   -1    0    0    0  501 -0.00000000000E+00 -0.00000000000E+00 -0.14467434856E+04  0.14467434856E+04  0.00000000000E+00 0.  1.
         24    2    1    2    0    0 -0.37510920556E+03 -0.35997208537E+03 -0.11196059788E+04  0.12369638597E+04  0.79216312340E+02 0.  0.
        254    2    1    2    0    0  0.37510920556E+03  0.35997208537E+03  0.78764605010E+03  0.13245631828E+04  0.92940545877E+03 0.  0.
         23    2    4    4    0    0  0.35486848365E+03 -0.21900109176E+03  0.13429886415E+03  0.44736838248E+03  0.90604447168E+02 0.  0.
         23    2    4    4    0    0  0.20240721901E+02  0.57897317713E+03  0.65334718594E+03  0.87719480037E+03  0.83597522435E+02 0.  0.
          2    1    3    3  502    0  0.11856385700E+01 -0.10782819422E+02 -0.41230478741E+02  0.42633640599E+02  0.00000000000E+00 0. -1.
         -1    1    3    3    0  502 -0.37629484413E+03 -0.34918926595E+03 -0.10783755001E+04  0.11943302191E+04  0.00000000000E+00 0.  1.
         13    1    5    5    0    0  0.21474506147E+03 -0.18247737991E+03  0.83567117674E+02  0.29393349377E+03  0.00000000000E+00 0. -1.
        -13    1    5    5    0    0  0.14012342219E+03 -0.36523711849E+02  0.50731746478E+02  0.15343488871E+03  0.00000000000E+00 0.  1.
          4    1    6    6  503    0  0.43264329279E+02  0.16093810317E+03  0.18411103882E+03  0.24833394826E+03  0.00000000000E+00 0. -1.
         -4    1    6    6    0  503 -0.23023607378E+02  0.41803507396E+03  0.46923614712E+03  0.62886085211E+03  0.00000000000E+00 0.  1.
<mgrwt>
<rscale>  0 0.25399259E+04</rscale>
<asrwt>0</asrwt>
<pdfrwt beam="1">  1        2 0.17150516E+00 0.25399259E+04</pdfrwt>
<pdfrwt beam="2">  1       -1 0.22257592E+00 0.25399259E+04</pdfrwt>
<totfact> 0.22862513E+00</totfact>
</mgrwt>
</event>
<event>
12    7  0.1675873E-007  0.1559106E+04  0.7818608E-02  0.8846072E-01
         -1   -1    0    0    0  501 -0.00000000000E+00  0.00000000000E+00  0.13325393341E+03  0.13325393341E+03  0.00000000000E+00 0.  1.
          2   -1    0    0  501    0  0.00000000000E+00 -0.00000000000E+00 -0.45604897495E+04  0.45604897495E+04  0.00000000000E+00 0. -1.
         24    2    1    2    0    0  0.11458770722E+03  0.99671287489E+01  0.30129319589E+02  0.14738237038E+03  0.87086743533E+02 0.  0.
        254    2    1    2    0    0 -0.11458770722E+03 -0.99671287489E+01 -0.44573651356E+04  0.45463613125E+04  0.88773168518E+03 0.  0.
         23    2    4    4    0    0 -0.37336938973E+03 -0.16846212137E+03 -0.37260730893E+04  0.37496771846E+04  0.93135031601E+02 0.  0.
         23    2    4    4    0    0  0.25878168250E+03  0.15849499262E+03 -0.73129204631E+03  0.79668412788E+03  0.88481188619E+02 0.  0.
          4    1    3    3  502    0 -0.15837314918E+01  0.26553163145E+02  0.94231464870E+01  0.28220105743E+02  0.00000000000E+00 0. -1.
         -3    1    3    3    0  502  0.11617143871E+03 -0.16586034396E+02  0.20706173102E+02  0.11916226464E+03  0.00000000000E+00 0.  1.
         13    1    5    5    0    0 -0.37277542375E+03 -0.15048205363E+03 -0.35803629795E+04  0.36028607286E+04  0.00000000000E+00 0. -1.
        -13    1    5    5    0    0 -0.59396597740E+00 -0.17980067741E+02 -0.14571010984E+03  0.14681645596E+03  0.00000000000E+00 0.  1.
          1    1    6    6  503    0  0.18642032175E+03  0.10849815226E+03 -0.40634457768E+03  0.46004380358E+03  0.00000000000E+00 0. -1.
         -1    1    6    6    0  503  0.72361360757E+02  0.49996840360E+02 -0.32494746863E+03  0.33664032430E+03  0.00000000000E+00 0.  1.
<mgrwt>
<rscale>  0 0.15591064E+04</rscale>
<asrwt>0</asrwt>
<pdfrwt beam="1">  1        2 0.70161380E+00 0.15591064E+04</pdfrwt>
<pdfrwt beam="2">  1       -1 0.20500605E-01 0.15591064E+04</pdfrwt>
<totfact> 0.23837875E+00</totfact>
</mgrwt>
</event>
<event>
12    7  0.1675873E-007  0.2732356E+04  0.7818608E-02  0.8324582E-01
          2   -1    0    0  501    0  0.00000000000E+00  0.00000000000E+00  0.99068219966E+03  0.99068219966E+03  0.00000000000E+00 0. -1.
         -1   -1    0    0    0  501 -0.00000000000E+00 -0.00000000000E+00 -0.18839977021E+04  0.18839977021E+04  0.00000000000E+00 0.  1.
         24    2    1    2    0    0  0.81442063271E+03  0.90818118118E+03 -0.32359711320E+03  0.12644521959E+04  0.77783282926E+02 0.  0.
        254    2    1    2    0    0 -0.81442063271E+03 -0.90818118118E+03 -0.56971838922E+03  0.16102277059E+04  0.88327809717E+03 0.  0.
         23    2    4    4    0    0  0.32109208265E+01 -0.57894948984E+03 -0.64021698562E+02  0.58997639555E+03  0.93704576326E+02 0.  0.
         23    2    4    4    0    0 -0.81763155354E+03 -0.32923169135E+03 -0.50569669066E+03  0.10202513103E+04  0.90932553936E+02 0.  0.
          4    1    3    3  502    0  0.73529211649E+03  0.82603268917E+03 -0.26969463920E+03  0.11382968411E+04  0.00000000000E+00 0. -1.
         -3    1    3    3    0  502  0.79128516220E+02  0.82148492013E+02 -0.53902474006E+02  0.12615535471E+03  0.00000000000E+00 0.  1.
         13    1    5    5    0    0 -0.14701778670E+02 -0.51351278137E+03 -0.31359802016E+02  0.51467946929E+03  0.00000000000E+00 0.  1.
        -13    1    5    5    0    0  0.17912699497E+02 -0.65436708469E+02 -0.32661896546E+02  0.75296926262E+02  0.00000000000E+00 0. -1.
          3    1    6    6  503    0 -0.11828286473E+03 -0.63046851117E+02 -0.44411580526E+02  0.14120244336E+03  0.00000000000E+00 0. -1.
         -3    1    6    6    0  503 -0.69934868881E+03 -0.26618484023E+03 -0.46128511013E+03  0.87904886698E+03  0.00000000000E+00 0.  1.
<mgrwt>
<rscale>  0 0.27323565E+04</rscale>
<asrwt>0</asrwt>
<pdfrwt beam="1">  1        2 0.15241265E+00 0.27323565E+04</pdfrwt>
<pdfrwt beam="2">  1       -1 0.28984579E+00 0.27323565E+04</pdfrwt>
<totfact> 0.97882882E-01</totfact>
</mgrwt>
</event>
<event>
12    7  0.1675873E-007  0.4220203E+04  0.7818608E-02  0.7961540E-01
          2   -1    0    0  501    0  0.00000000000E+00  0.00000000000E+00  0.19115806892E+04  0.19115806892E+04  0.00000000000E+00 0. -1.
         -1   -1    0    0    0  501 -0.00000000000E+00 -0.00000000000E+00 -0.23292393821E+04  0.23292393821E+04  0.00000000000E+00 0.  1.
         24    2    1    2    0    0  0.10988056369E+04 -0.13850184809E+04  0.76877292455E+03  0.19296522139E+04  0.83041174894E+02 0.  0.
        254    2    1    2    0    0 -0.10988056369E+04  0.13850184809E+04 -0.11864316175E+04  0.23111678574E+04  0.89901438370E+03 0.  0.
         23    2    4    4    0    0 -0.84606243938E+03  0.12690689846E+04 -0.57331379985E+03  0.16319197971E+04  0.90087578891E+02 0.  0.
         23    2    4    4    0    0 -0.25274319752E+03  0.11594949629E+03 -0.61311781763E+03  0.67924806037E+03  0.90227820737E+02 0.  0.
          4    1    3    3  502    0  0.10678872989E+04 -0.13218916714E+04  0.74460890917E+03  0.18553229643E+04  0.00000000000E+00 0. -1.
         -3    1    3    3    0  502  0.30918337962E+02 -0.63126809562E+02  0.24164015379E+02  0.74329249606E+02  0.00000000000E+00 0.  1.
         13    1    5    5    0    0 -0.41107799019E+03  0.61554066077E+03 -0.32633907278E+03  0.80893300681E+03  0.00000000000E+00 0.  1.
        -13    1    5    5    0    0 -0.43498444919E+03  0.65352832387E+03 -0.24697472707E+03  0.82298679026E+03  0.00000000000E+00 0. -1.
          4    1    6    6  503    0 -0.21780857841E+03  0.12889681767E+03 -0.55806295955E+03  0.61277176277E+03  0.00000000000E+00 0. -1.
         -4    1    6    6    0  503 -0.34934619110E+02 -0.12947321379E+02 -0.55054858082E+02  0.66476297593E+02  0.00000000000E+00 0.  1.
<mgrwt>
<rscale>  0 0.42202033E+04</rscale>
<asrwt>0</asrwt>
<pdfrwt beam="1">  1        2 0.29408934E+00 0.42202033E+04</pdfrwt>
<pdfrwt beam="2">  1       -1 0.35834452E+00 0.42202033E+04</pdfrwt>
<totfact> 0.90220990E-02</totfact>
</mgrwt>
</event>
<event>
12    7  0.1675873E-007  0.1810679E+04  0.7818608E-02  0.8700641E-01
          2   -1    0    0  501    0  0.00000000000E+00  0.00000000000E+00  0.26017590170E+04  0.26017590170E+04  0.00000000000E+00 0. -1.
         -1   -1    0    0    0  501 -0.00000000000E+00 -0.00000000000E+00 -0.31503278649E+03  0.31503278649E+03  0.00000000000E+00 0.  1.
         24    2    1    2    0    0 -0.16804171730E+03 -0.12829665681E+03 -0.17642073445E+03  0.28647935193E+03  0.79044877363E+02 0.  0.
        254    2    1    2    0    0  0.16804171730E+03  0.12829665681E+03  0.24631469649E+04  0.26303124515E+04  0.89819406083E+03 0.  0.
         23    2    4    4    0    0  0.55091650657E+02 -0.31142199988E+03  0.41688883172E+03  0.53211519612E+03  0.96599854754E+02 0.  0.
         23    2    4    4    0    0  0.11295006664E+03  0.43971865669E+03  0.20462581332E+04  0.20981972554E+04  0.95651243109E+02 0.  0.
          2    1    3    3  502    0 -0.25762286630E+02 -0.64237036567E+02 -0.62845304286E+02  0.93485959106E+02  0.00000000000E+00 0. -1.
         -1    1    3    3    0  502 -0.14227943067E+03 -0.64059620247E+02 -0.11357543016E+03  0.19299339282E+03  0.00000000000E+00 0.  1.
         13    1    5    5    0    0 -0.16914642994E+02 -0.15179171773E+03  0.15979252463E+03  0.22104407173E+03  0.00000000000E+00 0. -1.
        -13    1    5    5    0    0  0.72006293651E+02 -0.15963028215E+03  0.25709630709E+03  0.31107112438E+03  0.00000000000E+00 0.  1.
          1    1    6    6  503    0  0.55656179587E+01  0.14985255687E+03  0.53319045679E+03  0.55387618482E+03  0.00000000000E+00 0. -1.
         -1    1    6    6    0  503  0.10738444868E+03  0.28986609982E+03  0.15130676764E+04  0.15443210706E+04  0.00000000000E+00 0.  1.
<mgrwt>
<rscale>  0 0.18106788E+04</rscale>
<asrwt>0</asrwt>
<pdfrwt beam="1">  1        2 0.40027060E+00 0.18106788E+04</pdfrwt>
<pdfrwt beam="2">  1       -1 0.48466584E-01 0.18106788E+04</pdfrwt>
<totfact> 0.13907370E+01</totfact>
</mgrwt>
</event>
<event>
12    7  0.1675873E-007  0.2481363E+04  0.7818608E-02  0.8409655E-01
          2   -1    0    0  501    0  0.00000000000E+00  0.00000000000E+00  0.27958200961E+04  0.27958200961E+04  0.00000000000E+00 0. -1.
         -3   -1    0    0    0  501 -0.00000000000E+00 -0.00000000000E+00 -0.55056852864E+03  0.55056852864E+03  0.00000000000E+00 0.  1.
         24    2    1    2    0    0  0.32611566229E+02 -0.71629515317E+03 -0.10090544839E+03  0.72845837681E+03  0.79545185368E+02 0.  0.
        254    2    1    2    0    0 -0.32611566229E+02  0.71629515317E+03  0.23461570158E+04  0.26179302479E+04  0.91376352481E+03 0.  0.
         23    2    4    4    0    0  0.25546014034E+02 -0.20000352844E+03  0.28985847500E+03  0.36410471415E+03  0.88883615588E+02 0.  0.
         23    2    4    4    0    0 -0.58157580263E+02  0.91629868161E+03  0.20562985408E+04  0.22538255337E+04  0.91543811975E+02 0.  0.
          2    1    3    3  502    0  0.93876191729E+01 -0.24731876503E+02  0.87654995176E+01  0.27868029907E+02  0.00000000000E+00 0. -1.
         -1    1    3    3    0  502  0.23223947056E+02 -0.69156327667E+03 -0.10967094791E+03  0.70059034690E+03  0.00000000000E+00 0.  1.
         13    1    5    5    0    0 -0.48238121177E+01 -0.81435827840E+02  0.18775830620E+03  0.20471503308E+03  0.00000000000E+00 0. -1.
        -13    1    5    5    0    0  0.30369826152E+02 -0.11856770060E+03  0.10210016879E+03  0.15938968108E+03  0.00000000000E+00 0.  1.
          1    1    6    6  503    0 -0.28957310556E+02  0.90033096740E+02  0.17652456352E+03  0.20026334130E+03  0.00000000000E+00 0. -1.
         -1    1    6    6    0  503 -0.29200269707E+02  0.82626558487E+03  0.18797739773E+04  0.20535621924E+04  0.00000000000E+00 0.  1.
<mgrwt>
<rscale>  0 0.24813630E+04</rscale>
<asrwt>0</asrwt>
<pdfrwt beam="1">  1        2 0.43012616E+00 0.24813630E+04</pdfrwt>
<pdfrwt beam="2">  1       -3 0.84702852E-01 0.24813630E+04</pdfrwt>
<totfact> 0.17035336E+00</totfact>
</mgrwt>
</event>
<event>
12    7  0.1675873E-007  0.1357112E+04  0.7818608E-02  0.8985462E-01
         -1   -1    0    0    0  501 -0.00000000000E+00  0.00000000000E+00  0.18706489963E+03  0.18706489963E+03  0.00000000000E+00 0.  1.
          2   -1    0    0  501    0  0.00000000000E+00 -0.00000000000E+00 -0.24613809164E+04  0.24613809164E+04  0.00000000000E+00 0. -1.
         24    2    1    2    0    0  0.30244926208E+03 -0.21327409382E+03 -0.51168354157E+03  0.63678444844E+03  0.81932849516E+02 0.  0.
        254    2    1    2    0    0 -0.30244926208E+03  0.21327409382E+03 -0.17626324752E+04  0.20116613676E+04  0.89607299929E+03 0.  0.
         23    2    4    4    0    0 -0.11219165559E+03  0.25971621148E+03 -0.70379304109E+02  0.30571665813E+03  0.92032334096E+02 0.  0.
         23    2    4    4    0    0 -0.19025760650E+03 -0.46442117664E+02 -0.16922531711E+04  0.17059447095E+04  0.90397619364E+02 0.  0.
          4    1    3    3  502    0  0.17465153922E+02 -0.43143944543E+02 -0.75276162649E+02  0.88503854241E+02  0.00000000000E+00 0. -1.
         -3    1    3    3    0  502  0.28498410816E+03 -0.17013014928E+03 -0.43640737892E+03  0.54828059420E+03  0.00000000000E+00 0.  1.
         13    1    5    5    0    0 -0.33439394274E+02  0.52193751307E+02  0.21329801054E+02  0.65554108779E+02  0.00000000000E+00 0. -1.
        -13    1    5    5    0    0 -0.78752261314E+02  0.20752246018E+03 -0.91709105163E+02  0.24016254935E+03  0.00000000000E+00 0.  1.
          1    1    6    6  503    0 -0.16908629197E+03 -0.59094539529E+01 -0.13881684097E+04  0.13984407851E+04  0.00000000000E+00 0. -1.
         -1    1    6    6    0  503 -0.21171314526E+02 -0.40532663711E+02 -0.30408476138E+03  0.30750392435E+03  0.00000000000E+00 0.  1.
<mgrwt>
<rscale>  0 0.13571116E+04</rscale>
<asrwt>0</asrwt>
<pdfrwt beam="1">  1        2 0.37867398E+00 0.13571116E+04</pdfrwt>
<pdfrwt beam="2">  1       -1 0.28779216E-01 0.13571116E+04</pdfrwt>
<totfact> 0.44893277E+01</totfact>
</mgrwt>
</event>
<event>
12    7  0.1675873E-007  0.1413149E+04  0.7818608E-02  0.8944355E-01
          2   -1    0    0  501    0  0.00000000000E+00  0.00000000000E+00  0.81140199653E+03  0.81140199653E+03  0.00000000000E+00 0. -1.
         -1   -1    0    0    0  501 -0.00000000000E+00 -0.00000000000E+00 -0.61528986794E+03  0.61528986794E+03  0.00000000000E+00 0.  1.
         24    2    1    2    0    0 -0.10747186291E+03  0.35360965513E+03 -0.13282490414E+03  0.39977843936E+03  0.74768682572E+02 0.  0.
        254    2    1    2    0    0  0.10747186291E+03 -0.35360965513E+03  0.32893703274E+03  0.10269134251E+04  0.89986755784E+03 0.  0.
         23    2    4    4    0    0  0.24033994157E+03  0.78891218520E+02 -0.19184801914E+03  0.33108278351E+03  0.93931013052E+02 0.  0.
         23    2    4    4    0    0 -0.13286807866E+03 -0.43250087365E+03  0.52078505188E+03  0.69583064160E+03  0.90842057957E+02 0.  0.
          2    1    3    3  502    0 -0.24025809024E+02  0.18671997360E+02 -0.15021905968E+01  0.30465382999E+02  0.00000000000E+00 0. -1.
         -1    1    3    3    0  502 -0.83446053889E+02  0.33493765777E+03 -0.13132271354E+03  0.36931305636E+03  0.00000000000E+00 0.  1.
         13    1    5    5    0    0 -0.83905471311E+01  0.54522128835E+01 -0.36647641022E+01  0.10656378485E+02  0.00000000000E+00 0. -1.
        -13    1    5    5    0    0  0.24873048870E+03  0.73439005636E+02 -0.18818325504E+03  0.32042640503E+03  0.00000000000E+00 0.  1.
          1    1    6    6  503    0 -0.52245390906E+02 -0.20813639331E+03  0.18091513821E+03  0.28067886690E+03  0.00000000000E+00 0. -1.
         -1    1    6    6    0  503 -0.80622687754E+02 -0.22436448034E+03  0.33986991367E+03  0.41515177470E+03  0.00000000000E+00 0.  1.
<mgrwt>
<rscale>  0 0.14131489E+04</rscale>
<asrwt>0</asrwt>
<pdfrwt beam="1">  1        2 0.12483108E+00 0.14131489E+04</pdfrwt>
<pdfrwt beam="2">  1       -1 0.94659980E-01 0.14131489E+04</pdfrwt>
<totfact> 0.40519946E+01</totfact>
</mgrwt>
</event>
<event>
12    7  0.1675873E-007  0.1381042E+04  0.7818608E-02  0.8967656E-01
         -1   -1    0    0    0  501 -0.00000000000E+00  0.00000000000E+00  0.47456743542E+03  0.47456743542E+03  0.00000000000E+00 0.  1.
          2   -1    0    0  501    0  0.00000000000E+00 -0.00000000000E+00 -0.10047456860E+04  0.10047456860E+04  0.00000000000E+00 0. -1.
         24    2    1    2    0    0  0.18777818512E+03 -0.21999253260E+03  0.12723106717E+03  0.32692007153E+03  0.83854800148E+02 0.  0.
        254    2    1    2    0    0 -0.18777818512E+03  0.21999253260E+03 -0.65740931771E+03  0.11523930498E+04  0.90120217992E+03 0.  0.
         23    2    4    4    0    0  0.22372404705E+03  0.40437126409E+03 -0.43539954399E+03  0.64171956142E+03  0.93073434165E+02 0.  0.
         23    2    4    4    0    0 -0.41150223217E+03 -0.18437873149E+03 -0.22200977372E+03  0.51067348842E+03  0.90385111856E+02 0.  0.
          2    1    3    3  502    0  0.45781371402E+02 -0.87580023707E+01  0.18767476574E+02  0.50247932793E+02  0.00000000000E+00 0. -1.
         -3    1    3    3    0  502  0.14199681372E+03 -0.21123453023E+03  0.10846359060E+03  0.27667213874E+03  0.00000000000E+00 0.  1.
         13    1    5    5    0    0  0.12218643365E+03  0.23533055749E+03 -0.18652899970E+03  0.32419602648E+03  0.00000000000E+00 0.  1.
        -13    1    5    5    0    0  0.10153761339E+03  0.16904070660E+03 -0.24887054429E+03  0.31752353493E+03  0.00000000000E+00 0. -1.
          3    1    6    6  503    0 -0.49788652993E+00 -0.68160111490E+01  0.52121581521E+01  0.85949107955E+01  0.00000000000E+00 0. -1.
         -3    1    6    6    0  503 -0.41100434564E+03 -0.17756272034E+03 -0.22722193187E+03  0.50207857763E+03  0.00000000000E+00 0.  1.
<mgrwt>
<rscale>  0 0.13810425E+04</rscale>
<asrwt>0</asrwt>
<pdfrwt beam="1">  1        2 0.15457626E+00 0.13810425E+04</pdfrwt>
<pdfrwt beam="2">  1       -1 0.73010375E-01 0.13810425E+04</pdfrwt>
<totfact> 0.52605264E+01</totfact>
</mgrwt>
</event>
<event>
12    7  0.1675873E-007  0.1269460E+04  0.7818608E-02  0.9054141E-01
         -1   -1    0    0    0  501 -0.00000000000E+00  0.00000000000E+00  0.30148775339E+03  0.30148775339E+03  0.00000000000E+00 0.  1.
          2   -1    0    0  501    0  0.00000000000E+00 -0.00000000000E+00 -0.13363128026E+04  0.13363128026E+04  0.00000000000E+00 0. -1.
         24    2    1    2    0    0 -0.19128122518E+03 -0.19879662345E+03 -0.75575913558E+02  0.29723383344E+03  0.80793740028E+02 0.  0.
        254    2    1    2    0    0  0.19128122518E+03  0.19879662345E+03 -0.95924913570E+03  0.13405667226E+04  0.89490313935E+03 0.  0.
         23    2    4    4    0    0  0.35290616386E+03  0.32555816299E+03 -0.16592372814E+03  0.51603027602E+03  0.90695557922E+02 0.  0.
         23    2    4    4    0    0 -0.16162493869E+03 -0.12676153954E+03 -0.79332540755E+03  0.82453644658E+03  0.91126509660E+02 0.  0.
          2    1    3    3  502    0 -0.14251934318E+03 -0.98514530098E+02 -0.65684493912E+02  0.18528715164E+03  0.00000000000E+00 0. -1.
         -1    1    3    3    0  502 -0.48761881997E+02 -0.10028209335E+03 -0.98914196455E+01  0.11194668180E+03  0.00000000000E+00 0.  1.
         13    1    5    5    0    0  0.33708477027E+03  0.30756368640E+03 -0.13298084044E+03  0.47529513722E+03  0.00000000000E+00 0.  1.
        -13    1    5    5    0    0  0.15821393597E+02  0.17994476586E+02 -0.32942887703E+02  0.40735138802E+02  0.00000000000E+00 0. -1.
          3    1    6    6  503    0 -0.25522376915E+01 -0.13604754461E+02 -0.95522953618E+01  0.16818133305E+02  0.00000000000E+00 0. -1.
         -3    1    6    6    0  503 -0.15907270099E+03 -0.11315678508E+03 -0.78377311219E+03  0.80771831328E+03  0.00000000000E+00 0.  1.
<mgrwt>
<rscale>  0 0.12694596E+04</rscale>
<asrwt>0</asrwt>
<pdfrwt beam="1">  1        2 0.20558658E+00 0.12694596E+04</pdfrwt>
<pdfrwt beam="2">  1       -1 0.46382733E-01 0.12694596E+04</pdfrwt>
<totfact> 0.81539632E+01</totfact>
</mgrwt>
</event>
<event>
12    7  0.1675873E-007  0.2489677E+04  0.7818608E-02  0.8406672E-01
         -1   -1    0    0    0  501 -0.00000000000E+00  0.00000000000E+00  0.42344871080E+03  0.42344871080E+03  0.00000000000E+00 0.  1.
          2   -1    0    0  501    0  0.00000000000E+00 -0.00000000000E+00 -0.36595297145E+04  0.36595297145E+04  0.00000000000E+00 0. -1.
         24    2    1    2    0    0 -0.90034221843E+03  0.58415195700E+03 -0.11990384152E+04  0.16110421384E+04  0.76902739842E+02 0.  0.
        254    2    1    2    0    0  0.90034221843E+03 -0.58415195700E+03 -0.20370425884E+04  0.24719362869E+04  0.89948700936E+03 0.  0.
         23    2    4    4    0    0  0.57537627956E+03  0.14189601763E+03 -0.87076628054E+03  0.10572650356E+04  0.91559255315E+02 0.  0.
         23    2    4    4    0    0  0.32496593888E+03 -0.72604797463E+03 -0.11662763079E+04  0.14146712513E+04  0.91355349791E+02 0.  0.
          2    1    3    3  502    0 -0.58286068559E+03  0.33663892080E+03 -0.76978200269E+03  0.10225539954E+04  0.00000000000E+00 0. -1.
         -1    1    3    3    0  502 -0.31748153284E+03  0.24751303621E+03 -0.42925641251E+03  0.58848814302E+03  0.00000000000E+00 0.  1.
         13    1    5    5    0    0  0.15107625280E+02 -0.11149180695E+02 -0.30267016908E+02  0.35617929253E+02  0.00000000000E+00 0.  1.
        -13    1    5    5    0    0  0.56026865428E+03  0.15304519832E+03 -0.84049926363E+03  0.10216471063E+04  0.00000000000E+00 0. -1.
          2    1    6    6  503    0  0.36705054835E+02 -0.91438016156E+02 -0.96892832947E+02  0.13818969906E+03  0.00000000000E+00 0.  1.
         -2    1    6    6    0  503  0.28826088404E+03 -0.63460995848E+03 -0.10693834750E+04  0.12764815522E+04  0.00000000000E+00 0. -1.
<mgrwt>
<rscale>  0 0.24896772E+04</rscale>
<asrwt>0</asrwt>
<pdfrwt beam="1">  1        2 0.56300459E+00 0.24896772E+04</pdfrwt>
<pdfrwt beam="2">  1       -1 0.65145953E-01 0.24896772E+04</pdfrwt>
<totfact> 0.15188353E+00</totfact>
</mgrwt>
</event>
<event>
12    7  0.1675873E-007  0.2925507E+04  0.7818608E-02  0.8265329E-01
         -1   -1    0    0    0  501 -0.00000000000E+00  0.00000000000E+00  0.57608952206E+03  0.57608952206E+03  0.00000000000E+00 0.  1.
          2   -1    0    0  501    0  0.00000000000E+00 -0.00000000000E+00 -0.37140897765E+04  0.37140897765E+04  0.00000000000E+00 0. -1.
         24    2    1    2    0    0 -0.69436173228E+03  0.95808452465E+03 -0.22844736509E+04  0.25738243117E+04  0.75415875239E+02 0.  0.
        254    2    1    2    0    0  0.69436173228E+03 -0.95808452465E+03 -0.85352660352E+03  0.17163549868E+04  0.90404790042E+03 0.  0.
         23    2    4    4    0    0 -0.12166093036E+03  0.74150533591E+02 -0.13159608785E+03  0.21278252447E+03  0.87516791378E+02 0.  0.
         23    2    4    4    0    0  0.81602266264E+03 -0.10322350582E+04 -0.72193051566E+03  0.15035724624E+04  0.90245657568E+02 0.  0.
          2    1    3    3  502    0 -0.55108838859E+03  0.71083708608E+03 -0.17634559190E+04  0.19795869653E+04  0.00000000000E+00 0. -1.
         -1    1    3    3    0  502 -0.14327334369E+03  0.24724743858E+03 -0.52101773193E+03  0.59423734642E+03  0.00000000000E+00 0.  1.
         13    1    5    5    0    0 -0.25005361988E+02  0.40085548108E+02 -0.91035646468E+02  0.10256514136E+03  0.00000000000E+00 0.  1.
        -13    1    5    5    0    0 -0.96655568369E+02  0.34064985483E+02 -0.40560441387E+02  0.11021738310E+03  0.00000000000E+00 0. -1.
          4    1    6    6  503    0  0.51701646003E+03 -0.62116912700E+03 -0.48727145425E+03  0.94371106511E+03  0.00000000000E+00 0. -1.
         -4    1    6    6    0  503  0.29900620261E+03 -0.41106593125E+03 -0.23465906141E+03  0.55986139725E+03  0.00000000000E+00 0.  1.
<mgrwt>
<rscale>  0 0.29255073E+04</rscale>
<asrwt>0</asrwt>
<pdfrwt beam="1">  1        2 0.57139842E+00 0.29255073E+04</pdfrwt>
<pdfrwt beam="2">  1       -1 0.88629158E-01 0.29255073E+04</pdfrwt>
<totfact> 0.69646151E-01</totfact>
</mgrwt>
</event>
<event>
12    7  0.1675873E-007  0.2587505E+04  0.7818608E-02  0.8372458E-01
         -1   -1    0    0    0  501 -0.00000000000E+00  0.00000000000E+00  0.11844035172E+04  0.11844035172E+04  0.00000000000E+00 0.  1.
          2   -1    0    0  501    0  0.00000000000E+00 -0.00000000000E+00 -0.14131970081E+04  0.14131970081E+04  0.00000000000E+00 0. -1.
         24    2    1    2    0    0  0.24764949725E+03  0.11093272397E+04 -0.54116721675E+02  0.11406569633E+04  0.78946121964E+02 0.  0.
        254    2    1    2    0    0 -0.24764949725E+03 -0.11093272397E+04 -0.17467676930E+03  0.14569435620E+04  0.89455875779E+03 0.  0.
         23    2    4    4    0    0  0.12088994162E+03 -0.51745081570E+02 -0.28563502862E+03  0.32786410375E+03  0.92820092109E+02 0.  0.
         23    2    4    4    0    0 -0.36853943888E+03 -0.10575821581E+04  0.11095825932E+03  0.11290794583E+04  0.90594418953E+02 0.  0.
          2    1    3    3  502    0  0.88086317331E+02  0.31512165618E+03  0.15700483445E+02  0.32757802532E+03  0.00000000000E+00 0. -1.
         -1    1    3    3    0  502  0.15956317992E+03  0.79420558347E+03 -0.69817205120E+02  0.81307893795E+03  0.00000000000E+00 0.  1.
         13    1    5    5    0    0  0.40855860105E+02 -0.65062522487E+02 -0.17054189047E+03  0.18704777342E+03  0.00000000000E+00 0.  1.
        -13    1    5    5    0    0  0.80034081519E+02  0.13317440917E+02 -0.11509313815E+03  0.14081633033E+03  0.00000000000E+00 0. -1.
          2    1    6    6  503    0 -0.19873559728E+03 -0.58882725611E+03  0.16700043716E+02  0.62168502203E+03  0.00000000000E+00 0. -1.
         -2    1    6    6    0  503 -0.16980384160E+03 -0.46875490197E+03  0.94258215602E+02  0.50739443627E+03  0.00000000000E+00 0.  1.
<mgrwt>
<rscale>  0 0.25875050E+04</rscale>
<asrwt>0</asrwt>
<pdfrwt beam="1">  1        2 0.21741492E+00 0.25875050E+04</pdfrwt>
<pdfrwt beam="2">  1       -1 0.18221593E+00 0.25875050E+04</pdfrwt>
<totfact> 0.28780762E+00</totfact>
</mgrwt>
</event>
<event>
12    7  0.1675873E-007  0.3339655E+04  0.7818608E-02  0.8152878E-01
         -1   -1    0    0    0  501 -0.00000000000E+00  0.00000000000E+00  0.20453466853E+04  0.20453466853E+04  0.00000000000E+00 0.  1.
          2   -1    0    0  501    0  0.00000000000E+00 -0.00000000000E+00 -0.13632528253E+04  0.13632528253E+04  0.00000000000E+00 0. -1.
         24    2    1    2    0    0  0.23866509409E+03 -0.51935214893E+03 -0.11498869131E+04  0.12865668421E+04  0.79540207590E+02 0.  0.
        254    2    1    2    0    0 -0.23866509409E+03  0.51935214893E+03  0.18319807731E+04  0.21220326686E+04  0.90563867620E+03 0.  0.
         23    2    4    4    0    0 -0.26270070106E+03  0.23306435627E+03  0.17780680154E+04  0.18148543724E+04  0.94020598017E+02 0.  0.
         23    2    4    4    0    0  0.24035606968E+02  0.28628779266E+03  0.53912757623E+02  0.30717829620E+03  0.94411384864E+02 0.  0.
          2    1    3    3  502    0  0.17511968222E+03 -0.34526877400E+03 -0.85047796708E+03  0.93444646818E+03  0.00000000000E+00 0. -1.
         -1    1    3    3    0  502  0.63545411869E+02 -0.17408337493E+03 -0.29940894598E+03  0.35212037392E+03  0.00000000000E+00 0.  1.
         13    1    5    5    0    0 -0.20562217826E+03  0.12635187278E+03  0.12516294493E+04  0.12746848843E+04  0.00000000000E+00 0. -1.
        -13    1    5    5    0    0 -0.57078522800E+02  0.10671248349E+03  0.52643856613E+03  0.54016948804E+03  0.00000000000E+00 0.  1.
          1    1    6    6  503    0 -0.13044979634E+02  0.23956771148E+03  0.59737794740E+02  0.24724777855E+03  0.00000000000E+00 0. -1.
         -1    1    6    6    0  503  0.37080586602E+02  0.46720081185E+02 -0.58250371176E+01  0.59930517653E+02  0.00000000000E+00 0.  1.
<mgrwt>
<rscale>  0 0.33396555E+04</rscale>
<asrwt>0</asrwt>
<pdfrwt beam="1">  1        2 0.20973120E+00 0.33396555E+04</pdfrwt>
<pdfrwt beam="2">  1       -1 0.31466872E+00 0.33396555E+04</pdfrwt>
<totfact> 0.38181826E-01</totfact>
</mgrwt>
</event>
<event>
12    7  0.1675873E-007  0.2602911E+04  0.7818608E-02  0.8367213E-01
          2   -1    0    0  501    0  0.00000000000E+00  0.00000000000E+00  0.22129135512E+04  0.22129135512E+04  0.00000000000E+00 0. -1.
         -1   -1    0    0    0  501 -0.00000000000E+00 -0.00000000000E+00 -0.76541040070E+03  0.76541040070E+03  0.00000000000E+00 0.  1.
         24    2    1    2    0    0 -0.43040719395E+02 -0.36369170919E+03 -0.60178800742E+03  0.70915556500E+03  0.81416501028E+02 0.  0.
        254    2    1    2    0    0  0.43040719395E+02  0.36369170919E+03  0.20492911579E+04  0.22691683869E+04  0.90299875708E+03 0.  0.
         23    2    4    4    0    0 -0.17119228677E+03  0.53287912183E+03  0.75667726578E+03  0.94507203762E+03  0.85637107644E+02 0.  0.
         23    2    4    4    0    0  0.21423300616E+03 -0.16918741264E+03  0.12926138922E+04  0.13240963493E+04  0.88658369503E+02 0.  0.
          2    1    3    3  502    0 -0.85624527493E+01 -0.66846795222E+01 -0.31775467032E+01  0.11318009562E+02  0.00000000000E+00 0. -1.
         -1    1    3    3    0  502 -0.34478266645E+02 -0.35700702967E+03 -0.59861046072E+03  0.69783755544E+03  0.00000000000E+00 0.  1.
         13    1    5    5    0    0 -0.12193260495E+03  0.34824374463E+03  0.42996836344E+03  0.56658102632E+03  0.00000000000E+00 0.  1.
        -13    1    5    5    0    0 -0.49259681819E+02  0.18463537721E+03  0.32670890234E+03  0.37849101131E+03  0.00000000000E+00 0. -1.
          4    1    6    6  503    0  0.15113063202E+03 -0.15785208499E+03  0.10857719656E+04  0.11075461661E+04  0.00000000000E+00 0. -1.
         -4    1    6    6    0  503  0.63102374143E+02 -0.11335327655E+02  0.20684192652E+03  0.21655018319E+03  0.00000000000E+00 0.  1.
<mgrwt>
<rscale>  0 0.26029115E+04</rscale>
<asrwt>0</asrwt>
<pdfrwt beam="1">  1        2 0.34044824E+00 0.26029115E+04</pdfrwt>
<pdfrwt beam="2">  1       -1 0.11775545E+00 0.26029115E+04</pdfrwt>
<totfact> 0.33110429E+00</totfact>
</mgrwt>
</event>
<event>
12    7  0.1675873E-007  0.1803659E+04  0.7818608E-02  0.8704356E-01
         -1   -1    0    0    0  501 -0.00000000000E+00  0.00000000000E+00  0.27512457671E+03  0.27512457671E+03  0.00000000000E+00 0.  1.
          2   -1    0    0  501    0  0.00000000000E+00 -0.00000000000E+00 -0.29561014530E+04  0.29561014530E+04  0.00000000000E+00 0. -1.
         24    2    1    2    0    0  0.19740405619E+03  0.58063831143E+03 -0.14693941664E+04  0.15942361118E+04  0.79751826752E+02 0.  0.
        254    2    1    2    0    0 -0.19740405619E+03 -0.58063831143E+03 -0.12115827099E+04  0.16369899179E+04  0.91416306987E+03 0.  0.
         23    2    4    4    0    0  0.11485096523E+03 -0.57672690237E+03 -0.11651635488E+04  0.13085151551E+04  0.93814452992E+02 0.  0.
         23    2    4    4    0    0 -0.31225502142E+03 -0.39114090583E+01 -0.46419161136E+02  0.32847476282E+03  0.90677636533E+02 0.  0.
          4    1    3    3  502    0  0.19761431731E+03  0.58142435572E+03 -0.14481074136E+04  0.15729338133E+04  0.00000000000E+00 0. -1.
         -1    1    3    3    0  502 -0.21026111854E+00 -0.78604429585E+00 -0.21286752831E+02  0.21302298502E+02  0.00000000000E+00 0.  1.
         13    1    5    5    0    0  0.12957598313E+03 -0.46519004290E+03 -0.93629583394E+03  0.10534901993E+04  0.00000000000E+00 0.  1.
        -13    1    5    5    0    0 -0.14725017903E+02 -0.11153685947E+03 -0.22886771485E+03  0.25502495579E+03  0.00000000000E+00 0. -1.
          3    1    6    6  503    0 -0.20111320627E+02  0.20847921316E+02  0.84912126465E+01  0.30186118213E+02  0.00000000000E+00 0. -1.
         -3    1    6    6    0  503 -0.29214370079E+03 -0.24759330374E+02 -0.54910373783E+02  0.29828864461E+03  0.00000000000E+00 0.  1.
<mgrwt>
<rscale>  0 0.18036587E+04</rscale>
<asrwt>0</asrwt>
<pdfrwt beam="1">  1        2 0.45478482E+00 0.18036587E+04</pdfrwt>
<pdfrwt beam="2">  1       -1 0.42326860E-01 0.18036587E+04</pdfrwt>
<totfact> 0.10976185E+01</totfact>
</mgrwt>
</event>
<event>
12    7  0.1675873E-007  0.1324628E+04  0.7818608E-02  0.9010260E-01
         -1   -1    0    0    0  501 -0.00000000000E+00  0.00000000000E+00  0.37557597829E+03  0.37557597829E+03  0.00000000000E+00 0.  1.
          2   -1    0    0  501    0  0.00000000000E+00 -0.00000000000E+00 -0.11679658942E+04  0.11679658942E+04  0.00000000000E+00 0. -1.
         24    2    1    2    0    0 -0.21285168502E+03 -0.29549849875E+02 -0.52888783566E+03  0.57697790308E+03  0.83678697908E+02 0.  0.
        254    2    1    2    0    0  0.21285168502E+03  0.29549849875E+02 -0.26350208025E+03  0.96656396941E+03  0.90478369085E+03 0.  0.
         23    2    4    4    0    0 -0.16054708368E+03 -0.20125067064E+03  0.18623802857E+03  0.33138170657E+03  0.94085246733E+02 0.  0.
         23    2    4    4    0    0  0.37339876870E+03  0.23080052052E+03 -0.44974010882E+03  0.63518226284E+03  0.92167352229E+02 0.  0.
          2    1    3    3  502    0 -0.12013696077E+03 -0.21564699287E+02 -0.39860243319E+03  0.41687147341E+03  0.00000000000E+00 0. -1.
         -1    1    3    3    0  502 -0.92714724254E+02 -0.79851505882E+01 -0.13028540247E+03  0.16010642967E+03  0.00000000000E+00 0.  1.
         13    1    5    5    0    0 -0.29831139473E+02 -0.24249039972E+02 -0.63529461288E+01  0.38965019522E+02  0.00000000000E+00 0. -1.
        -13    1    5    5    0    0 -0.13071594420E+03 -0.17700163067E+03  0.19259097470E+03  0.29241668705E+03  0.00000000000E+00 0.  1.
          3    1    6    6  503    0  0.12699964336E+03  0.30480922581E+02 -0.14314348562E+03  0.19377320127E+03  0.00000000000E+00 0. -1.
         -3    1    6    6    0  503  0.24639912534E+03  0.20031959793E+03 -0.30659662320E+03  0.44140906158E+03  0.00000000000E+00 0.  1.
<mgrwt>
<rscale>  0 0.13246281E+04</rscale>
<asrwt>0</asrwt>
<pdfrwt beam="1">  1        2 0.17968706E+00 0.13246281E+04</pdfrwt>
<pdfrwt beam="2">  1       -1 0.57780921E-01 0.13246281E+04</pdfrwt>
<totfact> 0.67022780E+01</totfact>
</mgrwt>
</event>
<event>
12    7  0.1675873E-007  0.1900424E+04  0.7818608E-02  0.8654645E-01
         -1   -1    0    0    0  501 -0.00000000000E+00  0.00000000000E+00  0.10356147815E+04  0.10356147815E+04  0.00000000000E+00 0.  1.
          2   -1    0    0  501    0  0.00000000000E+00 -0.00000000000E+00 -0.87185219518E+03  0.87185219518E+03  0.00000000000E+00 0. -1.
         24    2    1    2    0    0  0.67359677816E+03  0.11201004618E+03  0.32984281021E+03  0.76271608220E+03  0.81612943883E+02 0.  0.
        254    2    1    2    0    0 -0.67359677816E+03 -0.11201004618E+03 -0.16608022384E+03  0.11447508945E+04  0.90365540986E+03 0.  0.
         23    2    4    4    0    0  0.19476826715E+03 -0.10340117423E+03 -0.12825180070E+03  0.27098930332E+03  0.91434115129E+02 0.  0.
         23    2    4    4    0    0 -0.86836504531E+03 -0.86088719508E+01 -0.37828423144E+02  0.87376159120E+03  0.88861488101E+02 0.  0.
          2    1    3    3  502    0  0.25594737801E+02 -0.85573694581E+01  0.34539149081E+01  0.27207511892E+02  0.00000000000E+00 0. -1.
         -1    1    3    3    0  502  0.64800204036E+03  0.12056741564E+03  0.32638889530E+03  0.73550857031E+03  0.00000000000E+00 0.  1.
         13    1    5    5    0    0  0.23498576246E+02  0.12526702824E+02 -0.35372663547E+02  0.44275576740E+02  0.00000000000E+00 0.  1.
        -13    1    5    5    0    0  0.17126969091E+03 -0.11592787706E+03 -0.92879137150E+02  0.22671372658E+03  0.00000000000E+00 0. -1.
          3    1    6    6  503    0 -0.39904948460E+03  0.25066970558E+02 -0.50867500460E+02  0.40305873862E+03  0.00000000000E+00 0. -1.
         -3    1    6    6    0  503 -0.46931556071E+03 -0.33675842508E+02  0.13039077316E+02  0.47070285259E+03  0.00000000000E+00 0.  1.
<mgrwt>
<rscale>  0 0.19004242E+04</rscale>
<asrwt>0</asrwt>
<pdfrwt beam="1">  1        2 0.13413111E+00 0.19004242E+04</pdfrwt>
<pdfrwt beam="2">  1       -1 0.15932535E+00 0.19004242E+04</pdfrwt>
<totfact> 0.96864785E+00</totfact>
</mgrwt>
</event>
<event>
12    7  0.1675873E-007  0.1536076E+04  0.7818608E-02  0.8860811E-01
          2   -1    0    0  501    0  0.00000000000E+00  0.00000000000E+00  0.12603674883E+04  0.12603674883E+04  0.00000000000E+00 0. -1.
         -1   -1    0    0    0  501 -0.00000000000E+00 -0.00000000000E+00 -0.46802392663E+03  0.46802392663E+03  0.00000000000E+00 0.  1.
         24    2    1    2    0    0  0.32756173092E+03 -0.35651995243E+03  0.14601914716E+03  0.51215132379E+03  0.81081582908E+02 0.  0.
        254    2    1    2    0    0 -0.32756173092E+03  0.35651995243E+03  0.64632441455E+03  0.12162400912E+04  0.90945123370E+03 0.  0.
         23    2    4    4    0    0 -0.43361107860E+03  0.34763296847E+03  0.81969322344E+03  0.99456397174E+03  0.91614764447E+02 0.  0.
         23    2    4    4    0    0  0.10604934769E+03  0.88869839582E+01 -0.17336880889E+03  0.22167611943E+03  0.88080164643E+02 0.  0.
          4    1    3    3  502    0  0.19124911253E+03 -0.18389913659E+03  0.11815640879E+03  0.29044113417E+03  0.00000000000E+00 0. -1.
         -3    1    3    3    0  502  0.13631261839E+03 -0.17262081584E+03  0.27862738370E+02  0.22171018962E+03  0.00000000000E+00 0.  1.
         13    1    5    5    0    0 -0.14053832023E+03  0.72751513797E+02  0.28133130958E+03  0.32278647426E+03  0.00000000000E+00 0. -1.
        -13    1    5    5    0    0 -0.29307275837E+03  0.27488145467E+03  0.53836191386E+03  0.67177749748E+03  0.00000000000E+00 0.  1.
          4    1    6    6  503    0  0.32011561152E+02  0.43027578304E+02 -0.91994300936E+02  0.10648504095E+03  0.00000000000E+00 0. -1.
         -4    1    6    6    0  503  0.74037786534E+02 -0.34140594346E+02 -0.81374507952E+02  0.11519107848E+03  0.00000000000E+00 0.  1.
<mgrwt>
<rscale>  0 0.15360757E+04</rscale>
<asrwt>0</asrwt>
<pdfrwt beam="1">  1        2 0.19390269E+00 0.15360757E+04</pdfrwt>
<pdfrwt beam="2">  1       -1 0.72003682E-01 0.15360757E+04</pdfrwt>
<totfact> 0.37294468E+01</totfact>
</mgrwt>
</event>
<event>
12    7  0.1675873E-007  0.1372305E+04  0.7818608E-02  0.8974113E-01
         -1   -1    0    0    0  501 -0.00000000000E+00  0.00000000000E+00  0.37399103130E+03  0.37399103130E+03  0.00000000000E+00 0.  1.
          2   -1    0    0  501    0  0.00000000000E+00 -0.00000000000E+00 -0.12588686554E+04  0.12588686554E+04  0.00000000000E+00 0. -1.
         24    2    1    2    0    0  0.43079520406E+02 -0.27605581612E+03 -0.56863656015E+03  0.63863010822E+03  0.80238512540E+02 0.  0.
        254    2    1    2    0    0 -0.43079520406E+02  0.27605581612E+03 -0.31624106396E+03  0.99422957849E+03  0.90023407262E+03 0.  0.
         23    2    4    4    0    0 -0.21867009480E+03 -0.93073230257E+02 -0.48134219668E+03  0.54440028099E+03  0.90565551317E+02 0.  0.
         23    2    4    4    0    0  0.17559057440E+03  0.36912904638E+03  0.16510113272E+03  0.44982929749E+03  0.89441098834E+02 0.  0.
          2    1    3    3  502    0  0.57866256925E+02 -0.24238982529E+03 -0.44960561793E+03  0.51404916377E+03  0.00000000000E+00 0. -1.
         -1    1    3    3    0  502 -0.14786736519E+02 -0.33665990832E+02 -0.11903094222E+03  0.12458094445E+03  0.00000000000E+00 0.  1.
         13    1    5    5    0    0 -0.15084662318E+01 -0.12214403847E+02 -0.26781111982E+01  0.12595213825E+02  0.00000000000E+00 0. -1.
        -13    1    5    5    0    0 -0.21716162857E+03 -0.80858826411E+02 -0.47866408548E+03  0.53180506717E+03  0.00000000000E+00 0.  1.
          3    1    6    6  503    0  0.22634823349E+02  0.13298869223E+03  0.75308539186E+02  0.15449823159E+03  0.00000000000E+00 0. -1.
         -3    1    6    6    0  503  0.15295575105E+03  0.23614035415E+03  0.89792593535E+02  0.29533106591E+03  0.00000000000E+00 0.  1.
<mgrwt>
<rscale>  0 0.13723055E+04</rscale>
<asrwt>0</asrwt>
<pdfrwt beam="1">  1        2 0.19367210E+00 0.13723055E+04</pdfrwt>
<pdfrwt beam="2">  1       -1 0.57537081E-01 0.13723055E+04</pdfrwt>
<totfact> 0.59437666E+01</totfact>
</mgrwt>
</event>
<event>
12    7  0.1675873E-007  0.1299132E+04  0.7818608E-02  0.9030254E-01
         -1   -1    0    0    0  501 -0.00000000000E+00  0.00000000000E+00  0.15849997888E+03  0.15849997888E+03  0.00000000000E+00 0.  1.
          2   -1    0    0  501    0  0.00000000000E+00 -0.00000000000E+00 -0.26620570989E+04  0.26620570989E+04  0.00000000000E+00 0. -1.
         24    2    1    2    0    0 -0.90842693990E+02 -0.31925286853E+03 -0.60169663333E+03  0.69223326879E+03  0.83506111970E+02 0.  0.
        254    2    1    2    0    0  0.90842693990E+02  0.31925286853E+03 -0.19018604867E+04  0.21283238090E+04  0.89583153325E+03 0.  0.
         23    2    4    4    0    0  0.16480992907E+03  0.67891415658E+02  0.80551101975E+01  0.19845201057E+03  0.86872082173E+02 0.  0.
         23    2    4    4    0    0 -0.73967235079E+02  0.25136145287E+03 -0.19099155969E+04  0.19298717984E+04  0.89296356214E+02 0.  0.
          4    1    3    3  502    0 -0.82340985700E+02 -0.31955991927E+03 -0.59788905849E+03  0.68291281010E+03  0.00000000000E+00 0. -1.
         -3    1    3    3    0  502 -0.85017082902E+01  0.30705074658E+00 -0.38075748444E+01  0.93204586909E+01  0.00000000000E+00 0.  1.
         13    1    5    5    0    0  0.16933810358E+03  0.55868377037E+02 -0.72572933147E+01  0.17846382598E+03  0.00000000000E+00 0. -1.
        -13    1    5    5    0    0 -0.45281745114E+01  0.12023038622E+02  0.15312403512E+02  0.19988184596E+02  0.00000000000E+00 0.  1.
          3    1    6    6  503    0 -0.81924600375E+02  0.12158157824E+03 -0.10474231014E+04  0.10576336197E+04  0.00000000000E+00 0. -1.
         -3    1    6    6    0  503  0.79573652960E+01  0.12977987463E+03 -0.86249249553E+03  0.87223817869E+03  0.00000000000E+00 0.  1.
<mgrwt>
<rscale>  0 0.12991320E+04</rscale>
<asrwt>0</asrwt>
<pdfrwt beam="1">  1        2 0.40954722E+00 0.12991320E+04</pdfrwt>
<pdfrwt beam="2">  1       -1 0.24384614E-01 0.12991320E+04</pdfrwt>
<totfact> 0.45956161E+01</totfact>
</mgrwt>
</event>
<event>
12    7  0.1675873E-007  0.2153278E+04  0.7818608E-02  0.8538130E-01
          2   -1    0    0  501    0  0.00000000000E+00  0.00000000000E+00  0.18586217408E+04  0.18586217408E+04  0.00000000000E+00 0. -1.
         -1   -1    0    0    0  501 -0.00000000000E+00 -0.00000000000E+00 -0.62366186563E+03  0.62366186563E+03  0.00000000000E+00 0.  1.
         24    2    1    2    0    0 -0.55331136888E+03  0.61890058156E+03  0.15755891835E+03  0.84858397761E+03  0.77965078796E+02 0.  0.
        254    2    1    2    0    0  0.55331136888E+03 -0.61890058156E+03  0.10774009568E+04  0.16336996288E+04  0.90498080348E+03 0.  0.
         23    2    4    4    0    0  0.77494519078E+03 -0.52655285279E+03  0.97967774863E+03  0.13586021452E+04  0.90737766641E+02 0.  0.
         23    2    4    4    0    0 -0.22163382191E+03 -0.92347728775E+02  0.97723208178E+02  0.27509748361E+03  0.92082278693E+02 0.  0.
          2    1    3    3  502    0 -0.48765942804E+03  0.57129526063E+03  0.15763520621E+03  0.76748866494E+03  0.00000000000E+00 0. -1.
         -1    1    3    3    0  502 -0.65651940840E+02  0.47605320933E+02 -0.76287853585E-01  0.81095312670E+02  0.00000000000E+00 0.  1.
         13    1    5    5    0    0  0.17490539635E+03 -0.15465127807E+03  0.28153118560E+03  0.36574406892E+03  0.00000000000E+00 0.  1.
        -13    1    5    5    0    0  0.60003979444E+03 -0.37190157471E+03  0.69814656303E+03  0.99285807629E+03  0.00000000000E+00 0. -1.
          3    1    6    6  503    0 -0.26141434970E+01  0.13300463415E+01  0.26222197345E+02  0.26385723471E+02  0.00000000000E+00 0.  1.
         -3    1    6    6    0  503 -0.21901967841E+03 -0.93677775117E+02  0.71501010833E+02  0.24871176014E+03  0.00000000000E+00 0. -1.
<mgrwt>
<rscale>  0 0.21532780E+04</rscale>
<asrwt>0</asrwt>
<pdfrwt beam="1">  1        2 0.28594180E+00 0.21532780E+04</pdfrwt>
<pdfrwt beam="2">  1       -1 0.95947980E-01 0.21532780E+04</pdfrwt>
<totfact> 0.87565058E+00</totfact>
</mgrwt>
</event>
<event>
12    7  0.1675873E-007  0.1492776E+04  0.7818608E-02  0.8889271E-01
         -1   -1    0    0    0  501 -0.00000000000E+00  0.00000000000E+00  0.27192057404E+03  0.27192057404E+03  0.00000000000E+00 0.  1.
          2   -1    0    0  501    0  0.00000000000E+00 -0.00000000000E+00 -0.20487412438E+04  0.20487412438E+04  0.00000000000E+00 0. -1.
         24    2    1    2    0    0  0.17699646047E+03  0.39532280057E+03 -0.85517552043E+03  0.96166186540E+03  0.76553961072E+02 0.  0.
        254    2    1    2    0    0 -0.17699646047E+03 -0.39532280057E+03 -0.92164514935E+03  0.13589999525E+04  0.89991289901E+03 0.  0.
         23    2    4    4    0    0 -0.52418853926E+02 -0.26547201519E+03 -0.10703004299E+04  0.11077116629E+04  0.90878990027E+02 0.  0.
         23    2    4    4    0    0 -0.12457760654E+03 -0.12985078538E+03  0.14865528050E+03  0.25128828959E+03  0.93094605360E+02 0.  0.
          4    1    3    3  502    0  0.35033762346E+02  0.91996208101E+02 -0.27059093776E+03  0.28794117873E+03  0.00000000000E+00 0. -1.
         -3    1    3    3    0  502  0.14196269812E+03  0.30332659247E+03 -0.58458458267E+03  0.67372068668E+03  0.00000000000E+00 0.  1.
         13    1    5    5    0    0 -0.18884043855E+02 -0.21835262100E+03 -0.93899916223E+03  0.96423747121E+03  0.00000000000E+00 0. -1.
        -13    1    5    5    0    0 -0.33534810071E+02 -0.47119394191E+02 -0.13130126762E+03  0.14347419167E+03  0.00000000000E+00 0.  1.
          1    1    6    6  503    0 -0.89498969499E+02 -0.12253418831E+03  0.15264554058E+03  0.21523325464E+03  0.00000000000E+00 0. -1.
         -1    1    6    6    0  503 -0.35078637042E+02 -0.73165970668E+01 -0.39902600720E+01  0.36055034944E+02  0.00000000000E+00 0.  1.
<mgrwt>
<rscale>  0 0.14927758E+04</rscale>
<asrwt>0</asrwt>
<pdfrwt beam="1">  1        2 0.31519096E+00 0.14927758E+04</pdfrwt>
<pdfrwt beam="2">  1       -1 0.41833935E-01 0.14927758E+04</pdfrwt>
<totfact> 0.38782259E+01</totfact>
</mgrwt>
</event>
<event>
12    7  0.1675873E-007  0.2194218E+04  0.7818608E-02  0.8520838E-01
         -1   -1    0    0    0  501 -0.00000000000E+00  0.00000000000E+00  0.86254594119E+03  0.86254594119E+03  0.00000000000E+00 0.  1.
          2   -1    0    0  501    0  0.00000000000E+00 -0.00000000000E+00 -0.13954601876E+04  0.13954601876E+04  0.00000000000E+00 0. -1.
         24    2    1    2    0    0 -0.44546843998E+03 -0.67158632336E+03 -0.65667754709E+03  0.10410805828E+04  0.56152099368E+02 0.  0.
        254    2    1    2    0    0  0.44546843998E+03  0.67158632336E+03  0.12376330069E+03  0.12169255460E+04  0.90339366235E+03 0.  0.
         23    2    4    4    0    0  0.27316725206E+02  0.14540769629E+03 -0.34904388407E+03  0.38987181874E+03  0.90987913641E+02 0.  0.
         23    2    4    4    0    0  0.41815171477E+03  0.52617862707E+03  0.47280718475E+03  0.82705372726E+03  0.93575796359E+02 0.  0.
          4    1    3    3  502    0 -0.20820724417E+03 -0.34325856911E+03 -0.29735105988E+03  0.49959418992E+03  0.00000000000E+00 0. -1.
         -3    1    3    3    0  502 -0.23726119581E+03 -0.32832775426E+03 -0.35932648722E+03  0.54148639287E+03  0.00000000000E+00 0.  1.
         13    1    5    5    0    0 -0.20687058443E+02  0.85937901787E+01 -0.18960821394E+02  0.29348259993E+02  0.00000000000E+00 0.  1.
        -13    1    5    5    0    0  0.48003783649E+02  0.13681390611E+03 -0.33008306267E+03  0.36052355875E+03  0.00000000000E+00 0. -1.
          2    1    6    6  503    0  0.34726956648E+03  0.45142033923E+03  0.35757666190E+03  0.67248609176E+03  0.00000000000E+00 0. -1.
         -2    1    6    6    0  503  0.70882148287E+02  0.74758287849E+02  0.11523052285E+03  0.15456763550E+03  0.00000000000E+00 0.  1.
<mgrwt>
<rscale>  0 0.21942183E+04</rscale>
<asrwt>0</asrwt>
<pdfrwt beam="1">  1        2 0.21468618E+00 0.21942183E+04</pdfrwt>
<pdfrwt beam="2">  1       -1 0.13269938E+00 0.21942183E+04</pdfrwt>
<totfact> 0.73022966E+00</totfact>
</mgrwt>
</event>
<event>
12    7  0.1675873E-007  0.2007480E+04  0.7818608E-02  0.8603131E-01
         -1   -1    0    0    0  501 -0.00000000000E+00  0.00000000000E+00  0.11722534633E+04  0.11722534633E+04  0.00000000000E+00 0.  1.
          2   -1    0    0  501    0  0.00000000000E+00 -0.00000000000E+00 -0.85945076380E+03  0.85945076380E+03  0.00000000000E+00 0. -1.
         24    2    1    2    0    0  0.56491630492E+03 -0.61861859490E+02 -0.44663393602E+03  0.72704928827E+03  0.78495054219E+02 0.  0.
        254    2    1    2    0    0 -0.56491630492E+03  0.61861859490E+02  0.75943663548E+03  0.13046549388E+04  0.89578076825E+03 0.  0.
         23    2    4    4    0    0 -0.65712996868E+03 -0.75037311502E+02  0.86145252425E+03  0.10899760668E+04  0.92179069814E+02 0.  0.
         23    2    4    4    0    0  0.92213663755E+02  0.13689917099E+03 -0.10201588876E+03  0.21467887195E+03  0.91842439528E+02 0.  0.
          2    1    3    3  502    0  0.27708629969E+03 -0.32620152567E+02 -0.26898902675E+03  0.38755127189E+03  0.00000000000E+00 0. -1.
         -1    1    3    3    0  502  0.28783000523E+03 -0.29241706923E+02 -0.17764490927E+03  0.33949801638E+03  0.00000000000E+00 0.  1.
         13    1    5    5    0    0 -0.59595796868E+03 -0.44276381475E+02  0.79499367778E+03  0.99455580341E+03  0.00000000000E+00 0. -1.
        -13    1    5    5    0    0 -0.61172000000E+02 -0.30760930027E+02  0.66458846462E+02  0.95420263430E+02  0.00000000000E+00 0.  1.
          2    1    6    6  503    0  0.69010168503E+02  0.62551674546E+02 -0.10015786596E+03  0.13677248794E+03  0.00000000000E+00 0. -1.
         -2    1    6    6    0  503  0.23203495252E+02  0.74347496446E+02 -0.18580228081E+01  0.77906384003E+02  0.00000000000E+00 0.  1.
<mgrwt>
<rscale>  0 0.20074801E+04</rscale>
<asrwt>0</asrwt>
<pdfrwt beam="1">  1        2 0.13222319E+00 0.20074801E+04</pdfrwt>
<pdfrwt beam="2">  1       -1 0.18034669E+00 0.20074801E+04</pdfrwt>
<totfact> 0.68530536E+00</totfact>
</mgrwt>
</event>
<event>
12    7  0.1675873E-007  0.2162582E+04  0.7818608E-02  0.8534166E-01
          2   -1    0    0  501    0  0.00000000000E+00  0.00000000000E+00  0.19146569569E+04  0.19146569569E+04  0.00000000000E+00 0. -1.
         -1   -1    0    0    0  501 -0.00000000000E+00 -0.00000000000E+00 -0.61065282863E+03  0.61065282863E+03  0.00000000000E+00 0.  1.
         24    2    1    2    0    0  0.38719497468E+03  0.28268693121E+03 -0.32979762055E+03  0.58731343053E+03  0.79616239982E+02 0.  0.
        254    2    1    2    0    0 -0.38719497468E+03 -0.28268693121E+03  0.16338017488E+04  0.19379963550E+04  0.92557542538E+03 0.  0.
         23    2    4    4    0    0  0.11589168858E+02  0.15321410447E+03  0.11654167694E+04  0.11790007472E+04  0.90761471658E+02 0.  0.
         23    2    4    4    0    0 -0.39878414354E+03 -0.43590103568E+03  0.46838497940E+03  0.75899560784E+03  0.87471925465E+02 0.  0.
          4    1    3    3  502    0  0.74120684030E+02  0.25540060762E+02 -0.32854196147E+02  0.85003345283E+02  0.00000000000E+00 0. -1.
         -3    1    3    3    0  502  0.31307429065E+03  0.25714687045E+03 -0.29694342440E+03  0.50231008525E+03  0.00000000000E+00 0.  1.
         13    1    5    5    0    0  0.33739258464E+01  0.16443935492E+03  0.10831101316E+04  0.10955269243E+04  0.00000000000E+00 0.  1.
        -13    1    5    5    0    0  0.82152430113E+01 -0.11225250448E+02  0.82306637846E+02  0.83473822836E+02  0.00000000000E+00 0. -1.
          2    1    6    6  503    0 -0.17547842518E+03 -0.14541295928E+03  0.14358314283E+03  0.26935798732E+03  0.00000000000E+00 0. -1.
         -2    1    6    6    0  503 -0.22330571835E+03 -0.29048807641E+03  0.32480183657E+03  0.48963762052E+03  0.00000000000E+00 0.  1.
<mgrwt>
<rscale>  0 0.21625824E+04</rscale>
<asrwt>0</asrwt>
<pdfrwt beam="1">  1        2 0.29456261E+00 0.21625824E+04</pdfrwt>
<pdfrwt beam="2">  1       -1 0.93946589E-01 0.21625824E+04</pdfrwt>
<totfact> 0.85396105E+00</totfact>
</mgrwt>
</event>
<event>
12    7  0.1675873E-007  0.1144993E+04  0.7818608E-02  0.9162415E-01
          2   -1    0    0  501    0  0.00000000000E+00  0.00000000000E+00  0.15540284860E+04  0.15540284860E+04  0.00000000000E+00 0. -1.
         -1   -1    0    0    0  501 -0.00000000000E+00 -0.00000000000E+00 -0.21090495188E+03  0.21090495188E+03  0.00000000000E+00 0.  1.
         24    2    1    2    0    0  0.12280783322E+03 -0.17239270649E+03  0.26352867077E+03  0.34739575077E+03  0.80221182885E+02 0.  0.
        254    2    1    2    0    0 -0.12280783322E+03  0.17239270649E+03  0.10795948633E+04  0.14175376871E+04  0.89391667186E+03 0.  0.
         23    2    4    4    0    0  0.18385869721E+02  0.73570220083E+02 -0.13944993909E+03  0.18291070627E+03  0.90881370302E+02 0.  0.
         23    2    4    4    0    0 -0.14119370294E+03  0.98822486408E+02  0.12190448024E+04  0.12346269808E+04  0.92368857841E+02 0.  0.
          4    1    3    3  502    0  0.44741002305E+02 -0.65624923247E+02  0.16280446776E+03  0.18114547348E+03  0.00000000000E+00 0. -1.
         -3    1    3    3    0  502  0.78066830914E+02 -0.10676778324E+03  0.10072420301E+03  0.16625027729E+03  0.00000000000E+00 0.  1.
         13    1    5    5    0    0 -0.15456225052E+02  0.18698813729E+02  0.49620354988E+01  0.24762114692E+02  0.00000000000E+00 0. -1.
        -13    1    5    5    0    0  0.33842094773E+02  0.54871406354E+02 -0.14441197459E+03  0.15814859158E+03  0.00000000000E+00 0.  1.
          2    1    6    6  503    0  0.54066949684E+01 -0.38275480183E+01  0.78054644358E+01  0.10237565598E+02  0.00000000000E+00 0. -1.
         -2    1    6    6    0  503 -0.14660039791E+03  0.10265003443E+03  0.12112393380E+04  0.12243894152E+04  0.00000000000E+00 0.  1.
<mgrwt>
<rscale>  0 0.11449931E+04</rscale>
<asrwt>0</asrwt>
<pdfrwt beam="1">  1        2 0.23908130E+00 0.11449931E+04</pdfrwt>
<pdfrwt beam="2">  1       -1 0.32446917E-01 0.11449931E+04</pdfrwt>
<totfact> 0.11854410E+02</totfact>
</mgrwt>
</event>
<event>
12    7  0.1675873E-007  0.1650841E+04  0.7818608E-02  0.8789909E-01
         -1   -1    0    0    0  501 -0.00000000000E+00  0.00000000000E+00  0.27568383247E+03  0.27568383247E+03  0.00000000000E+00 0.  1.
          2   -1    0    0  501    0  0.00000000000E+00 -0.00000000000E+00 -0.24713791169E+04  0.24713791169E+04  0.00000000000E+00 0. -1.
         24    2    1    2    0    0  0.44009877257E+03 -0.35037982312E+03 -0.94073756690E+03  0.10988380769E+04  0.77491930910E+02 0.  0.
        254    2    1    2    0    0 -0.44009877257E+03  0.35037982312E+03 -0.12549577176E+04  0.16482248725E+04  0.90844559963E+03 0.  0.
         23    2    4    4    0    0 -0.21864612751E+03  0.54595707824E+03 -0.11926420844E+04  0.13328147274E+04  0.90137094015E+02 0.  0.
         23    2    4    4    0    0 -0.22145264506E+03 -0.19557725512E+03 -0.62315633190E+02  0.31541014516E+03  0.91151438839E+02 0.  0.
          2    1    3    3  502    0  0.60259914952E+02 -0.27183204167E+02 -0.15053722925E+03  0.16441302056E+03  0.00000000000E+00 0. -1.
         -1    1    3    3    0  502  0.37983885762E+03 -0.32319661895E+03 -0.79020033765E+03  0.93442505632E+03  0.00000000000E+00 0.  1.
         13    1    5    5    0    0 -0.53974097443E+02  0.14199549163E+03 -0.22614655181E+03  0.27243014836E+03  0.00000000000E+00 0.  1.
        -13    1    5    5    0    0 -0.16467203007E+03  0.40396158661E+03 -0.96649553257E+03  0.10603845790E+04  0.00000000000E+00 0. -1.
          3    1    6    6  503    0 -0.19965535650E+03 -0.14280592452E+03 -0.75486011136E+02  0.25681497490E+03  0.00000000000E+00 0. -1.
         -3    1    6    6    0  503 -0.21797288567E+02 -0.52771330603E+02  0.13170377946E+02  0.58595170259E+02  0.00000000000E+00 0.  1.
<mgrwt>
<rscale>  0 0.16508413E+04</rscale>
<asrwt>0</asrwt>
<pdfrwt beam="1">  1        2 0.38021215E+00 0.16508413E+04</pdfrwt>
<pdfrwt beam="2">  1       -1 0.42412899E-01 0.16508413E+04</pdfrwt>
<totfact> 0.21547075E+01</totfact>
</mgrwt>
</event>
<event>
12    7  0.1675873E-007  0.1288605E+04  0.7818608E-02  0.9038650E-01
         -1   -1    0    0    0  501 -0.00000000000E+00  0.00000000000E+00  0.62532410495E+03  0.62532410495E+03  0.00000000000E+00 0.  1.
          2   -1    0    0  501    0  0.00000000000E+00 -0.00000000000E+00 -0.66385725917E+03  0.66385725917E+03  0.00000000000E+00 0. -1.
         24    2    1    2    0    0 -0.19065921352E+03 -0.24202147162E+03  0.78084875678E+02  0.33147937497E+03  0.94106321756E+02 0.  0.
        254    2    1    2    0    0  0.19065921352E+03  0.24202147162E+03 -0.11661802990E+03  0.95770198915E+03  0.89925969925E+03 0.  0.
         23    2    4    4    0    0 -0.54975997327E+02  0.54196581144E+03 -0.73125624509E+02  0.55698941378E+03  0.90224991251E+02 0.  0.
         23    2    4    4    0    0  0.24563521085E+03 -0.29994433982E+03 -0.43492405390E+02  0.40071257537E+03  0.91518932126E+02 0.  0.
          4    1    3    3  502    0 -0.12460354274E+03 -0.19370789045E+03  0.20136238215E+02  0.23120176853E+03  0.00000000000E+00 0. -1.
         -3    1    3    3    0  502 -0.66055670781E+02 -0.48313581176E+02  0.57948637463E+02  0.10027760643E+03  0.00000000000E+00 0.  1.
         13    1    5    5    0    0 -0.48980506947E+02  0.14117965602E+03  0.59173686521E+00  0.14943605819E+03  0.00000000000E+00 0. -1.
        -13    1    5    5    0    0 -0.59954903803E+01  0.40078615543E+03 -0.73717361374E+02  0.40755335559E+03  0.00000000000E+00 0.  1.
          3    1    6    6  503    0  0.13687243817E+03 -0.10536342089E+03 -0.42130774994E+02  0.17779346724E+03  0.00000000000E+00 0. -1.
         -3    1    6    6    0  503  0.10876277267E+03 -0.19458091893E+03 -0.13616303965E+01  0.22291910813E+03  0.00000000000E+00 0.  1.
<mgrwt>
<rscale>  0 0.12886054E+04</rscale>
<asrwt>0</asrwt>
<pdfrwt beam="1">  1        2 0.10213189E+00 0.12886054E+04</pdfrwt>
<pdfrwt beam="2">  1       -1 0.96203709E-01 0.12886054E+04</pdfrwt>
<totfact> 0.51111736E+01</totfact>
</mgrwt>
</event>
<event>
12    7  0.1675873E-007  0.1411209E+04  0.7818608E-02  0.8945745E-01
          2   -1    0    0  501    0  0.00000000000E+00  0.00000000000E+00  0.89090410674E+03  0.89090410674E+03  0.00000000000E+00 0. -1.
         -1   -1    0    0    0  501 -0.00000000000E+00 -0.00000000000E+00 -0.55884555359E+03  0.55884555359E+03  0.00000000000E+00 0.  1.
         24    2    1    2    0    0  0.23721537345E+03  0.70087265159E+02  0.43128993665E+03  0.50353800307E+03  0.79725484885E+02 0.  0.
        254    2    1    2    0    0 -0.23721537345E+03 -0.70087265159E+02 -0.99231383502E+02  0.94621165726E+03  0.90790212838E+03 0.  0.
         23    2    4    4    0    0 -0.48820682220E+03  0.22245825330E+03 -0.49792498769E+02  0.54738035562E+03  0.96500699901E+02 0.  0.
         23    2    4    4    0    0  0.25099144875E+03 -0.29254551846E+03 -0.49438884733E+02  0.39883130163E+03  0.89680634054E+02 0.  0.
          2    1    3    3  502    0  0.20450305035E+03  0.70430342613E+02  0.41261690539E+03  0.46586976869E+03  0.00000000000E+00 0. -1.
         -1    1    3    3    0  502  0.32712323106E+02 -0.34307745432E+00  0.18673031259E+02  0.37668234383E+02  0.00000000000E+00 0.  1.
         13    1    5    5    0    0 -0.41060021326E+03  0.21031857879E+03 -0.15284410688E+02  0.46158428583E+03  0.00000000000E+00 0.  1.
        -13    1    5    5    0    0 -0.77606608950E+02  0.12139674504E+02 -0.34508088082E+02  0.85796069798E+02  0.00000000000E+00 0. -1.
          3    1    6    6  503    0  0.35842074969E+02 -0.66638969818E+02 -0.42505658896E+02  0.86787888986E+02  0.00000000000E+00 0. -1.
         -3    1    6    6    0  503  0.21514937378E+03 -0.22590654864E+03 -0.69332258373E+01  0.31204341265E+03  0.00000000000E+00 0.  1.
<mgrwt>
<rscale>  0 0.14112091E+04</rscale>
<asrwt>0</asrwt>
<pdfrwt beam="1">  1        2 0.13706217E+00 0.14112091E+04</pdfrwt>
<pdfrwt beam="2">  1       -1 0.85976239E-01 0.14112091E+04</pdfrwt>
<totfact> 0.44102950E+01</totfact>
</mgrwt>
</event>
<event>
12    7  0.1675873E-007  0.1414728E+04  0.7818608E-02  0.8943226E-01
          2   -1    0    0  501    0  0.00000000000E+00  0.00000000000E+00  0.62673886157E+03  0.62673886157E+03  0.00000000000E+00 0. -1.
         -1   -1    0    0    0  501 -0.00000000000E+00 -0.00000000000E+00 -0.79836097671E+03  0.79836097671E+03  0.00000000000E+00 0.  1.
         24    2    1    2    0    0 -0.21590285214E+02 -0.18394336184E+03 -0.42534993971E+03  0.47282108472E+03  0.91301183780E+02 0.  0.
        254    2    1    2    0    0  0.21590285214E+02  0.18394336184E+03  0.25372782457E+03  0.95227875356E+03  0.89897481318E+03 0.  0.
         23    2    4    4    0    0 -0.20676817273E+03 -0.16039191389E+03  0.41528523456E+03  0.49937212338E+03  0.91826185093E+02 0.  0.
         23    2    4    4    0    0  0.22835845795E+03  0.34433527574E+03 -0.16155740999E+03  0.45290663018E+03  0.91155095899E+02 0.  0.
          4    1    3    3  502    0 -0.27770806169E+02 -0.12315336801E+02 -0.10542328094E+03  0.10971305009E+03  0.00000000000E+00 0. -1.
         -3    1    3    3    0  502  0.61805209559E+01 -0.17162802504E+03 -0.31992665877E+03  0.36310803463E+03  0.00000000000E+00 0.  1.
         13    1    5    5    0    0 -0.16822883881E+03 -0.11075822375E+03  0.24088759452E+03  0.31399866167E+03  0.00000000000E+00 0.  1.
        -13    1    5    5    0    0 -0.38539333924E+02 -0.49633690146E+02  0.17439764003E+03  0.18537346171E+03  0.00000000000E+00 0. -1.
          3    1    6    6  503    0  0.16421771504E+03  0.25959246061E+03 -0.16059733111E+03  0.34662257038E+03  0.00000000000E+00 0. -1.
         -3    1    6    6    0  503  0.64140742905E+02  0.84742815122E+02 -0.96007887747E+00  0.10628405980E+03  0.00000000000E+00 0.  1.
<mgrwt>
<rscale>  0 0.14147280E+04</rscale>
<asrwt>0</asrwt>
<pdfrwt beam="1">  1        2 0.96421363E-01 0.14147280E+04</pdfrwt>
<pdfrwt beam="2">  1       -1 0.12282477E+00 0.14147280E+04</pdfrwt>
<totfact> 0.30551257E+01</totfact>
</mgrwt>
</event>
<event>
12    7  0.1675873E-007  0.2058775E+04  0.7818608E-02  0.8579624E-01
         -1   -1    0    0    0  501 -0.00000000000E+00  0.00000000000E+00  0.78431684193E+03  0.78431684193E+03  0.00000000000E+00 0.  1.
          2   -1    0    0  501    0  0.00000000000E+00 -0.00000000000E+00 -0.13510334967E+04  0.13510334967E+04  0.00000000000E+00 0. -1.
         24    2    1    2    0    0  0.24840651696E+03  0.47134493775E+03  0.43294222250E+03  0.69118499197E+03  0.80161568681E+02 0.  0.
        254    2    1    2    0    0 -0.24840651696E+03 -0.47134493775E+03 -0.99965887726E+03  0.14441653467E+04  0.89578112818E+03 0.  0.
         23    2    4    4    0    0 -0.26739852220E+03  0.25857014699E+02 -0.87864804726E+03  0.92398510104E+03  0.97752345745E+02 0.  0.
         23    2    4    4    0    0  0.18992005237E+02 -0.49720195244E+03 -0.12101083000E+03  0.52018024563E+03  0.91506224837E+02 0.  0.
          4    1    3    3  502    0  0.90583461919E+02  0.19209301294E+03  0.12448960410E+03  0.24617625947E+03  0.00000000000E+00 0. -1.
         -3    1    3    3    0  502  0.15782305504E+03  0.27925192480E+03  0.30845261839E+03  0.44500873250E+03  0.00000000000E+00 0.  1.
         13    1    5    5    0    0 -0.12617958039E+03  0.40481531766E+02 -0.55439854067E+03  0.57001559875E+03  0.00000000000E+00 0. -1.
        -13    1    5    5    0    0 -0.14121894180E+03 -0.14624517067E+02 -0.32424950659E+03  0.35396950229E+03  0.00000000000E+00 0.  1.
          3    1    6    6  503    0 -0.27085986753E+02 -0.35072080517E+03 -0.72665991063E+02  0.35919226066E+03  0.00000000000E+00 0. -1.
         -3    1    6    6    0  503  0.46077991990E+02 -0.14648114727E+03 -0.48344838939E+02  0.16098798497E+03  0.00000000000E+00 0.  1.
<mgrwt>
<rscale>  0 0.20587747E+04</rscale>
<asrwt>0</asrwt>
<pdfrwt beam="1">  1        2 0.20785130E+00 0.20587747E+04</pdfrwt>
<pdfrwt beam="2">  1       -1 0.12066413E+00 0.20587747E+04</pdfrwt>
<totfact> 0.99385465E+00</totfact>
</mgrwt>
</event>
<event>
12    7  0.1675873E-007  0.1199617E+04  0.7818608E-02  0.9113192E-01
         -1   -1    0    0    0  501 -0.00000000000E+00  0.00000000000E+00  0.19473959595E+03  0.19473959595E+03  0.00000000000E+00 0.  1.
          2   -1    0    0  501    0  0.00000000000E+00 -0.00000000000E+00 -0.18474411594E+04  0.18474411594E+04  0.00000000000E+00 0. -1.
         24    2    1    2    0    0  0.24259777636E+03  0.16793651753E+02 -0.49283646443E+03  0.55522984534E+03  0.79099258207E+02 0.  0.
        254    2    1    2    0    0 -0.24259777636E+03 -0.16793651753E+02 -0.11598650990E+04  0.14869509100E+04  0.89810926562E+03 0.  0.
         23    2    4    4    0    0  0.39117575242E+02 -0.50062025485E+02 -0.11833312072E+04  0.11884891414E+04  0.90538954461E+02 0.  0.
         23    2    4    4    0    0 -0.28171535161E+03  0.33268373733E+02  0.23466108168E+02  0.29846176859E+03  0.89768842334E+02 0.  0.
          2    1    3    3  502    0  0.13334198395E+03 -0.28500567832E+02 -0.28934347097E+03  0.31986248803E+03  0.00000000000E+00 0. -1.
         -1    1    3    3    0  502  0.10925579241E+03  0.45294219585E+02 -0.20349299345E+03  0.23536735731E+03  0.00000000000E+00 0.  1.
         13    1    5    5    0    0 -0.14601484664E+02 -0.19091641298E+02 -0.78435937760E+03  0.78472754976E+03  0.00000000000E+00 0. -1.
        -13    1    5    5    0    0  0.53719059907E+02 -0.30970384188E+02 -0.39897182958E+03  0.40376159165E+03  0.00000000000E+00 0.  1.
          3    1    6    6  503    0 -0.16885588720E+03  0.59149155007E+02  0.34274961576E+02  0.18216944357E+03  0.00000000000E+00 0. -1.
         -3    1    6    6    0  503 -0.11285946441E+03 -0.25880781274E+02 -0.10808853409E+02  0.11629232502E+03  0.00000000000E+00 0.  1.
<mgrwt>
<rscale>  0 0.11996165E+04</rscale>
<asrwt>0</asrwt>
<pdfrwt beam="1">  1        2 0.28422172E+00 0.11996165E+04</pdfrwt>
<pdfrwt beam="2">  1       -1 0.29959938E-01 0.11996165E+04</pdfrwt>
<totfact> 0.93415782E+01</totfact>
</mgrwt>
</event>
<event>
12    7  0.1675873E-007  0.2009346E+04  0.7818608E-02  0.8602263E-01
         -1   -1    0    0    0  501 -0.00000000000E+00  0.00000000000E+00  0.33619064918E+03  0.33619064918E+03  0.00000000000E+00 0.  1.
          2   -1    0    0  501    0  0.00000000000E+00 -0.00000000000E+00 -0.30023679454E+04  0.30023679454E+04  0.00000000000E+00 0. -1.
         24    2    1    2    0    0  0.33420107090E+03 -0.68552750506E+03 -0.63923876614E+03  0.99837285254E+03  0.80522273757E+02 0.  0.
        254    2    1    2    0    0 -0.33420107090E+03  0.68552750506E+03 -0.20269385301E+04  0.23401857421E+04  0.88676444818E+03 0.  0.
         23    2    4    4    0    0 -0.36127953311E+03  0.83489860224E+03 -0.12815247444E+04  0.15739029428E+04  0.85359391444E+02 0.  0.
         23    2    4    4    0    0  0.27078462212E+02 -0.14937109718E+03 -0.74541378568E+03  0.76628279927E+03  0.92209808481E+02 0.  0.
          2    1    3    3  502    0  0.17346562843E+03 -0.43816158877E+03 -0.41286667497E+03  0.62652597186E+03  0.00000000000E+00 0. -1.
         -1    1    3    3    0  502  0.16073544247E+03 -0.24736591630E+03 -0.22637209117E+03  0.37184688068E+03  0.00000000000E+00 0.  1.
         13    1    5    5    0    0 -0.33033379432E+03  0.70607286987E+03 -0.11274891727E+04  0.13707265037E+04  0.00000000000E+00 0. -1.
        -13    1    5    5    0    0 -0.30945738792E+02  0.12882573238E+03 -0.15403557171E+03  0.20317643915E+03  0.00000000000E+00 0.  1.
          1    1    6    6  503    0  0.40210908197E+02 -0.15681149816E+03 -0.69788798245E+03  0.71641775463E+03  0.00000000000E+00 0. -1.
         -1    1    6    6    0  503 -0.13132445985E+02  0.74404009827E+01 -0.47525803230E+02  0.49865044640E+02  0.00000000000E+00 0.  1.
<mgrwt>
<rscale>  0 0.20093462E+04</rscale>
<asrwt>0</asrwt>
<pdfrwt beam="1">  1        2 0.46190274E+00 0.20093462E+04</pdfrwt>
<pdfrwt beam="2">  1       -1 0.51721640E-01 0.20093462E+04</pdfrwt>
<totfact> 0.69142231E+00</totfact>
</mgrwt>
</event>
<event>
12    7  0.1675873E-007  0.1233855E+04  0.7818608E-02  0.9083729E-01
         -1   -1    0    0    0  501 -0.00000000000E+00  0.00000000000E+00  0.50419369454E+03  0.50419369454E+03  0.00000000000E+00 0.  1.
          2   -1    0    0  501    0  0.00000000000E+00 -0.00000000000E+00 -0.75486805853E+03  0.75486805853E+03  0.00000000000E+00 0. -1.
         24    2    1    2    0    0  0.82282836635E+02 -0.23376972678E+03  0.61764661205E+02  0.26646219529E+03  0.75950495589E+02 0.  0.
        254    2    1    2    0    0 -0.82282836635E+02  0.23376972678E+03 -0.31243902519E+03  0.99259955778E+03  0.90896478879E+03 0.  0.
         23    2    4    4    0    0  0.13602441466E+03 -0.17797242868E+03 -0.43932047098E+03  0.50163925905E+03  0.91992626023E+02 0.  0.
         23    2    4    4    0    0 -0.21830725130E+03  0.41174215547E+03  0.12688144578E+03  0.49096029873E+03  0.88053705682E+02 0.  0.
          4    1    3    3  502    0  0.17782123866E+02 -0.16337009874E+02  0.28310665583E+02  0.37210154616E+02  0.00000000000E+00 0. -1.
         -3    1    3    3    0  502  0.64500712769E+02 -0.21743271691E+03  0.33453995622E+02  0.22925204067E+03  0.00000000000E+00 0.  1.
         13    1    5    5    0    0  0.18866745240E+01 -0.34492276193E+02 -0.23548272796E+02  0.41806671828E+02  0.00000000000E+00 0. -1.
        -13    1    5    5    0    0  0.13413774014E+03 -0.14348015249E+03 -0.41577219818E+03  0.45983258722E+03  0.00000000000E+00 0.  1.
          2    1    6    6  503    0  0.71215688551E+01  0.62851845462E+01 -0.14923461288E+01  0.96149563028E+01  0.00000000000E+00 0. -1.
         -2    1    6    6    0  503 -0.22542882015E+03  0.40545697092E+03  0.12837379191E+03  0.48134534242E+03  0.00000000000E+00 0.  1.
<mgrwt>
<rscale>  0 0.12338553E+04</rscale>
<asrwt>0</asrwt>
<pdfrwt beam="1">  1        2 0.11613355E+00 0.12338553E+04</pdfrwt>
<pdfrwt beam="2">  1       -1 0.77568260E-01 0.12338553E+04</pdfrwt>
<totfact> 0.69661917E+01</totfact>
</mgrwt>
</event>
<event>
12    7  0.1675873E-007  0.1486661E+04  0.7818608E-02  0.8893372E-01
          2   -1    0    0  501    0  0.00000000000E+00  0.00000000000E+00  0.33521826930E+03  0.33521826930E+03  0.00000000000E+00 0. -1.
         -1   -1    0    0    0  501 -0.00000000000E+00 -0.00000000000E+00 -0.16483006921E+04  0.16483006921E+04  0.00000000000E+00 0.  1.
         24    2    1    2    0    0  0.78756953911E+02 -0.19816590861E+03  0.13267895054E+03  0.26206541155E+03  0.74847784800E+02 0.  0.
        254    2    1    2    0    0 -0.78756953911E+02  0.19816590861E+03 -0.14457613734E+04  0.17214535499E+04  0.90978238637E+03 0.  0.
         23    2    4    4    0    0  0.17075838704E+03  0.32303260620E+03 -0.13668902628E+04  0.14177247030E+04  0.89698671819E+02 0.  0.
         23    2    4    4    0    0 -0.24951534095E+03 -0.12486669759E+03 -0.78871110580E+02  0.30372884683E+03  0.90448674811E+02 0.  0.
          2    1    3    3  502    0  0.68683917887E+02 -0.72891552318E+02  0.63826184057E+02  0.11876211832E+03  0.00000000000E+00 0. -1.
         -1    1    3    3    0  502  0.10073036025E+02 -0.12527435629E+03  0.68852766483E+02  0.14330329323E+03  0.00000000000E+00 0.  1.
         13    1    5    5    0    0  0.15410805366E+03  0.30568371726E+03 -0.11605145961E+04  0.12099528731E+04  0.00000000000E+00 0. -1.
        -13    1    5    5    0    0  0.16650333380E+02  0.17348888941E+02 -0.20637566664E+03  0.20777182997E+03  0.00000000000E+00 0.  1.
          1    1    6    6  503    0 -0.15436787528E+03 -0.11081696277E+03 -0.20271651832E+02  0.19110410782E+03  0.00000000000E+00 0. -1.
         -1    1    6    6    0  503 -0.95147465671E+02 -0.14049734818E+02 -0.58599458748E+02  0.11262473901E+03  0.00000000000E+00 0.  1.
<mgrwt>
<rscale>  0 0.14866614E+04</rscale>
<asrwt>0</asrwt>
<pdfrwt beam="1">  1        2 0.51572041E-01 0.14866614E+04</pdfrwt>
<pdfrwt beam="2">  1       -1 0.25358473E+00 0.14866614E+04</pdfrwt>
<totfact> 0.70987184E+00</totfact>
</mgrwt>
</event>
<event>
12    7  0.1675873E-007  0.1431492E+04  0.7818608E-02  0.8931333E-01
          2   -1    0    0  501    0  0.00000000000E+00  0.00000000000E+00  0.11505522272E+04  0.11505522272E+04  0.00000000000E+00 0. -1.
         -1   -1    0    0    0  501 -0.00000000000E+00 -0.00000000000E+00 -0.44525802348E+03  0.44525802348E+03  0.00000000000E+00 0.  1.
         24    2    1    2    0    0 -0.11773994447E+03 -0.34867713359E+03 -0.33501460744E+02  0.37823498726E+03  0.80628281030E+02 0.  0.
        254    2    1    2    0    0  0.11773994447E+03  0.34867713359E+03  0.73879566448E+03  0.12175752634E+04  0.89511566305E+03 0.  0.
         23    2    4    4    0    0  0.46221430380E+03  0.46995669993E+02  0.51619219604E+03  0.70029074458E+03  0.90011599609E+02 0.  0.
         23    2    4    4    0    0 -0.34447435933E+03  0.30168146360E+03  0.22260346844E+03  0.51728451885E+03  0.91414876044E+02 0.  0.
          4    1    3    3  502    0 -0.80712718435E+02 -0.12139413903E+03 -0.18389345694E+01  0.14578909969E+03  0.00000000000E+00 0. -1.
         -3    1    3    3    0  502 -0.37027226037E+02 -0.22728299456E+03 -0.31662526175E+02  0.23244588757E+03  0.00000000000E+00 0.  1.
         13    1    5    5    0    0  0.38330421307E+03  0.21389756021E+02  0.46421965709E+03  0.60239483020E+03  0.00000000000E+00 0.  1.
        -13    1    5    5    0    0  0.78910090724E+02  0.25605913971E+02  0.51972538953E+02  0.97895914386E+02  0.00000000000E+00 0. -1.
          1    1    6    6  503    0 -0.56212907665E+02  0.61094460110E+02  0.46715702024E+01  0.83151954953E+02  0.00000000000E+00 0. -1.
         -1    1    6    6    0  503 -0.28826145166E+03  0.24058700349E+03  0.21793189824E+03  0.43413256389E+03  0.00000000000E+00 0.  1.
<mgrwt>
<rscale>  0 0.14314924E+04</rscale>
<asrwt>0</asrwt>
<pdfrwt beam="1">  1        2 0.17700803E+00 0.14314924E+04</pdfrwt>
<pdfrwt beam="2">  1       -1 0.68501235E-01 0.14314924E+04</pdfrwt>
<totfact> 0.48460908E+01</totfact>
</mgrwt>
</event>
<event>
12    7  0.1832763E-007  0.2501580E+04  0.7818608E-02  0.8402423E-01
          2   -1    0    0  501    0  0.00000000000E+00  0.00000000000E+00  0.29305650489E+04  0.29305650489E+04  0.00000000000E+00 0. -1.
         -1   -1    0    0    0  501 -0.00000000000E+00 -0.00000000000E+00 -0.53384768363E+03  0.53384768363E+03  0.00000000000E+00 0.  1.
         24    2    1    2    0    0  0.61056680017E+03  0.27807838961E+03 -0.13984780031E+03  0.69014114599E+03  0.81351004284E+02 0.  0.
        254    2    1    2    0    0 -0.61056680017E+03 -0.27807838961E+03  0.25365651656E+04  0.27742715866E+04  0.90127719842E+03 0.  0.
         23    2    4    4    0    0 -0.20207864442E+03 -0.76270525697E+02  0.44083570838E+02  0.23883804675E+03  0.91909084090E+02 0.  0.
         23    2    4    4    0    0 -0.40848815575E+03 -0.20180786392E+03  0.24924815948E+04  0.25354335398E+04  0.91486322437E+02 0.  0.
          4    1    3    3  502    0  0.28070110123E+02  0.18044212114E+02 -0.25669307457E+02  0.42100332759E+02  0.00000000000E+00 0. -1.
         -3    1    3    3    0  502  0.58249669004E+03  0.26003417750E+03 -0.11417849286E+03  0.64804081323E+03  0.00000000000E+00 0.  1.
         13    1    5    5    0    0 -0.18066981756E+03 -0.35885947046E+02  0.54231488836E+02  0.19201676633E+03  0.00000000000E+00 0.  1.
        -13    1    5    5    0    0 -0.21408826860E+02 -0.40384578651E+02 -0.10147917998E+02  0.46821280418E+02  0.00000000000E+00 0. -1.
          4    1    6    6  503    0 -0.30626890863E+02  0.51581510365E+01  0.25185087437E+03  0.25375869618E+03  0.00000000000E+00 0. -1.
         -4    1    6    6    0  503 -0.37786126489E+03 -0.20696601495E+03  0.22406307204E+04  0.22816748437E+04  0.00000000000E+00 0.  1.
<mgrwt>
<rscale>  0 0.25015798E+04</rscale>
<asrwt>0</asrwt>
<pdfrwt beam="1">  1        2 0.45085615E+00 0.25015798E+04</pdfrwt>
<pdfrwt beam="2">  1       -1 0.82130415E-01 0.25015798E+04</pdfrwt>
<totfact> 0.28767730E+00</totfact>
</mgrwt>
</event>
<event>
12    7  0.1675873E-007  0.1875252E+04  0.7818608E-02  0.8667274E-01
          2   -1    0    0  501    0  0.00000000000E+00  0.00000000000E+00  0.28438088345E+04  0.28438088345E+04  0.00000000000E+00 0. -1.
         -1   -1    0    0    0  501 -0.00000000000E+00 -0.00000000000E+00 -0.30914263237E+03  0.30914263237E+03  0.00000000000E+00 0.  1.
         24    2    1    2    0    0  0.43793565843E+03  0.56418639593E+03  0.80619771641E+03  0.10799517500E+04  0.79038560472E+02 0.  0.
        254    2    1    2    0    0 -0.43793565843E+03 -0.56418639593E+03  0.17284684857E+04  0.20729997168E+04  0.89422066057E+03 0.  0.
         23    2    4    4    0    0 -0.37516758003E+03 -0.72303500673E+03  0.16856188488E+04  0.18744011629E+04  0.92403905982E+02 0.  0.
         23    2    4    4    0    0 -0.62768078404E+02  0.15884861080E+03  0.42849636841E+02  0.19859855395E+03  0.91829088182E+02 0.  0.
          2    1    3    3  502    0  0.39904591796E+03  0.50669438867E+03  0.75897022163E+03  0.99599831600E+03  0.00000000000E+00 0. -1.
         -1    1    3    3    0  502  0.38889740468E+02  0.57492007260E+02  0.47227494784E+02  0.83953433974E+02  0.00000000000E+00 0.  1.
         13    1    5    5    0    0 -0.32773139523E+03 -0.55832568726E+03  0.12941475747E+04  0.14470498905E+04  0.00000000000E+00 0. -1.
        -13    1    5    5    0    0 -0.47436184795E+02 -0.16470931948E+03  0.39147127409E+03  0.42735127236E+03  0.00000000000E+00 0.  1.
          4    1    6    6  503    0 -0.31138044477E+02  0.15911999332E+03  0.32928728804E+02  0.16544803192E+03  0.00000000000E+00 0. -1.
         -4    1    6    6    0  503 -0.31630033927E+02 -0.27138251731E+00  0.99209080377E+01  0.33150522031E+02  0.00000000000E+00 0.  1.
<mgrwt>
<rscale>  0 0.18752520E+04</rscale>
<asrwt>0</asrwt>
<pdfrwt beam="1">  1        2 0.43750903E+00 0.18752520E+04</pdfrwt>
<pdfrwt beam="2">  1       -1 0.47560407E-01 0.18752520E+04</pdfrwt>
<totfact> 0.10279060E+01</totfact>
</mgrwt>
</event>
<event>
12    7  0.1675873E-007  0.4768905E+04  0.7818608E-02  0.7865179E-01
          2   -1    0    0  501    0  0.00000000000E+00  0.00000000000E+00  0.21486684548E+04  0.21486684548E+04  0.00000000000E+00 0. -1.
         -1   -1    0    0    0  501 -0.00000000000E+00 -0.00000000000E+00 -0.26461098603E+04  0.26461098603E+04  0.00000000000E+00 0.  1.
         24    2    1    2    0    0 -0.12924843679E+04  0.10007058482E+04 -0.18598525881E+04  0.24770614918E+04  0.69670286760E+02 0.  0.
        254    2    1    2    0    0  0.12924843679E+04 -0.10007058482E+04  0.13624111826E+04  0.23177168232E+04  0.91854178246E+03 0.  0.
         23    2    4    4    0    0  0.50983233103E+03 -0.69502893712E+03  0.21493654650E+03  0.89294499857E+03  0.90326199161E+02 0.  0.
         23    2    4    4    0    0  0.78265203683E+03 -0.30567691107E+03  0.11474746361E+04  0.14247718246E+04  0.85405660816E+02 0.  0.
          4    1    3    3  502    0 -0.16795591088E+03  0.14517255098E+03 -0.22216869918E+03  0.31407513186E+03  0.00000000000E+00 0. -1.
         -3    1    3    3    0  502 -0.11245284570E+04  0.85553329721E+03 -0.16376838890E+04  0.21629863600E+04  0.00000000000E+00 0.  1.
         13    1    5    5    0    0  0.29119330641E+03 -0.46995731375E+03  0.13260571879E+03  0.56853996790E+03  0.00000000000E+00 0. -1.
        -13    1    5    5    0    0  0.21863902462E+03 -0.22507162337E+03  0.82330827709E+02  0.32440503067E+03  0.00000000000E+00 0.  1.
          3    1    6    6  503    0  0.34751187802E+03 -0.14087559857E+03  0.44152085876E+03  0.57926773461E+03  0.00000000000E+00 0. -1.
         -3    1    6    6    0  503  0.43514015881E+03 -0.16480131249E+03  0.70595377739E+03  0.84550409001E+03  0.00000000000E+00 0.  1.
<mgrwt>
<rscale>  0 0.47689046E+04</rscale>
<asrwt>0</asrwt>
<pdfrwt beam="1">  1        2 0.33056438E+00 0.47689046E+04</pdfrwt>
<pdfrwt beam="2">  1       -1 0.40709383E+00 0.47689046E+04</pdfrwt>
<totfact> 0.29802480E-02</totfact>
</mgrwt>
</event>
<event>
12    7  0.1675873E-007  0.1524834E+04  0.7818608E-02  0.8868105E-01
         -1   -1    0    0    0  501 -0.00000000000E+00  0.00000000000E+00  0.31491804147E+03  0.31491804147E+03  0.00000000000E+00 0.  1.
          2   -1    0    0  501    0  0.00000000000E+00 -0.00000000000E+00 -0.18458125291E+04  0.18458125291E+04  0.00000000000E+00 0. -1.
         24    2    1    2    0    0 -0.33010920996E+03  0.33016941924E+03 -0.73050458357E+03  0.87080950529E+03  0.81782100623E+02 0.  0.
        254    2    1    2    0    0  0.33010920996E+03 -0.33016941924E+03 -0.80038990405E+03  0.12899210653E+04  0.89737863816E+03 0.  0.
         23    2    4    4    0    0  0.29871365307E+03 -0.52447885322E+03 -0.86931834883E+03  0.10623100526E+04  0.92088773381E+02 0.  0.
         23    2    4    4    0    0  0.31395556888E+02  0.19430943399E+03  0.68928444786E+02  0.22761101269E+03  0.91180071661E+02 0.  0.
          2    1    3    3  502    0 -0.20220987463E+03  0.17214488934E+03 -0.34933553939E+03  0.43881432908E+03  0.00000000000E+00 0. -1.
         -1    1    3    3    0  502 -0.12789933533E+03  0.15802452990E+03 -0.38116904418E+03  0.43199517621E+03  0.00000000000E+00 0.  1.
         13    1    5    5    0    0  0.24958781895E+03 -0.47829140253E+03 -0.80544126459E+03  0.96942889157E+03  0.00000000000E+00 0. -1.
        -13    1    5    5    0    0  0.49125834117E+02 -0.46187450693E+02 -0.63877084246E+02  0.92881161012E+02  0.00000000000E+00 0.  1.
          2    1    6    6  503    0  0.61279817022E+02  0.13297927179E+03  0.31407000940E+02  0.14975013325E+03  0.00000000000E+00 0. -1.
         -2    1    6    6    0  503 -0.29884260134E+02  0.61330162196E+02  0.37521443846E+02  0.77860879439E+02  0.00000000000E+00 0.  1.
<mgrwt>
<rscale>  0 0.15248340E+04</rscale>
<asrwt>0</asrwt>
<pdfrwt beam="1">  1        2 0.28397116E+00 0.15248340E+04</pdfrwt>
<pdfrwt beam="2">  1       -1 0.48448930E-01 0.15248340E+04</pdfrwt>
<totfact> 0.38103177E+01</totfact>
</mgrwt>
</event>
<event>
12    7  0.1675873E-007  0.1167861E+04  0.7818608E-02  0.9141463E-01
         -3   -1    0    0    0  501 -0.00000000000E+00  0.00000000000E+00  0.65095522553E+03  0.65095522553E+03  0.00000000000E+00 0.  1.
          4   -1    0    0  501    0  0.00000000000E+00 -0.00000000000E+00 -0.52380672213E+03  0.52380672213E+03  0.00000000000E+00 0. -1.
         24    2    1    2    0    0  0.14628804416E+03  0.14240768336E+03  0.12907453427E+03  0.25611661066E+03  0.85178299555E+02 0.  0.
        254    2    1    2    0    0 -0.14628804416E+03 -0.14240768336E+03 -0.19260308713E+01  0.91864533699E+03  0.89567036651E+03 0.  0.
         23    2    4    4    0    0 -0.39986253338E+03 -0.36109609536E+03  0.10354534192E+03  0.55566163007E+03  0.88078224406E+02 0.  0.
         23    2    4    4    0    0  0.25357448921E+03  0.21868841200E+03 -0.10547137279E+03  0.36298370693E+03  0.92240543646E+02 0.  0.
          2    1    3    3  502    0  0.91782013844E+01  0.28338841198E+02  0.55884219699E+02  0.63327524130E+02  0.00000000000E+00 0. -1.
         -1    1    3    3    0  502  0.13710984278E+03  0.11406884216E+03  0.73190314570E+02  0.19278908653E+03  0.00000000000E+00 0.  1.
         13    1    5    5    0    0  0.12008147180E-01 -0.12863588658E+02  0.11951005360E+02  0.17558433486E+02  0.00000000000E+00 0.  1.
        -13    1    5    5    0    0 -0.39987454152E+03 -0.34823250670E+03  0.91594336561E+02  0.53810319658E+03  0.00000000000E+00 0. -1.
          2    1    6    6  503    0  0.25873096485E+03  0.22166340282E+03 -0.10646759814E+03  0.35694779139E+03  0.00000000000E+00 0. -1.
         -2    1    6    6    0  503 -0.51564756360E+01 -0.29749908256E+01  0.99622535179E+00  0.60359155352E+01  0.00000000000E+00 0.  1.
<mgrwt>
<rscale>  0 0.11678608E+04</rscale>
<asrwt>0</asrwt>
<pdfrwt beam="1">  1        4 0.80585650E-01 0.11678608E+04</pdfrwt>
<pdfrwt beam="2">  1       -3 0.10014696E+00 0.11678608E+04</pdfrwt>
<totfact> 0.26856071E+00</totfact>
</mgrwt>
</event>
<event>
12    7  0.1675873E-007  0.1763291E+04  0.7818608E-02  0.8726068E-01
         -1   -1    0    0    0  501 -0.00000000000E+00  0.00000000000E+00  0.32374214148E+03  0.32374214148E+03  0.00000000000E+00 0.  1.
          2   -1    0    0  501    0  0.00000000000E+00 -0.00000000000E+00 -0.24009800587E+04  0.24009800587E+04  0.00000000000E+00 0. -1.
         24    2    1    2    0    0 -0.23967206573E+03 -0.43216862289E+02  0.16160853295E+03  0.30229384773E+03  0.77161234946E+02 0.  0.
        254    2    1    2    0    0  0.23967206573E+03  0.43216862289E+02 -0.22388464502E+04  0.24224283525E+04  0.89242103236E+03 0.  0.
         23    2    4    4    0    0  0.37202662045E+02  0.11645227309E+03 -0.21752318724E+04  0.21805947909E+04  0.91732074044E+02 0.  0.
         23    2    4    4    0    0  0.20246940368E+03 -0.73235410799E+02 -0.63614577777E+02  0.24183356155E+03  0.89885327864E+02 0.  0.
          2    1    3    3  502    0 -0.44052888276E+02  0.19639330583E+02  0.17428637331E+02  0.51284672860E+02  0.00000000000E+00 0. -1.
         -1    1    3    3    0  502 -0.19561917745E+03 -0.62856192872E+02  0.14417989562E+03  0.25100917487E+03  0.00000000000E+00 0.  1.
         13    1    5    5    0    0  0.43919819429E+02  0.93454095869E+01 -0.55577466440E+03  0.55758565692E+03  0.00000000000E+00 0.  1.
        -13    1    5    5    0    0 -0.67171573845E+01  0.10710686350E+03 -0.16194572080E+04  0.16230091340E+04  0.00000000000E+00 0. -1.
          1    1    6    6  503    0  0.61370062584E+02 -0.15433220142E+02 -0.63082832839E+02  0.89352742904E+02  0.00000000000E+00 0. -1.
         -1    1    6    6    0  503  0.14109934110E+03 -0.57802190657E+02 -0.53174493837E+00  0.15248081865E+03  0.00000000000E+00 0.  1.
<mgrwt>
<rscale>  0 0.17632906E+04</rscale>
<asrwt>0</asrwt>
<pdfrwt beam="1">  1        2 0.36938153E+00 0.17632906E+04</pdfrwt>
<pdfrwt beam="2">  1       -1 0.49806486E-01 0.17632906E+04</pdfrwt>
<totfact> 0.17325703E+01</totfact>
</mgrwt>
</event>
<event>
12    7  0.1868896E-007  0.2012161E+04  0.7818608E-02  0.8600956E-01
          2   -1    0    0  501    0  0.00000000000E+00  0.00000000000E+00  0.15615963687E+04  0.15615963687E+04  0.00000000000E+00 0. -1.
         -1   -1    0    0    0  501 -0.00000000000E+00 -0.00000000000E+00 -0.64818152905E+03  0.64818152905E+03  0.00000000000E+00 0.  1.
         24    2    1    2    0    0 -0.39355755772E+02 -0.71237777029E+03 -0.34904197040E+02  0.71892503006E+03  0.81264584923E+02 0.  0.
        254    2    1    2    0    0  0.39355755772E+02  0.71237777029E+03  0.94831903669E+03  0.14908528677E+04  0.90238700933E+03 0.  0.
         23    2    4    4    0    0  0.24157065678E+03  0.71854310895E+03  0.10048345419E+04  0.12620747857E+04  0.92085430159E+02 0.  0.
         23    2    4    4    0    0 -0.20221490101E+03 -0.61653386559E+01 -0.56515505227E+02  0.22877808198E+03  0.90645081893E+02 0.  0.
          2    1    3    3  502    0 -0.19257197704E+02 -0.12382703541E+03  0.22208619420E+02  0.12726820945E+03  0.00000000000E+00 0. -1.
         -1    1    3    3    0  502 -0.20098558068E+02 -0.58855073488E+03 -0.57112816460E+02  0.59165682061E+03  0.00000000000E+00 0.  1.
         13    1    5    5    0    0  0.19524677878E+03  0.64644393078E+03  0.92237050544E+03  0.11431440896E+04  0.00000000000E+00 0. -1.
        -13    1    5    5    0    0  0.46323877999E+02  0.72099178170E+02  0.82464036479E+02  0.11893069611E+03  0.00000000000E+00 0.  1.
          3    1    6    6  503    0 -0.20221283037E+03 -0.23773587336E+01 -0.70597552935E+02  0.21419546000E+03  0.00000000000E+00 0. -1.
         -3    1    6    6    0  503 -0.20706333363E-02 -0.37879799223E+01  0.14082047708E+02  0.14582621980E+02  0.00000000000E+00 0.  1.
<mgrwt>
<rscale>  0 0.20121609E+04</rscale>
<asrwt>0</asrwt>
<pdfrwt beam="1">  1        2 0.24024559E+00 0.20121609E+04</pdfrwt>
<pdfrwt beam="2">  1       -1 0.99720236E-01 0.20121609E+04</pdfrwt>
<totfact> 0.11886374E+01</totfact>
</mgrwt>
</event>
<event>
12    7  0.1675873E-007  0.2128588E+04  0.7818608E-02  0.8548754E-01
         -1   -1    0    0    0  501 -0.00000000000E+00  0.00000000000E+00  0.30407858331E+03  0.30407858331E+03  0.00000000000E+00 0.  1.
          2   -1    0    0  501    0  0.00000000000E+00 -0.00000000000E+00 -0.37250944986E+04  0.37250944986E+04  0.00000000000E+00 0. -1.
         24    2    1    2    0    0 -0.11342552296E+03 -0.36638430019E+03  0.74333573919E+02  0.39882534146E+03  0.80208279502E+02 0.  0.
        254    2    1    2    0    0  0.11342552296E+03  0.36638430019E+03 -0.34953494892E+04  0.36303477405E+04  0.90269256126E+03 0.  0.
         23    2    4    4    0    0  0.49655672072E+03  0.15426158955E+03 -0.16963879630E+04  0.17767351085E+04  0.93221831346E+02 0.  0.
         23    2    4    4    0    0 -0.38313119776E+03  0.21212271063E+03 -0.17989615263E+04  0.18536126320E+04  0.88496652390E+02 0.  0.
          4    1    3    3  502    0 -0.30889075540E+01 -0.11576922699E+02  0.19988425852E+02  0.23304584465E+02  0.00000000000E+00 0. -1.
         -3    1    3    3    0  502 -0.11033661540E+03 -0.35480737749E+03  0.54345148067E+02  0.37552075700E+03  0.00000000000E+00 0.  1.
         13    1    5    5    0    0  0.36290633020E+03  0.14788420884E+03 -0.11841379732E+04  0.12472984740E+04  0.00000000000E+00 0. -1.
        -13    1    5    5    0    0  0.13365039052E+03  0.63773807152E+01 -0.51224998978E+03  0.52943663445E+03  0.00000000000E+00 0.  1.
          2    1    6    6  503    0 -0.20939750768E+03  0.80711917938E+02 -0.10443072157E+04  0.10681475978E+04  0.00000000000E+00 0. -1.
         -2    1    6    6    0  503 -0.17373369008E+03  0.13141079270E+03 -0.75465431052E+03  0.78546503417E+03  0.00000000000E+00 0.  1.
<mgrwt>
<rscale>  0 0.21285878E+04</rscale>
<asrwt>0</asrwt>
<pdfrwt beam="1">  1        2 0.57309145E+00 0.21285878E+04</pdfrwt>
<pdfrwt beam="2">  1       -1 0.46781322E-01 0.21285878E+04</pdfrwt>
<totfact> 0.26797568E+00</totfact>
</mgrwt>
</event>
<event>
12    7  0.1675873E-007  0.1633232E+04  0.7818608E-02  0.8800388E-01
          2   -1    0    0  501    0  0.00000000000E+00  0.00000000000E+00  0.13546359132E+04  0.13546359132E+04  0.00000000000E+00 0. -1.
         -1   -1    0    0    0  501 -0.00000000000E+00 -0.00000000000E+00 -0.49228117655E+03  0.49228117655E+03  0.00000000000E+00 0.  1.
         24    2    1    2    0    0  0.49302046529E+03  0.23065186147E+03  0.46958558464E+03  0.72273691764E+03  0.74622854598E+02 0.  0.
        254    2    1    2    0    0 -0.49302046529E+03 -0.23065186147E+03  0.39276915200E+03  0.11241801721E+04  0.90180041704E+03 0.  0.
         23    2    4    4    0    0  0.60366237157E+02 -0.31422526000E+03 -0.12601049337E+03  0.35543737789E+03  0.89863722106E+02 0.  0.
         23    2    4    4    0    0 -0.55338670244E+03  0.83573398534E+02  0.51877964537E+03  0.76874279420E+03  0.92799826513E+02 0.  0.
          2    1    3    3  502    0  0.47316315276E+03  0.22900413109E+03  0.46601724427E+03  0.70249436521E+03  0.00000000000E+00 0. -1.
         -1    1    3    3    0  502  0.19857312523E+02  0.16477303829E+01  0.35683403666E+01  0.20242552433E+02  0.00000000000E+00 0.  1.
         13    1    5    5    0    0  0.74856171764E+02 -0.29980955871E+03 -0.12885171911E+03  0.33480140899E+03  0.00000000000E+00 0.  1.
        -13    1    5    5    0    0 -0.14489934607E+02 -0.14415701297E+02  0.28412257444E+01  0.20635968902E+02  0.00000000000E+00 0. -1.
          1    1    6    6  503    0 -0.81189628591E+02  0.39002046728E+02  0.11335099481E+03  0.14478039738E+03  0.00000000000E+00 0. -1.
         -1    1    6    6    0  503 -0.47219707385E+03  0.44571351806E+02  0.40542865056E+03  0.62396239682E+03  0.00000000000E+00 0.  1.
<mgrwt>
<rscale>  0 0.16332321E+04</rscale>
<asrwt>0</asrwt>
<pdfrwt beam="1">  1        2 0.20840552E+00 0.16332321E+04</pdfrwt>
<pdfrwt beam="2">  1       -1 0.75735566E-01 0.16332321E+04</pdfrwt>
<totfact> 0.29348067E+01</totfact>
</mgrwt>
</event>
<event>
12    7  0.1675873E-007  0.3312838E+04  0.7818608E-02  0.8159636E-01
          2   -1    0    0  501    0  0.00000000000E+00  0.00000000000E+00  0.17578498481E+04  0.17578498481E+04  0.00000000000E+00 0. -1.
         -1   -1    0    0    0  501 -0.00000000000E+00 -0.00000000000E+00 -0.15608410734E+04  0.15608410734E+04  0.00000000000E+00 0.  1.
         24    2    1    2    0    0 -0.11102571058E+04 -0.10476215121E+04  0.22290673755E+03  0.15447679795E+04  0.80243524699E+02 0.  0.
        254    2    1    2    0    0  0.11102571058E+04  0.10476215121E+04 -0.25897962925E+02  0.17739229420E+04  0.90329963250E+03 0.  0.
         23    2    4    4    0    0  0.30021546297E+03  0.13209424913E+03 -0.36802186126E+03  0.50115628424E+03  0.90218157844E+02 0.  0.
         23    2    4    4    0    0  0.81004164280E+03  0.91552726299E+03  0.34212389834E+03  0.12727666578E+04  0.92350262170E+02 0.  0.
          2    1    3    3  502    0 -0.58938352828E+03 -0.56346161193E+03  0.15913566330E+03  0.83077439227E+03  0.00000000000E+00 0. -1.
         -1    1    3    3    0  502 -0.52087357749E+03 -0.48415990019E+03  0.63771074255E+02  0.71399358722E+03  0.00000000000E+00 0.  1.
         13    1    5    5    0    0  0.26683307389E+03  0.10492973474E+03 -0.35471827633E+03  0.45610875251E+03  0.00000000000E+00 0. -1.
        -13    1    5    5    0    0  0.33382389077E+02  0.27164514392E+02 -0.13303584935E+02  0.45047531728E+02  0.00000000000E+00 0.  1.
          1    1    6    6  503    0  0.78580240817E+03  0.90696098125E+03  0.33809474098E+03  0.12467444406E+04  0.00000000000E+00 0. -1.
         -1    1    6    6    0  503  0.24239234632E+02  0.85662817366E+01  0.40291573552E+01  0.26022217187E+02  0.00000000000E+00 0.  1.
<mgrwt>
<rscale>  0 0.33128382E+04</rscale>
<asrwt>0</asrwt>
<pdfrwt beam="1">  1        2 0.27043844E+00 0.33128382E+04</pdfrwt>
<pdfrwt beam="2">  1       -1 0.24012940E+00 0.33128382E+04</pdfrwt>
<totfact> 0.69963941E-01</totfact>
</mgrwt>
</event>
<event>
12    7  0.1675873E-007  0.1828739E+04  0.7818608E-02  0.8691164E-01
         -1   -1    0    0    0  501 -0.00000000000E+00  0.00000000000E+00  0.41945574204E+03  0.41945574204E+03  0.00000000000E+00 0.  1.
          2   -1    0    0  501    0  0.00000000000E+00 -0.00000000000E+00 -0.19932285464E+04  0.19932285464E+04  0.00000000000E+00 0. -1.
         24    2    1    2    0    0  0.14206742686E+03 -0.51993548668E+03 -0.24720433400E+02  0.54533910098E+03  0.79167993204E+02 0.  0.
        254    2    1    2    0    0 -0.14206742686E+03  0.51993548668E+03 -0.15490523710E+04  0.18673451875E+04  0.89269184889E+03 0.  0.
         23    2    4    4    0    0  0.36923234270E+03  0.27065049739E+03 -0.71703527729E+03  0.85575250133E+03  0.92674376374E+02 0.  0.
         23    2    4    4    0    0 -0.51129976955E+03  0.24928498929E+03 -0.83201709367E+03  0.10115926861E+04  0.86584399476E+02 0.  0.
          4    1    3    3  502    0  0.44099285465E+02 -0.23688274032E+03  0.22945780926E+02  0.24204274107E+03  0.00000000000E+00 0. -1.
         -3    1    3    3    0  502  0.97968141394E+02 -0.28305274636E+03 -0.47666214325E+02  0.30329635991E+03  0.00000000000E+00 0.  1.
         13    1    5    5    0    0  0.29669578427E+03  0.25466828447E+03 -0.62833347431E+03  0.74005896958E+03  0.00000000000E+00 0.  1.
        -13    1    5    5    0    0  0.72536558426E+02  0.15982212915E+02 -0.88701802977E+02  0.11569353175E+03  0.00000000000E+00 0. -1.
          3    1    6    6  503    0 -0.81441162993E+02  0.51263671347E+02 -0.20064697285E+03  0.22253052542E+03  0.00000000000E+00 0. -1.
         -3    1    6    6    0  503 -0.42985860656E+03  0.19802131795E+03 -0.63137012082E+03  0.78906216071E+03  0.00000000000E+00 0.  1.
<mgrwt>
<rscale>  0 0.18287385E+04</rscale>
<asrwt>0</asrwt>
<pdfrwt beam="1">  1        2 0.30665054E+00 0.18287385E+04</pdfrwt>
<pdfrwt beam="2">  1       -1 0.64531653E-01 0.18287385E+04</pdfrwt>
<totfact> 0.17602234E+01</totfact>
</mgrwt>
</event>
<event>
12    7  0.1675873E-007  0.1201109E+04  0.7818608E-02  0.9111886E-01
         -1   -1    0    0    0  501 -0.00000000000E+00  0.00000000000E+00  0.42894503071E+03  0.42894503071E+03  0.00000000000E+00 0.  1.
          2   -1    0    0  501    0  0.00000000000E+00 -0.00000000000E+00 -0.84082020704E+03  0.84082020704E+03  0.00000000000E+00 0. -1.
         24    2    1    2    0    0 -0.20830520856E+03 -0.75748253761E+02  0.55904120618E+02  0.24232472052E+03  0.80418540229E+02 0.  0.
        254    2    1    2    0    0  0.20830520856E+03  0.75748253761E+02 -0.46777929694E+03  0.10274405172E+04  0.88751771134E+03 0.  0.
         23    2    4    4    0    0 -0.31817959578E+03 -0.96227992975E+02 -0.11024268878E+03  0.36199963161E+03  0.91608957265E+02 0.  0.
         23    2    4    4    0    0  0.52648480434E+03  0.17197624674E+03 -0.35753660816E+03  0.66544088562E+03  0.90648041522E+02 0.  0.
          4    1    3    3  502    0 -0.11040143210E+03 -0.27875168895E+02 -0.11079150100E+02  0.11440388463E+03  0.00000000000E+00 0. -1.
         -3    1    3    3    0  502 -0.97903776456E+02 -0.47873084866E+02  0.66983270718E+02  0.12792083589E+03  0.00000000000E+00 0.  1.
         13    1    5    5    0    0 -0.49223851556E+01 -0.18808651916E+02  0.36998580674E+01  0.19791013421E+02  0.00000000000E+00 0. -1.
        -13    1    5    5    0    0 -0.31325721063E+03 -0.77419341059E+02 -0.11394254685E+03  0.34220861819E+03  0.00000000000E+00 0.  1.
          4    1    6    6  503    0  0.24407463687E+02  0.25416592609E+02 -0.41091667826E+02  0.54131807915E+02  0.00000000000E+00 0. -1.
         -4    1    6    6    0  503  0.50207734066E+03  0.14655965413E+03 -0.31644494033E+03  0.61130907770E+03  0.00000000000E+00 0.  1.
<mgrwt>
<rscale>  0 0.12011089E+04</rscale>
<asrwt>0</asrwt>
<pdfrwt beam="1">  1        2 0.12935696E+00 0.12011089E+04</pdfrwt>
<pdfrwt beam="2">  1       -1 0.65991543E-01 0.12011089E+04</pdfrwt>
<totfact> 0.84446923E+01</totfact>
</mgrwt>
</event>
<event>
12    7  0.1675873E-007  0.1851729E+04  0.7818608E-02  0.8679264E-01
         -1   -1    0    0    0  501 -0.00000000000E+00  0.00000000000E+00  0.14841943226E+04  0.14841943226E+04  0.00000000000E+00 0.  1.
          2   -1    0    0  501    0  0.00000000000E+00 -0.00000000000E+00 -0.57756956340E+03  0.57756956340E+03  0.00000000000E+00 0. -1.
         24    2    1    2    0    0  0.20618806416E+03 -0.66960342497E+03  0.22027898658E+03  0.73880762592E+03  0.80197329432E+02 0.  0.
        254    2    1    2    0    0 -0.20618806416E+03  0.66960342497E+03  0.68634577262E+03  0.13229562601E+04  0.88784034713E+03 0.  0.
         23    2    4    4    0    0  0.66567475339E+02 -0.12732393830E+03  0.39066000491E+03  0.42572419653E+03  0.89348967751E+02 0.  0.
         23    2    4    4    0    0 -0.27275553950E+03  0.79692736327E+03  0.29568576771E+03  0.89723206356E+03  0.90036081685E+02 0.  0.
          4    1    3    3  502    0  0.68413004708E+02 -0.13817652072E+03  0.25482829088E+02  0.15627688463E+03  0.00000000000E+00 0. -1.
         -3    1    3    3    0  502  0.13777505945E+03 -0.53142690425E+03  0.19479615750E+03  0.58253074129E+03  0.00000000000E+00 0.  1.
         13    1    5    5    0    0  0.63529645882E+02 -0.12141165244E+03  0.25151340296E+03  0.28641891893E+03  0.00000000000E+00 0. -1.
        -13    1    5    5    0    0  0.30378294578E+01 -0.59122858552E+01  0.13914660195E+03  0.13930527760E+03  0.00000000000E+00 0.  1.
          3    1    6    6  503    0 -0.27400832473E+03  0.72317725706E+03  0.27049051450E+03  0.81928690065E+03  0.00000000000E+00 0. -1.
         -3    1    6    6    0  503  0.12527852269E+01  0.73750106212E+02  0.25195253211E+02  0.77945162912E+02  0.00000000000E+00 0.  1.
<mgrwt>
<rscale>  0 0.18517294E+04</rscale>
<asrwt>0</asrwt>
<pdfrwt beam="1">  1        2 0.88856856E-01 0.18517294E+04</pdfrwt>
<pdfrwt beam="2">  1       -1 0.22833759E+00 0.18517294E+04</pdfrwt>
<totfact> 0.53990845E+00</totfact>
</mgrwt>
</event>
<event>
12    7  0.1675873E-007  0.1386057E+04  0.7818608E-02  0.8963973E-01
          2   -1    0    0  501    0  0.00000000000E+00  0.00000000000E+00  0.28821694120E+04  0.28821694120E+04  0.00000000000E+00 0. -1.
         -1   -1    0    0    0  501 -0.00000000000E+00 -0.00000000000E+00 -0.16664134699E+03  0.16664134699E+03  0.00000000000E+00 0.  1.
         24    2    1    2    0    0  0.18711771015E+03 -0.11102742583E+01  0.37061794534E+02  0.20588407358E+03  0.77462281001E+02 0.  0.
        254    2    1    2    0    0 -0.18711771015E+03  0.11102742583E+01  0.26784662705E+04  0.28429266854E+04  0.93436411872E+03 0.  0.
         23    2    4    4    0    0 -0.12813070267E+02 -0.28963531756E+03  0.26088182183E+03  0.40001524254E+03  0.88882379360E+02 0.  0.
         23    2    4    4    0    0 -0.17430463989E+03  0.29074559182E+03  0.24175844487E+04  0.24429114429E+04  0.90480078743E+02 0.  0.
          2    1    3    3  502    0  0.63549626855E+02 -0.86408234903E+01  0.50126123870E+02  0.81399307112E+02  0.00000000000E+00 0. -1.
         -1    1    3    3    0  502  0.12356808330E+03  0.75305492320E+01 -0.13064329336E+02  0.12448476647E+03  0.00000000000E+00 0.  1.
         13    1    5    5    0    0  0.96475754897E+01 -0.36849296218E+02  0.30102579979E+01  0.38210051005E+02  0.00000000000E+00 0. -1.
        -13    1    5    5    0    0 -0.22460645756E+02 -0.25278602134E+03  0.25787156383E+03  0.36180519154E+03  0.00000000000E+00 0.  1.
          2    1    6    6  503    0 -0.15152259015E+03  0.20376076343E+03  0.15476803005E+04  0.15683723590E+04  0.00000000000E+00 0.  1.
         -2    1    6    6    0  503 -0.22782049731E+02  0.86984828387E+02  0.86990414823E+03  0.87453908390E+03  0.00000000000E+00 0. -1.
<mgrwt>
<rscale>  0 0.13860571E+04</rscale>
<asrwt>0</asrwt>
<pdfrwt beam="1">  1        2 0.44341064E+00 0.13860571E+04</pdfrwt>
<pdfrwt beam="2">  1       -1 0.25637132E-01 0.13860571E+04</pdfrwt>
<totfact> 0.30908937E+01</totfact>
</mgrwt>
</event>
<event>
12    7  0.1675873E-007  0.1609093E+04  0.7818608E-02  0.8814981E-01
          2   -1    0    0  501    0  0.00000000000E+00  0.00000000000E+00  0.13173854076E+04  0.13173854076E+04  0.00000000000E+00 0. -1.
         -1   -1    0    0    0  501 -0.00000000000E+00 -0.00000000000E+00 -0.49134817488E+03  0.49134817488E+03  0.00000000000E+00 0.  1.
         24    2    1    2    0    0 -0.29590074931E+02 -0.31618262951E+03 -0.22133412270E+03  0.39502019950E+03  0.78772688219E+02 0.  0.
        254    2    1    2    0    0  0.29590074931E+02  0.31618262951E+03  0.10473713554E+04  0.14137133829E+04  0.89484733073E+03 0.  0.
         23    2    4    4    0    0  0.40454872765E+03  0.36446681250E+03  0.52683342591E+03  0.76301038516E+03  0.90197886580E+02 0.  0.
         23    2    4    4    0    0 -0.37495865272E+03 -0.48284182992E+02  0.52053792946E+03  0.65070299778E+03  0.97618142460E+02 0.  0.
          4    1    3    3  502    0 -0.33056644541E+02 -0.65836527049E+02 -0.28469444153E+02  0.78979106684E+02  0.00000000000E+00 0. -1.
         -3    1    3    3    0  502  0.34665696095E+01 -0.25034610246E+03 -0.19286467854E+03  0.31604109282E+03  0.00000000000E+00 0.  1.
         13    1    5    5    0    0  0.26801137082E+03  0.29560578119E+03  0.38064735639E+03  0.55145741693E+03  0.00000000000E+00 0. -1.
        -13    1    5    5    0    0  0.13653735683E+03  0.68861031311E+02  0.14618606952E+03  0.21155296822E+03  0.00000000000E+00 0.  1.
          1    1    6    6  503    0 -0.12180311167E+03 -0.40233569737E+02  0.24425547098E+03  0.27589032830E+03  0.00000000000E+00 0. -1.
         -1    1    6    6    0  503 -0.25315554105E+03 -0.80506132545E+01  0.27628245848E+03  0.37481266948E+03  0.00000000000E+00 0.  1.
<mgrwt>
<rscale>  0 0.16090928E+04</rscale>
<asrwt>0</asrwt>
<pdfrwt beam="1">  1        2 0.20267468E+00 0.16090928E+04</pdfrwt>
<pdfrwt beam="2">  1       -1 0.75592027E-01 0.16090928E+04</pdfrwt>
<totfact> 0.31027685E+01</totfact>
</mgrwt>
</event>
<event>
12    7  0.1675873E-007  0.3059622E+04  0.7818608E-02  0.8226907E-01
         -1   -1    0    0    0  501 -0.00000000000E+00  0.00000000000E+00  0.71595920006E+03  0.71595920006E+03  0.00000000000E+00 0.  1.
          2   -1    0    0  501    0  0.00000000000E+00 -0.00000000000E+00 -0.32687917083E+04  0.32687917083E+04  0.00000000000E+00 0. -1.
         24    2    1    2    0    0 -0.37185176481E+03 -0.12936688396E+04 -0.16471893575E+04  0.21288234036E+04  0.82483346758E+02 0.  0.
        254    2    1    2    0    0  0.37185176481E+03  0.12936688396E+04 -0.90564315073E+03  0.18559275048E+04  0.90134598523E+03 0.  0.
         23    2    4    4    0    0  0.64062949140E+03  0.10546512319E+04 -0.78918359860E+03  0.14675850858E+04  0.91103597979E+02 0.  0.
         23    2    4    4    0    0 -0.26877772659E+03  0.23901760772E+03 -0.11645955213E+03  0.38834241902E+03  0.88747529630E+02 0.  0.
          2    1    3    3  502    0 -0.30344420919E+02 -0.89386209807E+02 -0.85379817012E+02  0.12728075871E+03  0.00000000000E+00 0. -1.
         -1    1    3    3    0  502 -0.34150734389E+03 -0.12042826298E+04 -0.15618095405E+04  0.20015426448E+04  0.00000000000E+00 0.  1.
         13    1    5    5    0    0  0.56937919147E+02  0.11938143886E+03 -0.11538533684E+03  0.17552102592E+03  0.00000000000E+00 0.  1.
        -13    1    5    5    0    0  0.58369157225E+03  0.93526979301E+03 -0.67379826176E+03  0.12920640599E+04  0.00000000000E+00 0. -1.
          1    1    6    6  503    0 -0.15605026360E+03  0.88773143537E+02 -0.82008153370E+02  0.19737703261E+03  0.00000000000E+00 0. -1.
         -1    1    6    6    0  503 -0.11272746300E+03  0.15024446418E+03 -0.34451398760E+02  0.19096538641E+03  0.00000000000E+00 0.  1.
<mgrwt>
<rscale>  0 0.30596219E+04</rscale>
<asrwt>0</asrwt>
<pdfrwt beam="1">  1        2 0.50289104E+00 0.30596219E+04</pdfrwt>
<pdfrwt beam="2">  1       -1 0.11014757E+00 0.30596219E+04</pdfrwt>
<totfact> 0.85939145E-01</totfact>
</mgrwt>
</event>
<event>
12    7  0.1675873E-007  0.1398034E+04  0.7818608E-02  0.8955243E-01
          2   -1    0    0  501    0  0.00000000000E+00  0.00000000000E+00  0.79877785882E+03  0.79877785882E+03  0.00000000000E+00 0. -1.
         -1   -1    0    0    0  501 -0.00000000000E+00 -0.00000000000E+00 -0.61171550168E+03  0.61171550168E+03  0.00000000000E+00 0.  1.
         24    2    1    2    0    0  0.22787167334E+03  0.11889074481E+03  0.36743135897E+03  0.45547656321E+03  0.79953657600E+02 0.  0.
        254    2    1    2    0    0 -0.22787167334E+03 -0.11889074481E+03 -0.18036900183E+03  0.95501679729E+03  0.90192216825E+03 0.  0.
         23    2    4    4    0    0 -0.13067264510E+03  0.31256077341E+03  0.16379904139E+03  0.38767519615E+03  0.93232797291E+02 0.  0.
         23    2    4    4    0    0 -0.97199028238E+02 -0.43145151823E+03 -0.34416804322E+03  0.56734160115E+03  0.88469128762E+02 0.  0.
          4    1    3    3  502    0  0.21055996689E+03  0.11959509622E+03  0.36494011903E+03  0.43797234750E+03  0.00000000000E+00 0. -1.
         -3    1    3    3    0  502  0.17311706453E+02 -0.70435140753E+00  0.24912399432E+01  0.17504215712E+02  0.00000000000E+00 0.  1.
         13    1    5    5    0    0 -0.29682636355E+01  0.20880595668E+01  0.23580272542E+02  0.23857909274E+02  0.00000000000E+00 0. -1.
        -13    1    5    5    0    0 -0.12770438147E+03  0.31047271385E+03  0.14021876885E+03  0.36381728687E+03  0.00000000000E+00 0.  1.
          3    1    6    6  503    0 -0.26204891843E+02 -0.26917735250E+03 -0.24169043009E+03  0.36270843311E+03  0.00000000000E+00 0. -1.
         -3    1    6    6    0  503 -0.70994136394E+02 -0.16227416573E+03 -0.10247761313E+03  0.20463316803E+03  0.00000000000E+00 0.  1.
<mgrwt>
<rscale>  0 0.13980340E+04</rscale>
<asrwt>0</asrwt>
<pdfrwt beam="1">  1        2 0.12288890E+00 0.13980340E+04</pdfrwt>
<pdfrwt beam="2">  1       -1 0.94110077E-01 0.13980340E+04</pdfrwt>
<totfact> 0.41971228E+01</totfact>
</mgrwt>
</event>
<event>
12    7  0.1675873E-007  0.2240014E+04  0.7818608E-02  0.8501956E-01
         -1   -1    0    0    0  501 -0.00000000000E+00  0.00000000000E+00  0.79605772200E+03  0.79605772200E+03  0.00000000000E+00 0.  1.
          2   -1    0    0  501    0  0.00000000000E+00 -0.00000000000E+00 -0.15757841697E+04  0.15757841697E+04  0.00000000000E+00 0. -1.
         24    2    1    2    0    0  0.69859591874E+03  0.57601990411E+02 -0.98781996347E+03  0.12137501562E+04  0.77761908693E+02 0.  0.
        254    2    1    2    0    0 -0.69859591874E+03 -0.57601990411E+02  0.20809351582E+03  0.11580917355E+04  0.89806420118E+03 0.  0.
         23    2    4    4    0    0 -0.41444030259E+03 -0.44369442991E+03  0.26130682037E+03  0.66721723482E+03  0.90950934706E+02 0.  0.
         23    2    4    4    0    0 -0.28415561616E+03  0.38609243950E+03 -0.53213304549E+02  0.49087450065E+03  0.91182967547E+02 0.  0.
          2    1    3    3  502    0  0.56743527092E+03  0.17185046804E+02 -0.80980603526E+03  0.98897114582E+03  0.00000000000E+00 0. -1.
         -1    1    3    3    0  502  0.13116064783E+03  0.40416943607E+02 -0.17801392820E+03  0.22477901037E+03  0.00000000000E+00 0.  1.
         13    1    5    5    0    0 -0.12351033286E+03 -0.14225757019E+03  0.12731319858E+03  0.22737781143E+03  0.00000000000E+00 0. -1.
        -13    1    5    5    0    0 -0.29092996973E+03 -0.30143685972E+03  0.13399362179E+03  0.43983942339E+03  0.00000000000E+00 0.  1.
          4    1    6    6  503    0 -0.97213029386E+02  0.73534745722E+02  0.52948964125E+01  0.12200724503E+03  0.00000000000E+00 0. -1.
         -4    1    6    6    0  503 -0.18694258677E+03  0.31255769378E+03 -0.58508200962E+02  0.36886725562E+03  0.00000000000E+00 0.  1.
<mgrwt>
<rscale>  0 0.22400135E+04</rscale>
<asrwt>0</asrwt>
<pdfrwt beam="1">  1        2 0.24242833E+00 0.22400135E+04</pdfrwt>
<pdfrwt beam="2">  1       -1 0.12247042E+00 0.22400135E+04</pdfrwt>
<totfact> 0.70298467E+00</totfact>
</mgrwt>
</event>
<event>
12    7  0.1675873E-007  0.1250090E+04  0.7818608E-02  0.9070109E-01
          2   -1    0    0  501    0  0.00000000000E+00  0.00000000000E+00  0.67159791652E+03  0.67159791652E+03  0.00000000000E+00 0. -1.
         -1   -1    0    0    0  501 -0.00000000000E+00 -0.00000000000E+00 -0.58171874601E+03  0.58171874601E+03  0.00000000000E+00 0.  1.
         24    2    1    2    0    0  0.56201724134E+02  0.21651812077E+03  0.19293879675E+03  0.30581098457E+03  0.79096451089E+02 0.  0.
        254    2    1    2    0    0 -0.56201724134E+02 -0.21651812077E+03 -0.10305962624E+03  0.94750567796E+03  0.91493551292E+03 0.  0.
         23    2    4    4    0    0  0.85642381141E+02 -0.45787483348E+03 -0.32776216428E+03  0.57676884275E+03  0.90831057775E+02 0.  0.
         23    2    4    4    0    0 -0.14184410528E+03  0.24135671271E+03  0.22470253804E+03  0.37073683521E+03  0.92637775292E+02 0.  0.
          2    1    3    3  502    0  0.71155651053E+02  0.20600111402E+03  0.16956901066E+03  0.27613988309E+03  0.00000000000E+00 0. -1.
         -1    1    3    3    0  502 -0.14953926919E+02  0.10517006747E+02  0.23369786094E+02  0.29671101484E+02  0.00000000000E+00 0.  1.
         13    1    5    5    0    0  0.98185697478E+02 -0.44056537316E+03 -0.30105793783E+03  0.54256258731E+03  0.00000000000E+00 0.  1.
        -13    1    5    5    0    0 -0.12543316337E+02 -0.17309460317E+02 -0.26704226447E+02  0.34206255442E+02  0.00000000000E+00 0. -1.
          2    1    6    6  503    0 -0.13868033624E+03  0.22175904846E+03  0.16849514856E+03  0.31112686531E+03  0.00000000000E+00 0.  1.
         -2    1    6    6    0  503 -0.31637690358E+01  0.19597664245E+02  0.56207389485E+02  0.59609969897E+02  0.00000000000E+00 0. -1.
<mgrwt>
<rscale>  0 0.12500898E+04</rscale>
<asrwt>0</asrwt>
<pdfrwt beam="1">  1        2 0.10332276E+00 0.12500898E+04</pdfrwt>
<pdfrwt beam="2">  1       -1 0.89495192E-01 0.12500898E+04</pdfrwt>
<totfact> 0.59349822E+01</totfact>
</mgrwt>
</event>
<event>
12    7  0.1675873E-007  0.1397005E+04  0.7818608E-02  0.8955989E-01
         -1   -1    0    0    0  501 -0.00000000000E+00  0.00000000000E+00  0.14981071420E+04  0.14981071420E+04  0.00000000000E+00 0.  1.
          2   -1    0    0  501    0  0.00000000000E+00 -0.00000000000E+00 -0.32568137418E+03  0.32568137418E+03  0.00000000000E+00 0. -1.
         24    2    1    2    0    0  0.97961412308E+02 -0.35923593423E+03  0.51181417244E+03  0.64086660846E+03  0.10054535288E+03 0.  0.
        254    2    1    2    0    0 -0.97961412308E+02  0.35923593423E+03  0.66061159535E+03  0.11829219077E+04  0.90788196648E+03 0.  0.
         23    2    4    4    0    0  0.14884338469E+03 -0.22346108413E+03  0.30441653332E+02  0.28496495287E+03  0.90493761231E+02 0.  0.
         23    2    4    4    0    0 -0.24680479700E+03  0.58269701836E+03  0.63016994202E+03  0.89795695483E+03  0.93616846077E+02 0.  0.
          4    1    3    3  502    0  0.45911882896E+02 -0.15115132194E+03  0.30197602313E+03  0.34079926886E+03  0.00000000000E+00 0. -1.
         -3    1    3    3    0  502  0.52049529412E+02 -0.20808461230E+03  0.20983814931E+03  0.30006733960E+03  0.00000000000E+00 0.  1.
         13    1    5    5    0    0  0.39690698746E+02 -0.53320846315E+02  0.48103545533E+02  0.82051296830E+02  0.00000000000E+00 0. -1.
        -13    1    5    5    0    0  0.10915268595E+03 -0.17014023781E+03 -0.17661892201E+02  0.20291365604E+03  0.00000000000E+00 0.  1.
          2    1    6    6  503    0 -0.13293246602E+03  0.29606121526E+03  0.38789518942E+03  0.50575286621E+03  0.00000000000E+00 0. -1.
         -2    1    6    6    0  503 -0.11387233098E+03  0.28663580310E+03  0.24227475260E+03  0.39220408862E+03  0.00000000000E+00 0.  1.
<mgrwt>
<rscale>  0 0.13970048E+04</rscale>
<asrwt>0</asrwt>
<pdfrwt beam="1">  1        2 0.50104828E-01 0.13970048E+04</pdfrwt>
<pdfrwt beam="2">  1       -1 0.23047802E+00 0.13970048E+04</pdfrwt>
<totfact> 0.10467340E+01</totfact>
</mgrwt>
</event>
<event>
12    7  0.1675873E-007  0.2106268E+04  0.7818608E-02  0.8558487E-01
          2   -1    0    0  501    0  0.00000000000E+00  0.00000000000E+00  0.90930907796E+03  0.90930907796E+03  0.00000000000E+00 0. -1.
         -1   -1    0    0    0  501 -0.00000000000E+00 -0.00000000000E+00 -0.12197072659E+04  0.12197072659E+04  0.00000000000E+00 0.  1.
         24    2    1    2    0    0  0.73619160006E+03  0.18184507223E+03  0.35436813570E+03  0.84112352225E+03  0.82863150984E+02 0.  0.
        254    2    1    2    0    0 -0.73619160006E+03 -0.18184507223E+03 -0.66476632362E+03  0.12878928216E+04  0.80106675914E+03 0.  0.
         23    2    4    4    0    0 -0.85041474658E+03 -0.28131851716E+03 -0.64738352862E+03  0.11089897333E+04  0.91692126839E+02 0.  0.
         23    2    4    4    0    0  0.11422314652E+03  0.99473444928E+02 -0.17382795001E+02  0.17890308830E+03  0.93606944167E+02 0.  0.
          4    1    3    3  502    0  0.64451769879E+02  0.17366247697E+02  0.67489720338E+01  0.67090728295E+02  0.00000000000E+00 0. -1.
         -3    1    3    3    0  502  0.67173983018E+03  0.16447882454E+03  0.34761916367E+03  0.77403279396E+03  0.00000000000E+00 0.  1.
         13    1    5    5    0    0 -0.74651551268E+03 -0.22113387366E+03 -0.58363542949E+03  0.97304466255E+03  0.00000000000E+00 0. -1.
        -13    1    5    5    0    0 -0.10389923389E+03 -0.60184643497E+02 -0.63748099130E+02  0.13594507074E+03  0.00000000000E+00 0.  1.
          3    1    6    6  503    0  0.53682060119E+02  0.97183227415E+02 -0.33941844605E+02  0.11609647749E+03  0.00000000000E+00 0. -1.
         -3    1    6    6    0  503  0.60541086399E+02  0.22902175123E+01  0.16559049604E+02  0.62806610817E+02  0.00000000000E+00 0.  1.
<mgrwt>
<rscale>  0 0.21062677E+04</rscale>
<asrwt>0</asrwt>
<pdfrwt beam="1">  1        2 0.13989370E+00 0.21062677E+04</pdfrwt>
<pdfrwt beam="2">  1       -1 0.18764727E+00 0.21062677E+04</pdfrwt>
<totfact> 0.55743443E+00</totfact>
</mgrwt>
</event>
<event>
12    7  0.1675873E-007  0.1681598E+04  0.7818608E-02  0.8771930E-01
          2   -1    0    0  501    0  0.00000000000E+00  0.00000000000E+00  0.15574173576E+04  0.15574173576E+04  0.00000000000E+00 0. -1.
         -1   -1    0    0    0  501 -0.00000000000E+00 -0.00000000000E+00 -0.45392013843E+03  0.45392013843E+03  0.00000000000E+00 0.  1.
         24    2    1    2    0    0 -0.15408948069E+03 -0.19434934782E+03  0.10978168055E+04  0.11283020393E+04  0.79677577554E+02 0.  0.
        254    2    1    2    0    0  0.15408948069E+03  0.19434934782E+03  0.56804136220E+01  0.88303545670E+03  0.84746924052E+03 0.  0.
         23    2    4    4    0    0 -0.33695716764E+03  0.99235498892E+01  0.24244605128E+02  0.34953763786E+03  0.89163612162E+02 0.  0.
         23    2    4    4    0    0  0.49104664833E+03  0.18442579793E+03 -0.18564191506E+02  0.53349781884E+03  0.95580373073E+02 0.  0.
          2    1    3    3  502    0 -0.80598690814E+02 -0.14355403471E+03  0.58335101458E+03  0.60613720893E+03  0.00000000000E+00 0. -1.
         -1    1    3    3    0  502 -0.73490789876E+02 -0.50795313107E+02  0.51446579095E+03  0.52216483038E+03  0.00000000000E+00 0.  1.
         13    1    5    5    0    0 -0.30163485457E+03  0.22018541149E+02  0.46621450907E+02  0.30600974058E+03  0.00000000000E+00 0. -1.
        -13    1    5    5    0    0 -0.35322313074E+02 -0.12094991260E+02 -0.22376845779E+02  0.43527897278E+02  0.00000000000E+00 0.  1.
          3    1    6    6  503    0  0.37482549454E+03  0.11660115207E+03 -0.48840251631E+02  0.39556965278E+03  0.00000000000E+00 0. -1.
         -3    1    6    6    0  503  0.11622115379E+03  0.67824645863E+02  0.30276060125E+02  0.13792816606E+03  0.00000000000E+00 0.  1.
<mgrwt>
<rscale>  0 0.16815982E+04</rscale>
<asrwt>0</asrwt>
<pdfrwt beam="1">  1        2 0.23960267E+00 0.16815982E+04</pdfrwt>
<pdfrwt beam="2">  1       -1 0.69833868E-01 0.16815982E+04</pdfrwt>
<totfact> 0.26523018E+01</totfact>
</mgrwt>
</event>
<event>
12    7  0.3103515E-007  0.2025194E+04  0.7818608E-02  0.8594931E-01
          2   -1    0    0  501    0  0.00000000000E+00  0.00000000000E+00  0.11850222157E+04  0.11850222157E+04  0.00000000000E+00 0. -1.
         -1   -1    0    0    0  501 -0.00000000000E+00 -0.00000000000E+00 -0.86526066453E+03  0.86526066453E+03  0.00000000000E+00 0.  1.
         24    2    1    2    0    0 -0.39165764010E+03 -0.61676225695E+03  0.19571343478E+03  0.76214330357E+03  0.93633743841E+02 0.  0.
        254    2    1    2    0    0  0.39165764010E+03  0.61676225695E+03  0.12404811639E+03  0.12881395767E+04  0.10536243378E+04 0.  0.
         23    2    4    4    0    0  0.22103154672E+03  0.74232385932E+03 -0.27485324453E+03  0.82715785721E+03  0.93520895819E+02 0.  0.
         23    2    4    4    0    0  0.17062609338E+03 -0.12556160237E+03  0.39890136092E+03  0.46098171944E+03  0.92211009001E+02 0.  0.
          4    1    3    3  502    0 -0.23620635409E+03 -0.37643754493E+03  0.71456598212E+02  0.45011633204E+03  0.00000000000E+00 0. -1.
         -3    1    3    3    0  502 -0.15545128601E+03 -0.24032471202E+03  0.12425683656E+03  0.31202697153E+03  0.00000000000E+00 0.  1.
         13    1    5    5    0    0  0.35846150947E+02  0.48433260104E+02 -0.70149125511E+01  0.60662477860E+02  0.00000000000E+00 0. -1.
        -13    1    5    5    0    0  0.18518539577E+03  0.69389059921E+03 -0.26783833198E+03  0.76649537935E+03  0.00000000000E+00 0.  1.
          1    1    6    6  503    0 -0.21651017666E+01 -0.10675966542E+02 -0.49084213544E+00  0.10904350199E+02  0.00000000000E+00 0. -1.
         -1    1    6    6    0  503  0.17279119515E+03 -0.11488563583E+03  0.39939220306E+03  0.45007736924E+03  0.00000000000E+00 0.  1.
<mgrwt>
<rscale>  0 0.20251944E+04</rscale>
<asrwt>0</asrwt>
<pdfrwt beam="1">  1        2 0.18231111E+00 0.20251944E+04</pdfrwt>
<pdfrwt beam="2">  1       -1 0.13311702E+00 0.20251944E+04</pdfrwt>
<totfact> 0.97618640E+00</totfact>
</mgrwt>
</event>
<event>
12    7  0.1675873E-007  0.1362872E+04  0.7818608E-02  0.8981141E-01
         -1   -1    0    0    0  501 -0.00000000000E+00  0.00000000000E+00  0.50733868088E+03  0.50733868088E+03  0.00000000000E+00 0.  1.
          2   -1    0    0  501    0  0.00000000000E+00 -0.00000000000E+00 -0.91527588869E+03  0.91527588869E+03  0.00000000000E+00 0. -1.
         24    2    1    2    0    0 -0.32014720336E+03  0.46617376312E+02 -0.32300745968E+03  0.46422256231E+03  0.80630991286E+02 0.  0.
        254    2    1    2    0    0  0.32014720336E+03 -0.46617376312E+02 -0.84929748130E+02  0.95839200727E+03  0.89812847960E+03 0.  0.
         23    2    4    4    0    0  0.50986530320E+03 -0.27839379238E+03  0.98930086445E+02  0.59599246597E+03  0.89185909471E+02 0.  0.
         23    2    4    4    0    0 -0.18971809983E+03  0.23177641607E+03 -0.18385983458E+03  0.36239954129E+03  0.88406585218E+02 0.  0.
          2    1    3    3  502    0 -0.30955188376E+03  0.60840202022E+02 -0.30934189122E+03  0.44183289215E+03  0.00000000000E+00 0. -1.
         -1    1    3    3    0  502 -0.10595319600E+02 -0.14222825709E+02 -0.13665568458E+02  0.22389670160E+02  0.00000000000E+00 0.  1.
         13    1    5    5    0    0  0.44214530062E+03 -0.20774920109E+03  0.67224236423E+02  0.49312401622E+03  0.00000000000E+00 0. -1.
        -13    1    5    5    0    0  0.67720002582E+02 -0.70644591292E+02  0.31705850022E+02  0.10286844975E+03  0.00000000000E+00 0.  1.
          1    1    6    6  503    0 -0.18980860514E+03  0.22475566937E+03 -0.15464232500E+03  0.33235021616E+03  0.00000000000E+00 0. -1.
         -1    1    6    6    0  503  0.90505304716E-01  0.70207467017E+01 -0.29217509577E+02  0.30049325139E+02  0.00000000000E+00 0.  1.
<mgrwt>
<rscale>  0 0.13628718E+04</rscale>
<asrwt>0</asrwt>
<pdfrwt beam="1">  1        2 0.14081167E+00 0.13628718E+04</pdfrwt>
<pdfrwt beam="2">  1       -1 0.78052105E-01 0.13628718E+04</pdfrwt>
<totfact> 0.52435567E+01</totfact>
</mgrwt>
</event>
<event>
12    7  0.1675873E-007  0.1496804E+04  0.7818608E-02  0.8886581E-01
          2   -1    0    0  501    0  0.00000000000E+00  0.00000000000E+00  0.28722466563E+04  0.28722466563E+04  0.00000000000E+00 0. -1.
         -1   -1    0    0    0  501 -0.00000000000E+00 -0.00000000000E+00 -0.19500607617E+03  0.19500607617E+03  0.00000000000E+00 0.  1.
         24    2    1    2    0    0 -0.11232674571E+03  0.20847791186E+03  0.16846594121E+04  0.17030655958E+04  0.79213329237E+02 0.  0.
        254    2    1    2    0    0  0.11232674571E+03 -0.20847791186E+03  0.99258116809E+03  0.13641871367E+04  0.90537772838E+03 0.  0.
         23    2    4    4    0    0  0.14927843958E+03  0.26900752116E+03  0.75776987272E+03  0.82282098695E+03  0.90388592146E+02 0.  0.
         23    2    4    4    0    0 -0.36951693872E+02 -0.47748543302E+03  0.23481129537E+03  0.54136614971E+03  0.92645546010E+02 0.  0.
          2    1    3    3  502    0 -0.65757482569E+02  0.89372761921E+02  0.10356116424E+04  0.10415387707E+04  0.00000000000E+00 0. -1.
         -1    1    3    3    0  502 -0.46569263143E+02  0.11910514994E+03  0.64904776968E+03  0.66152682511E+03  0.00000000000E+00 0.  1.
         13    1    5    5    0    0  0.13658071257E+03  0.25194024174E+03  0.74449184456E+03  0.79774449736E+03  0.00000000000E+00 0. -1.
        -13    1    5    5    0    0  0.12697727011E+02  0.17067279417E+02  0.13278028159E+02  0.25076489582E+02  0.00000000000E+00 0.  1.
          3    1    6    6  503    0 -0.30125684234E+02 -0.46435877749E+03  0.20582607697E+03  0.50882315694E+03  0.00000000000E+00 0. -1.
         -3    1    6    6    0  503 -0.68260096382E+01 -0.13126655534E+02  0.28985218392E+02  0.32542992769E+02  0.00000000000E+00 0.  1.
<mgrwt>
<rscale>  0 0.14968040E+04</rscale>
<asrwt>0</asrwt>
<pdfrwt beam="1">  1        2 0.44188407E+00 0.14968040E+04</pdfrwt>
<pdfrwt beam="2">  1       -1 0.30000937E-01 0.14968040E+04</pdfrwt>
<totfact> 0.23605236E+01</totfact>
</mgrwt>
</event>
<event>
12    7  0.1675873E-007  0.1706237E+04  0.7818608E-02  0.8757815E-01
          2   -1    0    0  501    0  0.00000000000E+00  0.00000000000E+00  0.15643270648E+04  0.15643270648E+04  0.00000000000E+00 0. -1.
         -1   -1    0    0    0  501 -0.00000000000E+00 -0.00000000000E+00 -0.46525530671E+03  0.46525530671E+03  0.00000000000E+00 0.  1.
         24    2    1    2    0    0  0.31692859098E+03 -0.22547431489E+03 -0.16154953940E+03  0.42874819460E+03  0.80276785197E+02 0.  0.
        254    2    1    2    0    0 -0.31692859098E+03  0.22547431489E+03  0.12606212975E+04  0.16008341769E+04  0.90676436180E+03 0.  0.
         23    2    4    4    0    0  0.28653975360E+03 -0.56374581147E+02  0.49476926208E+03  0.58172467173E+03  0.91235120514E+02 0.  0.
         23    2    4    4    0    0 -0.60346834458E+03  0.28184889603E+03  0.76585203541E+03  0.10191095052E+04  0.91880358647E+02 0.  0.
          4    1    3    3  502    0  0.86444060532E+02 -0.66163940721E+02 -0.77660189229E+01  0.10913548324E+03  0.00000000000E+00 0. -1.
         -3    1    3    3    0  502  0.23048453045E+03 -0.15931037417E+03 -0.15378352048E+03  0.31961271136E+03  0.00000000000E+00 0.  1.
         13    1    5    5    0    0  0.14213503779E+03 -0.68306902994E+02  0.30056561263E+03  0.33942287704E+03  0.00000000000E+00 0.  1.
        -13    1    5    5    0    0  0.14440471580E+03  0.11932321848E+02  0.19420364945E+03  0.24230179469E+03  0.00000000000E+00 0. -1.
          4    1    6    6  503    0 -0.46397049028E+03  0.24512025270E+03  0.55661097524E+03  0.76496296112E+03  0.00000000000E+00 0.  1.
         -4    1    6    6    0  503 -0.13949785430E+03  0.36728643335E+02  0.20924106017E+03  0.25414654406E+03  0.00000000000E+00 0. -1.
<mgrwt>
<rscale>  0 0.17062373E+04</rscale>
<asrwt>0</asrwt>
<pdfrwt beam="1">  1        2 0.24066570E+00 0.17062373E+04</pdfrwt>
<pdfrwt beam="2">  1       -1 0.71577741E-01 0.17062373E+04</pdfrwt>
<totfact> 0.24934655E+01</totfact>
</mgrwt>
</event>
<event>
12    7  0.1675873E-007  0.2062068E+04  0.7818608E-02  0.8578139E-01
          2   -1    0    0  501    0  0.00000000000E+00  0.00000000000E+00  0.91398682989E+03  0.91398682989E+03  0.00000000000E+00 0. -1.
         -1   -1    0    0    0  501 -0.00000000000E+00 -0.00000000000E+00 -0.11630705383E+04  0.11630705383E+04  0.00000000000E+00 0.  1.
         24    2    1    2    0    0 -0.81824345866E+03 -0.77782486281E+02 -0.27710232733E+03  0.87109866806E+03  0.80341252584E+02 0.  0.
        254    2    1    2    0    0  0.81824345866E+03  0.77782486281E+02  0.28018618881E+02  0.12059587002E+04  0.88203110530E+03 0.  0.
         23    2    4    4    0    0  0.67865099887E+03  0.14786667564E+02 -0.36349805037E+03  0.77549653867E+03  0.92077277698E+02 0.  0.
         23    2    4    4    0    0  0.13959245979E+03  0.62995818717E+02  0.39151666925E+03  0.43046216151E+03  0.92508605969E+02 0.  0.
          2    1    3    3  502    0 -0.43758418818E+03 -0.74578761388E+02 -0.12494759520E+03  0.46114402842E+03  0.00000000000E+00 0. -1.
         -3    1    3    3    0  502 -0.38065927048E+03 -0.32037248930E+01 -0.15215473213E+03  0.40995463964E+03  0.00000000000E+00 0.  1.
         13    1    5    5    0    0  0.11474259428E+02 -0.88909340885E+01  0.15731242406E+01  0.14600755400E+02  0.00000000000E+00 0.  1.
        -13    1    5    5    0    0  0.66717673944E+03  0.23677601652E+02 -0.36507117461E+03  0.76089578327E+03  0.00000000000E+00 0. -1.
          4    1    6    6  503    0  0.61015598418E+02 -0.18033928845E+02  0.17654293275E+03  0.18765802126E+03  0.00000000000E+00 0.  1.
         -4    1    6    6    0  503  0.78576861375E+02  0.81029747562E+02  0.21497373650E+03  0.24280414024E+03  0.00000000000E+00 0. -1.
<mgrwt>
<rscale>  0 0.20620680E+04</rscale>
<asrwt>0</asrwt>
<pdfrwt beam="1">  1        2 0.14061336E+00 0.20620680E+04</pdfrwt>
<pdfrwt beam="2">  1       -1 0.17893393E+00 0.20620680E+04</pdfrwt>
<totfact> 0.64090717E+00</totfact>
</mgrwt>
</event>
<event>
12    7  0.1675873E-007  0.1527236E+04  0.7818608E-02  0.8866541E-01
          2   -1    0    0  501    0  0.00000000000E+00  0.00000000000E+00  0.20550181206E+04  0.20550181206E+04  0.00000000000E+00 0. -1.
         -1   -1    0    0    0  501 -0.00000000000E+00 -0.00000000000E+00 -0.28375046798E+03  0.28375046798E+03  0.00000000000E+00 0.  1.
         24    2    1    2    0    0  0.11664504853E+03  0.20902208189E+03 -0.82106733115E+02  0.26530155739E+03  0.79668705696E+02 0.  0.
        254    2    1    2    0    0 -0.11664504853E+03 -0.20902208189E+03  0.18533743857E+04  0.20734670312E+04  0.89831654647E+03 0.  0.
         23    2    4    4    0    0  0.26109619251E+03 -0.40346312910E+03  0.85248405600E+03  0.98215633223E+03  0.83356324997E+02 0.  0.
         23    2    4    4    0    0 -0.37774124104E+03  0.19444104721E+03  0.10008903297E+04  0.10913106989E+04  0.93176303187E+02 0.  0.
          4    1    3    3  502    0  0.65483539229E+02  0.63099373664E+02 -0.60364259590E+02  0.10914883739E+03  0.00000000000E+00 0. -1.
         -3    1    3    3    0  502  0.51161509301E+02  0.14592270823E+03 -0.21742473524E+02  0.15615272001E+03  0.00000000000E+00 0.  1.
         13    1    5    5    0    0  0.18629560750E+03 -0.32302692181E+03  0.59462266945E+03  0.70187503490E+03  0.00000000000E+00 0. -1.
        -13    1    5    5    0    0  0.74800585010E+02 -0.80436207295E+02  0.25786138655E+03  0.28028129733E+03  0.00000000000E+00 0.  1.
          1    1    6    6  503    0 -0.37697917953E+03  0.18126216153E+03  0.98782086854E+03  0.10727345158E+04  0.00000000000E+00 0. -1.
         -1    1    6    6    0  503 -0.76206151539E+00  0.13178885684E+02  0.13069461159E+02  0.18576183155E+02  0.00000000000E+00 0.  1.
<mgrwt>
<rscale>  0 0.15272359E+04</rscale>
<asrwt>0</asrwt>
<pdfrwt beam="1">  1        2 0.31615662E+00 0.15272359E+04</pdfrwt>
<pdfrwt beam="2">  1       -1 0.43653919E-01 0.15272359E+04</pdfrwt>
<totfact> 0.35455812E+01</totfact>
</mgrwt>
</event>
<event>
12    7  0.1675873E-007  0.2437645E+04  0.7818608E-02  0.8425543E-01
         -1   -1    0    0    0  501 -0.00000000000E+00  0.00000000000E+00  0.13667766521E+04  0.13667766521E+04  0.00000000000E+00 0.  1.
          2   -1    0    0  501    0  0.00000000000E+00 -0.00000000000E+00 -0.10868843643E+04  0.10868843643E+04  0.00000000000E+00 0. -1.
         24    2    1    2    0    0 -0.35034355519E+03 -0.66875100269E+03 -0.61473758137E+03  0.97686089307E+03  0.79914956061E+02 0.  0.
        254    2    1    2    0    0  0.35034355519E+03  0.66875100269E+03  0.89462986916E+03  0.14768001233E+04  0.90033743183E+03 0.  0.
         23    2    4    4    0    0 -0.24023405729E+03  0.34209091810E+02  0.49791644724E+02  0.26356000882E+03  0.90011144421E+02 0.  0.
         23    2    4    4    0    0  0.59057761249E+03  0.63454191088E+03  0.84483822444E+03  0.12132401145E+04  0.82307939515E+02 0.  0.
          4    1    3    3  502    0 -0.30601227862E+03 -0.58493167224E+03 -0.50066541330E+03  0.82852545642E+03  0.00000000000E+00 0. -1.
         -3    1    3    3    0  502 -0.44331276572E+02 -0.83819330445E+02 -0.11407216807E+03  0.14833543665E+03  0.00000000000E+00 0.  1.
         13    1    5    5    0    0 -0.11885424389E+03  0.30127177188E+02  0.68856480911E+02  0.14062429754E+03  0.00000000000E+00 0. -1.
        -13    1    5    5    0    0 -0.12137981340E+03  0.40819146218E+01 -0.19064836188E+02  0.12293571128E+03  0.00000000000E+00 0.  1.
          3    1    6    6  503    0  0.40520946827E+03  0.39448523043E+03  0.51085295900E+03  0.76209189467E+03  0.00000000000E+00 0. -1.
         -3    1    6    6    0  503  0.18536814422E+03  0.24005668045E+03  0.33398526543E+03  0.45114821982E+03  0.00000000000E+00 0.  1.
<mgrwt>
<rscale>  0 0.24376449E+04</rscale>
<asrwt>0</asrwt>
<pdfrwt beam="1">  1        2 0.16721298E+00 0.24376449E+04</pdfrwt>
<pdfrwt beam="2">  1       -1 0.21027333E+00 0.24376449E+04</pdfrwt>
<totfact> 0.29038815E+00</totfact>
</mgrwt>
</event>
<event>
12    7  0.1675873E-007  0.1293146E+04  0.7818608E-02  0.9035018E-01
          2   -1    0    0  501    0  0.00000000000E+00  0.00000000000E+00  0.17152998700E+04  0.17152998700E+04  0.00000000000E+00 0. -1.
         -1   -1    0    0    0  501 -0.00000000000E+00 -0.00000000000E+00 -0.24372220907E+03  0.24372220907E+03  0.00000000000E+00 0.  1.
         24    2    1    2    0    0 -0.18001424556E+03 -0.27297422334E+03  0.34225022921E+03  0.47957411473E+03  0.77045810461E+02 0.  0.
        254    2    1    2    0    0  0.18001424556E+03  0.27297422334E+03  0.11293274317E+04  0.14794479644E+04  0.89803439577E+03 0.  0.
         23    2    4    4    0    0  0.34602149961E+03 -0.73834732290E+02  0.99830747223E+03  0.10633723342E+04  0.94659738263E+02 0.  0.
         23    2    4    4    0    0 -0.16600725405E+03  0.34680895563E+03  0.13101995950E+03  0.41607563021E+03  0.90099057505E+02 0.  0.
          4    1    3    3  502    0 -0.12776729971E+03 -0.18207445506E+03  0.28016249820E+03  0.35772421704E+03  0.00000000000E+00 0. -1.
         -1    1    3    3    0  502 -0.52246945848E+02 -0.90899768285E+02  0.62087731015E+02  0.12184989769E+03  0.00000000000E+00 0.  1.
         13    1    5    5    0    0  0.31235293466E+03 -0.38245245317E+02  0.81536476480E+03  0.87398326887E+03  0.00000000000E+00 0.  1.
        -13    1    5    5    0    0  0.33668564953E+02 -0.35589486974E+02  0.18294270743E+03  0.18938906529E+03  0.00000000000E+00 0. -1.
          3    1    6    6  503    0 -0.12989308108E+02  0.16898261384E+02  0.33246877758E+02  0.39492128881E+02  0.00000000000E+00 0. -1.
         -3    1    6    6    0  503 -0.15301794594E+03  0.32991069425E+03  0.97773081743E+02  0.37658350133E+03  0.00000000000E+00 0.  1.
<mgrwt>
<rscale>  0 0.12931460E+04</rscale>
<asrwt>0</asrwt>
<pdfrwt beam="1">  1        2 0.26389228E+00 0.12931460E+04</pdfrwt>
<pdfrwt beam="2">  1       -1 0.37495726E-01 0.12931460E+04</pdfrwt>
<totfact> 0.73619308E+01</totfact>
</mgrwt>
</event>
<event>
12    7  0.1675873E-007  0.1502566E+04  0.7818608E-02  0.8882749E-01
          2   -1    0    0  501    0  0.00000000000E+00  0.00000000000E+00  0.10807054007E+04  0.10807054007E+04  0.00000000000E+00 0. -1.
         -1   -1    0    0    0  501 -0.00000000000E+00 -0.00000000000E+00 -0.52227534898E+03  0.52227534898E+03  0.00000000000E+00 0.  1.
         24    2    1    2    0    0  0.23213871054E+03 -0.19625813830E+03  0.58736322408E+03  0.66618978836E+03  0.80047731549E+02 0.  0.
        254    2    1    2    0    0 -0.23213871054E+03  0.19625813830E+03 -0.28933172384E+02  0.93679096129E+03  0.88562663629E+03 0.  0.
         23    2    4    4    0    0 -0.53585718075E+03  0.43356753974E+02  0.11528681879E+03  0.55622997286E+03  0.84130885197E+02 0.  0.
         23    2    4    4    0    0  0.30371847020E+03  0.15290138433E+03 -0.14421999117E+03  0.38056098843E+03  0.91670701923E+02 0.  0.
          4    1    3    3  502    0  0.15784355432E+03 -0.81990286986E+02  0.32130285032E+03  0.36724993727E+03  0.00000000000E+00 0. -1.
         -1    1    3    3    0  502  0.74295156222E+02 -0.11426785132E+03  0.26606037376E+03  0.29893985109E+03  0.00000000000E+00 0.  1.
         13    1    5    5    0    0 -0.96715682537E+02  0.21432331178E+02 -0.85638271255E+01  0.99431419599E+02  0.00000000000E+00 0.  1.
        -13    1    5    5    0    0 -0.43914149821E+03  0.21924422796E+02  0.12385064592E+03  0.45679855326E+03  0.00000000000E+00 0. -1.
          2    1    6    6  503    0  0.28544511222E+03  0.16254299237E+03 -0.14670331256E+03  0.35975130073E+03  0.00000000000E+00 0. -1.
         -2    1    6    6    0  503  0.18273357981E+02 -0.96416080367E+01  0.24833213814E+01  0.20809687709E+02  0.00000000000E+00 0.  1.
<mgrwt>
<rscale>  0 0.15025655E+04</rscale>
<asrwt>0</asrwt>
<pdfrwt beam="1">  1        2 0.16626237E+00 0.15025655E+04</pdfrwt>
<pdfrwt beam="2">  1       -1 0.80350054E-01 0.15025655E+04</pdfrwt>
<totfact> 0.38141916E+01</totfact>
</mgrwt>
</event>
<event>
12    7  0.1675873E-007  0.2492737E+04  0.7818608E-02  0.8405578E-01
         -1   -1    0    0    0  501 -0.00000000000E+00  0.00000000000E+00  0.91260678887E+03  0.91260678887E+03  0.00000000000E+00 0.  1.
          2   -1    0    0  501    0  0.00000000000E+00 -0.00000000000E+00 -0.17021940882E+04  0.17021940882E+04  0.00000000000E+00 0. -1.
         24    2    1    2    0    0 -0.27102975279E+03  0.54114199369E+03  0.59794475526E+03  0.85460442789E+03  0.80740408700E+02 0.  0.
        254    2    1    2    0    0  0.27102975279E+03 -0.54114199369E+03 -0.13875320546E+04  0.17601964492E+04  0.89819516419E+03 0.  0.
         23    2    4    4    0    0  0.15940245549E+03  0.99487517360E+02 -0.94492446101E+03  0.96770624333E+03  0.90918795762E+02 0.  0.
         23    2    4    4    0    0  0.11162729730E+03 -0.64062951105E+03 -0.44260759359E+03  0.79249020587E+03  0.96293408708E+02 0.  0.
          4    1    3    3  502    0  0.34978870126E+01 -0.28218041115E+00  0.40654719513E+01  0.53705587721E+01  0.00000000000E+00 0. -1.
         -3    1    3    3    0  502 -0.27452763980E+03  0.54142417410E+03  0.59387928331E+03  0.84923386912E+03  0.00000000000E+00 0.  1.
         13    1    5    5    0    0  0.64892705738E+02  0.60295750775E+02 -0.63937107188E+03  0.64547812385E+03  0.00000000000E+00 0. -1.
        -13    1    5    5    0    0  0.94509749749E+02  0.39191766585E+02 -0.30555338914E+03  0.32222811947E+03  0.00000000000E+00 0.  1.
          1    1    6    6  503    0  0.34726662332E+02 -0.49206222370E+02 -0.51916267816E+02  0.79514101017E+02  0.00000000000E+00 0. -1.
         -1    1    6    6    0  503  0.76900634973E+02 -0.59142328868E+03 -0.39069132577E+03  0.71297610485E+03  0.00000000000E+00 0.  1.
<mgrwt>
<rscale>  0 0.24927366E+04</rscale>
<asrwt>0</asrwt>
<pdfrwt beam="1">  1        2 0.26187601E+00 0.24927366E+04</pdfrwt>
<pdfrwt beam="2">  1       -1 0.14040105E+00 0.24927366E+04</pdfrwt>
<totfact> 0.41337809E+00</totfact>
</mgrwt>
</event>
<event>
12    7  0.1675873E-007  0.1949554E+04  0.7818608E-02  0.8630576E-01
          2   -1    0    0  501    0  0.00000000000E+00  0.00000000000E+00  0.16539340066E+04  0.16539340066E+04  0.00000000000E+00 0. -1.
         -1   -1    0    0    0  501 -0.00000000000E+00 -0.00000000000E+00 -0.57450335308E+03  0.57450335308E+03  0.00000000000E+00 0.  1.
         24    2    1    2    0    0 -0.38665636185E+03 -0.18871140794E+02 -0.32448132357E+03  0.51160220714E+03  0.81175284940E+02 0.  0.
        254    2    1    2    0    0  0.38665636185E+03  0.18871140794E+02  0.14039119771E+04  0.17168351526E+04  0.90922760599E+03 0.  0.
         23    2    4    4    0    0  0.40796312918E+03  0.40724271666E+03  0.84385809992E+03  0.10271605189E+04  0.10335227972E+03 0.  0.
         23    2    4    4    0    0 -0.21306767334E+02 -0.38837157586E+03  0.56005387721E+03  0.68967463369E+03  0.10346156632E+03 0.  0.
          4    1    3    3  502    0 -0.13374092907E+03  0.31967404753E+02 -0.11683132588E+03  0.18043865933E+03  0.00000000000E+00 0. -1.
         -3    1    3    3    0  502 -0.25291543278E+03 -0.50838545547E+02 -0.20764999770E+03  0.33116354780E+03  0.00000000000E+00 0.  1.
         13    1    5    5    0    0  0.34592287236E+03  0.38936898627E+03  0.75954337320E+03  0.92096524194E+03  0.00000000000E+00 0.  1.
        -13    1    5    5    0    0  0.62040256824E+02  0.17873730391E+02  0.84314726722E+02  0.10619527695E+03  0.00000000000E+00 0. -1.
          1    1    6    6  503    0  0.29983932327E+02 -0.91568064657E+02  0.92948369158E+02  0.13387735429E+03  0.00000000000E+00 0. -1.
         -1    1    6    6    0  503 -0.51290699661E+02 -0.29680351121E+03  0.46710550805E+03  0.55579727940E+03  0.00000000000E+00 0.  1.
<mgrwt>
<rscale>  0 0.19495544E+04</rscale>
<asrwt>0</asrwt>
<pdfrwt beam="1">  1        2 0.25445138E+00 0.19495544E+04</pdfrwt>
<pdfrwt beam="2">  1       -1 0.88385132E-01 0.19495544E+04</pdfrwt>
<totfact> 0.13897429E+01</totfact>
</mgrwt>
</event>
<event>
12    7  0.1675873E-007  0.1353320E+04  0.7818608E-02  0.8988319E-01
          2   -1    0    0  501    0  0.00000000000E+00  0.00000000000E+00  0.19637322005E+03  0.19637322005E+03  0.00000000000E+00 0. -1.
         -1   -1    0    0    0  501 -0.00000000000E+00 -0.00000000000E+00 -0.23316247481E+04  0.23316247481E+04  0.00000000000E+00 0.  1.
         24    2    1    2    0    0  0.46673873831E+01 -0.26524114983E+03 -0.10401640035E+04  0.10764379335E+04  0.80017612774E+02 0.  0.
        254    2    1    2    0    0 -0.46673873831E+01  0.26524114983E+03 -0.10950875246E+04  0.14515600347E+04  0.91511485389E+03 0.  0.
         23    2    4    4    0    0  0.38489449793E+03  0.16606768544E+03 -0.89610121858E+03  0.99362194830E+03  0.92546915247E+02 0.  0.
         23    2    4    4    0    0 -0.38956188531E+03  0.99173464388E+02 -0.19898630598E+03  0.45793808639E+03  0.92292483308E+02 0.  0.
          4    1    3    3  502    0  0.28822520155E+02 -0.20003239996E+03 -0.67071465093E+03  0.70050113609E+03  0.00000000000E+00 0. -1.
         -3    1    3    3    0  502 -0.24155132772E+02 -0.65208749870E+02 -0.36944935261E+03  0.37593679741E+03  0.00000000000E+00 0.  1.
         13    1    5    5    0    0  0.14250804071E+03  0.10397860654E+03 -0.42595416674E+03  0.46103909210E+03  0.00000000000E+00 0.  1.
        -13    1    5    5    0    0  0.24238645722E+03  0.62089078906E+02 -0.47014705184E+03  0.53258285620E+03  0.00000000000E+00 0. -1.
          2    1    6    6  503    0 -0.58499092657E+02  0.44640126021E+02 -0.14368118777E+02  0.74975512869E+02  0.00000000000E+00 0. -1.
         -2    1    6    6    0  503 -0.33106279266E+03  0.54533338368E+02 -0.18461818720E+03  0.38296257352E+03  0.00000000000E+00 0.  1.
<mgrwt>
<rscale>  0 0.13533199E+04</rscale>
<asrwt>0</asrwt>
<pdfrwt beam="1">  1        2 0.30211267E-01 0.13533199E+04</pdfrwt>
<pdfrwt beam="2">  1       -1 0.35871147E+00 0.13533199E+04</pdfrwt>
<totfact> 0.27124662E+00</totfact>
</mgrwt>
</event>
<event>
12    7  0.1675873E-007  0.1811456E+04  0.7818608E-02  0.8700231E-01
          2   -1    0    0  501    0  0.00000000000E+00  0.00000000000E+00  0.36810019767E+03  0.36810019767E+03  0.00000000000E+00 0. -1.
         -3   -1    0    0    0  501 -0.00000000000E+00 -0.00000000000E+00 -0.22285864065E+04  0.22285864065E+04  0.00000000000E+00 0.  1.
         24    2    1    2    0    0 -0.24026238763E+03  0.23018845205E+03 -0.15486826640E+04  0.15865234663E+04  0.89027955602E+02 0.  0.
        254    2    1    2    0    0  0.24026238763E+03 -0.23018845205E+03 -0.31180354483E+03  0.10101631379E+04  0.90138525406E+03 0.  0.
         23    2    4    4    0    0 -0.14597609753E+03 -0.46790713666E+03 -0.16289214155E+03  0.52434107303E+03  0.90297295069E+02 0.  0.
         23    2    4    4    0    0  0.38623848516E+03  0.23771868461E+03 -0.14891140328E+03  0.48582206488E+03  0.90322379669E+02 0.  0.
          4    1    3    3  502    0 -0.17675312641E+02 -0.67850012225E+01 -0.10404986005E+03  0.10575833912E+03  0.00000000000E+00 0. -1.
         -3    1    3    3    0  502 -0.22258707499E+03  0.23697345328E+03 -0.14446328040E+04  0.14807651272E+04  0.00000000000E+00 0.  1.
         13    1    5    5    0    0 -0.14661641663E+03 -0.37979565131E+03 -0.15592764834E+03  0.43595245371E+03  0.00000000000E+00 0. -1.
        -13    1    5    5    0    0  0.64031910556E+00 -0.88111485346E+02 -0.69644932192E+01  0.88388619314E+02  0.00000000000E+00 0.  1.
          4    1    6    6  503    0  0.17900222534E+03  0.84592270666E+02 -0.23883599137E+02  0.19941934521E+03  0.00000000000E+00 0. -1.
         -4    1    6    6    0  503  0.20723625981E+03  0.15312641394E+03 -0.12502780414E+03  0.28640271967E+03  0.00000000000E+00 0.  1.
<mgrwt>
<rscale>  0 0.18114559E+04</rscale>
<asrwt>0</asrwt>
<pdfrwt beam="1">  1        2 0.56630799E-01 0.18114559E+04</pdfrwt>
<pdfrwt beam="2">  1       -3 0.34285945E+00 0.18114559E+04</pdfrwt>
<totfact> 0.11243759E+00</totfact>
</mgrwt>
</event>
<event>
12    7  0.1675873E-007  0.1866504E+04  0.7818608E-02  0.8671712E-01
          2   -1    0    0  501    0  0.00000000000E+00  0.00000000000E+00  0.21207376437E+04  0.21207376437E+04  0.00000000000E+00 0. -1.
         -1   -1    0    0    0  501 -0.00000000000E+00 -0.00000000000E+00 -0.41068692151E+03  0.41068692151E+03  0.00000000000E+00 0.  1.
         24    2    1    2    0    0 -0.65646136608E+03 -0.24520703965E+02  0.28147270403E+03  0.71919281838E+03  0.80427835991E+02 0.  0.
        254    2    1    2    0    0  0.65646136608E+03  0.24520703965E+02  0.14285780182E+04  0.18122317468E+04  0.90100275259E+03 0.  0.
         23    2    4    4    0    0 -0.33144343509E+02 -0.24827887512E+03  0.96565136181E+02  0.28474785124E+03  0.94950333958E+02 0.  0.
         23    2    4    4    0    0  0.68960570959E+03  0.27279957909E+03  0.13320128820E+04  0.15274838956E+04  0.94726387489E+02 0.  0.
          2    1    3    3  502    0 -0.36087032617E+02 -0.18890382781E+02  0.25533440660E+02  0.48073663025E+02  0.00000000000E+00 0. -1.
         -1    1    3    3    0  502 -0.62037433347E+03 -0.56303211840E+01  0.25593926337E+03  0.67111915535E+03  0.00000000000E+00 0.  1.
         13    1    5    5    0    0 -0.43538583623E+02 -0.16026006153E+03  0.10377145339E+03  0.19582494765E+03  0.00000000000E+00 0.  1.
        -13    1    5    5    0    0  0.10394240114E+02 -0.88018813593E+02 -0.72063172055E+01  0.88922903583E+02  0.00000000000E+00 0. -1.
          4    1    6    6  503    0  0.59471405266E+02  0.37262163108E+02  0.18343999950E+03  0.19640659424E+03  0.00000000000E+00 0. -1.
         -4    1    6    6    0  503  0.63013430433E+03  0.23553741598E+03  0.11485728825E+04  0.13310773013E+04  0.00000000000E+00 0.  1.
<mgrwt>
<rscale>  0 0.18665039E+04</rscale>
<asrwt>0</asrwt>
<pdfrwt beam="1">  1        2 0.32626732E+00 0.18665039E+04</pdfrwt>
<pdfrwt beam="2">  1       -1 0.63182605E-01 0.18665039E+04</pdfrwt>
<totfact> 0.15543513E+01</totfact>
</mgrwt>
</event>
<event>
12    7  0.1675873E-007  0.2102064E+04  0.7818608E-02  0.8560335E-01
          2   -1    0    0  501    0  0.00000000000E+00  0.00000000000E+00  0.38174371039E+04  0.38174371039E+04  0.00000000000E+00 0. -1.
         -1   -1    0    0    0  501 -0.00000000000E+00 -0.00000000000E+00 -0.28937428035E+03  0.28937428035E+03  0.00000000000E+00 0.  1.
         24    2    1    2    0    0 -0.68940008807E+03  0.47510809145E+03  0.10607194567E+04  0.13533772242E+04  0.74188712666E+02 0.  0.
        254    2    1    2    0    0  0.68940008807E+03 -0.47510809145E+03  0.24673433669E+04  0.27534341601E+04  0.89028995500E+03 0.  0.
         23    2    4    4    0    0  0.28073545410E+03  0.13521535138E+03  0.23289386405E+03  0.39956931837E+03  0.91216784842E+02 0.  0.
         23    2    4    4    0    0  0.40866463397E+03 -0.61032344282E+03  0.22344495028E+04  0.23538648417E+04  0.91725811773E+02 0.  0.
          4    1    3    3  502    0 -0.22675556591E+03  0.16628551283E+03  0.41229891966E+03  0.49905847112E+03  0.00000000000E+00 0. -1.
         -1    1    3    3    0  502 -0.46264452216E+03  0.30882257861E+03  0.64842053706E+03  0.85431875306E+03  0.00000000000E+00 0.  1.
         13    1    5    5    0    0  0.47803252189E+02  0.11643244573E+02  0.82381494623E+02  0.95955337113E+02  0.00000000000E+00 0. -1.
        -13    1    5    5    0    0  0.23293220191E+03  0.12357210680E+03  0.15051236943E+03  0.30361398126E+03  0.00000000000E+00 0.  1.
          2    1    6    6  503    0  0.10042153144E+03 -0.22014291944E+03  0.67503361796E+03  0.71708979517E+03  0.00000000000E+00 0. -1.
         -2    1    6    6    0  503  0.30824310253E+03 -0.39018052338E+03  0.15594158848E+04  0.16367750465E+04  0.00000000000E+00 0.  1.
<mgrwt>
<rscale>  0 0.21020639E+04</rscale>
<asrwt>0</asrwt>
<pdfrwt beam="1">  1        2 0.58729798E+00 0.21020639E+04</pdfrwt>
<pdfrwt beam="2">  1       -1 0.44519123E-01 0.21020639E+04</pdfrwt>
<totfact> 0.25131878E+00</totfact>
</mgrwt>
</event>
<event>
12    7  0.1675873E-007  0.1709386E+04  0.7818608E-02  0.8756029E-01
          2   -1    0    0  501    0  0.00000000000E+00  0.00000000000E+00  0.11056840036E+04  0.11056840036E+04  0.00000000000E+00 0. -1.
         -1   -1    0    0    0  501 -0.00000000000E+00 -0.00000000000E+00 -0.66067737234E+03  0.66067737234E+03  0.00000000000E+00 0.  1.
         24    2    1    2    0    0 -0.37557398135E+03 -0.35083789762E+03  0.50304698444E+03  0.72355558890E+03  0.79582509353E+02 0.  0.
        254    2    1    2    0    0  0.37557398135E+03  0.35083789762E+03 -0.58040353206E+02  0.10428057870E+04  0.90550106623E+03 0.  0.
         23    2    4    4    0    0 -0.17012806539E+03  0.11893392737E+02  0.25680739352E+03  0.32140353444E+03  0.90913052736E+02 0.  0.
         23    2    4    4    0    0  0.54570204674E+03  0.33894450488E+03 -0.31484774673E+03  0.72140225257E+03  0.92833211622E+02 0.  0.
          2    1    3    3  502    0 -0.28654579760E+03 -0.29546929201E+03  0.36435163877E+03  0.54969329022E+03  0.00000000000E+00 0. -1.
         -1    1    3    3    0  502 -0.89028183755E+02 -0.55368605613E+02  0.13869534567E+03  0.17386229868E+03  0.00000000000E+00 0.  1.
         13    1    5    5    0    0 -0.12553133800E+03 -0.21549784916E+01  0.10862227093E+03  0.16601674161E+03  0.00000000000E+00 0. -1.
        -13    1    5    5    0    0 -0.44596727385E+02  0.14048371228E+02  0.14818512259E+03  0.15538679283E+03  0.00000000000E+00 0.  1.
          1    1    6    6  503    0  0.46201468569E+03  0.32049725379E+03 -0.25871572927E+03  0.61895871271E+03  0.00000000000E+00 0. -1.
         -1    1    6    6    0  503  0.83687361052E+02  0.18447251099E+02 -0.56132017463E+02  0.10244353985E+03  0.00000000000E+00 0.  1.
<mgrwt>
<rscale>  0 0.17093863E+04</rscale>
<asrwt>0</asrwt>
<pdfrwt beam="1">  1        2 0.17010523E+00 0.17093863E+04</pdfrwt>
<pdfrwt beam="2">  1       -1 0.10164267E+00 0.17093863E+04</pdfrwt>
<totfact> 0.21519635E+01</totfact>
</mgrwt>
</event>
<event>
12    7  0.1675873E-007  0.3098010E+04  0.7818608E-02  0.8216284E-01
         -1   -1    0    0    0  501 -0.00000000000E+00  0.00000000000E+00  0.87601966790E+03  0.87601966790E+03  0.00000000000E+00 0.  1.
          2   -1    0    0  501    0  0.00000000000E+00 -0.00000000000E+00 -0.27389985698E+04  0.27389985698E+04  0.00000000000E+00 0. -1.
         24    2    1    2    0    0  0.23989736776E+03  0.25019867868E+02 -0.24892348344E+04  0.25021872676E+04  0.80463163491E+02 0.  0.
        254    2    1    2    0    0 -0.23989736776E+03 -0.25019867868E+02  0.62625593250E+03  0.11128309701E+04  0.88770464349E+03 0.  0.
         23    2    4    4    0    0 -0.14749255544E+03 -0.65389754545E+02 -0.20162939805E+03  0.27375990939E+03  0.90885641997E+02 0.  0.
         23    2    4    4    0    0 -0.92404812319E+02  0.40369886678E+02  0.82788533055E+03  0.83907106066E+03  0.92074682752E+02 0.  0.
          4    1    3    3  502    0  0.22595890540E+03  0.40232035546E+02 -0.21225916653E+04  0.21349640328E+04  0.00000000000E+00 0. -1.
         -3    1    3    3    0  502  0.13938462362E+02 -0.15212167678E+02 -0.36664316909E+03  0.36722323486E+03  0.00000000000E+00 0.  1.
         13    1    5    5    0    0 -0.11338281801E+03 -0.43652917666E+01 -0.10580012333E+03  0.15513988942E+03  0.00000000000E+00 0. -1.
        -13    1    5    5    0    0 -0.34109737435E+02 -0.61024462779E+02 -0.95829274721E+02  0.11862001998E+03  0.00000000000E+00 0.  1.
          2    1    6    6  503    0  0.29001554985E+01  0.96881207483E+01  0.37986456096E+03  0.37999915166E+03  0.00000000000E+00 0. -1.
         -2    1    6    6    0  503 -0.95304967818E+02  0.30681765930E+02  0.44802076959E+03  0.45907190900E+03  0.00000000000E+00 0.  1.
<mgrwt>
<rscale>  0 0.30980101E+04</rscale>
<asrwt>0</asrwt>
<pdfrwt beam="1">  1        2 0.42138439E+00 0.30980101E+04</pdfrwt>
<pdfrwt beam="2">  1       -1 0.13477226E+00 0.30980101E+04</pdfrwt>
<totfact> 0.11229245E+00</totfact>
</mgrwt>
</event>
<event>
12    7  0.1675873E-007  0.1581841E+04  0.7818608E-02  0.8831782E-01
          2   -1    0    0  501    0  0.00000000000E+00  0.00000000000E+00  0.12391024260E+04  0.12391024260E+04  0.00000000000E+00 0. -1.
         -1   -1    0    0    0  501 -0.00000000000E+00 -0.00000000000E+00 -0.50484560780E+03  0.50484560780E+03  0.00000000000E+00 0.  1.
         24    2    1    2    0    0 -0.40707637200E+03  0.34902139504E+03  0.30781615719E+03  0.62345284837E+03  0.80097195256E+02 0.  0.
        254    2    1    2    0    0  0.40707637200E+03 -0.34902139504E+03  0.42644066097E+03  0.11204951854E+04  0.88664012784E+03 0.  0.
         23    2    4    4    0    0  0.64622052811E+03 -0.20074696851E+03  0.11838400558E+03  0.69291863604E+03  0.90670541402E+02 0.  0.
         23    2    4    4    0    0 -0.23914415611E+03 -0.14827442653E+03  0.30805665539E+03  0.42757654934E+03  0.93528443016E+02 0.  0.
          2    1    3    3  502    0  0.19546201118E+00  0.15057796808E+02  0.12819080046E+02  0.19776356169E+02  0.00000000000E+00 0. -1.
         -1    1    3    3    0  502 -0.40727183401E+03  0.33396359823E+03  0.29499707714E+03  0.60367649221E+03  0.00000000000E+00 0.  1.
         13    1    5    5    0    0  0.10768987416E+01  0.50574538005E+01 -0.10918018202E+01  0.52848444687E+01  0.00000000000E+00 0. -1.
        -13    1    5    5    0    0  0.64514362936E+03 -0.20580442231E+03  0.11947580740E+03  0.68763379157E+03  0.00000000000E+00 0.  1.
          2    1    6    6  503    0 -0.37623498751E+02 -0.11838511771E+02  0.99652892707E+02  0.10717451677E+03  0.00000000000E+00 0. -1.
         -2    1    6    6    0  503 -0.20152065736E+03 -0.13643591476E+03  0.20840376268E+03  0.32040203258E+03  0.00000000000E+00 0.  1.
<mgrwt>
<rscale>  0 0.15818412E+04</rscale>
<asrwt>0</asrwt>
<pdfrwt beam="1">  1        2 0.19063114E+00 0.15818412E+04</pdfrwt>
<pdfrwt beam="2">  1       -1 0.77668555E-01 0.15818412E+04</pdfrwt>
<totfact> 0.32650398E+01</totfact>
</mgrwt>
</event>
<event>
12    7  0.1675985E-007  0.2648297E+04  0.7818608E-02  0.8351978E-01
         -1   -1    0    0    0  501 -0.00000000000E+00  0.00000000000E+00  0.82164258125E+03  0.82164258125E+03  0.00000000000E+00 0.  1.
          2   -1    0    0  501    0  0.00000000000E+00 -0.00000000000E+00 -0.21339807690E+04  0.21339807690E+04  0.00000000000E+00 0. -1.
         24    2    1    2    0    0 -0.71664186454E+03  0.14038350226E+03 -0.16216915812E+04  0.17802880775E+04  0.79113618380E+02 0.  0.
        254    2    1    2    0    0  0.71664186454E+03 -0.14038350226E+03  0.30935339349E+03  0.11753352727E+04  0.86742745605E+03 0.  0.
         23    2    4    4    0    0 -0.76599637779E+02  0.33092547162E+01  0.34321940794E+03  0.36310533368E+03  0.90374032122E+02 0.  0.
         23    2    4    4    0    0  0.79324150232E+03 -0.14369275697E+03 -0.33866014450E+02  0.81222993904E+03  0.93224876157E+02 0.  0.
          2    1    3    3  502    0 -0.63927047675E+03  0.10690306139E+03 -0.14744372366E+04  0.16106086339E+04  0.00000000000E+00 0. -1.
         -1    1    3    3    0  502 -0.77371387789E+02  0.33480440870E+02 -0.14725434465E+03  0.16967944362E+03  0.00000000000E+00 0.  1.
         13    1    5    5    0    0 -0.15704593974E+02 -0.16178673804E+00  0.12677280246E+01  0.15756509169E+02  0.00000000000E+00 0.  1.
        -13    1    5    5    0    0 -0.60895043805E+02  0.34710414542E+01  0.34195167992E+03  0.34734882451E+03  0.00000000000E+00 0. -1.
          2    1    6    6  503    0  0.72762096807E+03 -0.15646389966E+03 -0.38240318070E+02  0.74523522931E+03  0.00000000000E+00 0. -1.
         -2    1    6    6    0  503  0.65620534247E+02  0.12771142686E+02  0.43743036202E+01  0.66994709736E+02  0.00000000000E+00 0.  1.
<mgrwt>
<rscale>  0 0.26482972E+04</rscale>
<asrwt>0</asrwt>
<pdfrwt beam="1">  1        2 0.32830473E+00 0.26482972E+04</pdfrwt>
<pdfrwt beam="2">  1       -1 0.12640655E+00 0.26482972E+04</pdfrwt>
<totfact> 0.30670445E+00</totfact>
</mgrwt>
</event>
<event>
12    7  0.1675873E-007  0.1323237E+04  0.7818608E-02  0.9011338E-01
          2   -1    0    0  501    0  0.00000000000E+00  0.00000000000E+00  0.87065388901E+03  0.87065388901E+03  0.00000000000E+00 0. -1.
         -1   -1    0    0    0  501 -0.00000000000E+00 -0.00000000000E+00 -0.50277062260E+03  0.50277062260E+03  0.00000000000E+00 0.  1.
         24    2    1    2    0    0  0.14536812489E+03  0.70034789775E+02 -0.24676444442E+03  0.30527789417E+03  0.79152625499E+02 0.  0.
        254    2    1    2    0    0 -0.14536812489E+03 -0.70034789775E+02  0.61464771083E+03  0.10681466174E+04  0.85855030394E+03 0.  0.
         23    2    4    4    0    0 -0.38235442800E+03  0.19770308441E+03  0.13035023080E+03  0.45960952610E+03  0.94701191186E+02 0.  0.
         23    2    4    4    0    0  0.23698630311E+03 -0.26773787419E+03  0.48429748003E+03  0.60853709133E+03  0.89035190956E+02 0.  0.
          4    1    3    3  502    0  0.89841819094E+02  0.37710404091E+02 -0.78367494401E+02  0.12504035834E+03  0.00000000000E+00 0. -1.
         -3    1    3    3    0  502  0.55526305800E+02  0.32324385684E+02 -0.16839695002E+03  0.18023753583E+03  0.00000000000E+00 0.  1.
         13    1    5    5    0    0 -0.10609207173E+03  0.31187728688E+02 -0.28661197115E+01  0.11061833820E+03  0.00000000000E+00 0.  1.
        -13    1    5    5    0    0 -0.27626235628E+03  0.16651535573E+03  0.13321635051E+03  0.34899118790E+03  0.00000000000E+00 0. -1.
          3    1    6    6  503    0  0.81200738452E+02 -0.92314332171E+02  0.10087892191E+03  0.15903475323E+03  0.00000000000E+00 0. -1.
         -3    1    6    6    0  503  0.15578556466E+03 -0.17542354202E+03  0.38341855812E+03  0.44950233810E+03  0.00000000000E+00 0.  1.
<mgrwt>
<rscale>  0 0.13232372E+04</rscale>
<asrwt>0</asrwt>
<pdfrwt beam="1">  1        2 0.13394675E+00 0.13232372E+04</pdfrwt>
<pdfrwt beam="2">  1       -1 0.77349327E-01 0.13232372E+04</pdfrwt>
<totfact> 0.57490085E+01</totfact>
</mgrwt>
</event>
<event>
12    7  0.1675873E-007  0.1202214E+04  0.7818608E-02  0.9110921E-01
          2   -1    0    0  501    0  0.00000000000E+00  0.00000000000E+00  0.29074198034E+03  0.29074198034E+03  0.00000000000E+00 0. -1.
         -1   -1    0    0    0  501 -0.00000000000E+00 -0.00000000000E+00 -0.12427843148E+04  0.12427843148E+04  0.00000000000E+00 0.  1.
         24    2    1    2    0    0  0.18346552939E+03 -0.21142498304E+02 -0.42912724520E+03  0.47392239882E+03  0.79659536875E+02 0.  0.
        254    2    1    2    0    0 -0.18346552939E+03  0.21142498304E+02 -0.52291508926E+03  0.10596038963E+04  0.90289181014E+03 0.  0.
         23    2    4    4    0    0  0.65774573596E+02  0.29929885891E+02 -0.71942313184E+03  0.72902740695E+03  0.93216011810E+02 0.  0.
         23    2    4    4    0    0 -0.24924010298E+03 -0.87873875864E+01  0.19650804258E+03  0.33057648937E+03  0.92019331714E+02 0.  0.
          4    1    3    3  502    0  0.19799085800E+02  0.24086543590E+02 -0.60228924082E+02  0.67821004687E+02  0.00000000000E+00 0. -1.
         -3    1    3    3    0  502  0.16366644359E+03 -0.45229041894E+02 -0.36889832112E+03  0.40610139413E+03  0.00000000000E+00 0.  1.
         13    1    5    5    0    0  0.22122422615E+02  0.58731108406E+02 -0.47070972636E+03  0.47487513219E+03  0.00000000000E+00 0.  1.
        -13    1    5    5    0    0  0.43652150981E+02 -0.28801222516E+02 -0.24871340548E+03  0.25415227477E+03  0.00000000000E+00 0. -1.
          3    1    6    6  503    0 -0.23371380070E+03 -0.22154058686E+02  0.20162454000E+03  0.30945984890E+03  0.00000000000E+00 0. -1.
         -3    1    6    6    0  503 -0.15526302286E+02  0.13366671100E+02 -0.51164974135E+01  0.21116640470E+02  0.00000000000E+00 0.  1.
<mgrwt>
<rscale>  0 0.12022139E+04</rscale>
<asrwt>0</asrwt>
<pdfrwt beam="1">  1        2 0.44729534E-01 0.12022139E+04</pdfrwt>
<pdfrwt beam="2">  1       -1 0.19119759E+00 0.12022139E+04</pdfrwt>
<totfact> 0.22282066E+01</totfact>
</mgrwt>
</event>
<event>
12    7  0.1675873E-007  0.1148796E+04  0.7818608E-02  0.9158895E-01
         -1   -1    0    0    0  501 -0.00000000000E+00  0.00000000000E+00  0.46137194650E+03  0.46137194650E+03  0.00000000000E+00 0.  1.
          2   -1    0    0  501    0  0.00000000000E+00 -0.00000000000E+00 -0.71511320759E+03  0.71511320759E+03  0.00000000000E+00 0. -1.
         24    2    1    2    0    0 -0.10204649356E+03  0.29272804401E+02 -0.22105747969E+03  0.25829220483E+03  0.81105300844E+02 0.  0.
        254    2    1    2    0    0  0.10204649356E+03 -0.29272804401E+02 -0.32683781398E+02  0.91819294925E+03  0.91144921886E+03 0.  0.
         23    2    4    4    0    0 -0.16700057584E+03 -0.39856211186E+03  0.51383967795E+02  0.44471848312E+03  0.91614779086E+02 0.  0.
         23    2    4    4    0    0  0.26904706940E+03  0.36928930746E+03 -0.84067749194E+02  0.47347446612E+03  0.91377051082E+02 0.  0.
          4    1    3    3  502    0 -0.93577390334E+02  0.22627617055E+02 -0.22658579457E+03  0.24619069709E+03  0.00000000000E+00 0. -1.
         -3    1    3    3    0  502 -0.84691032258E+01  0.66451873458E+01  0.55283148736E+01  0.12101507743E+02  0.00000000000E+00 0.  1.
         13    1    5    5    0    0 -0.14718774059E+03 -0.36443226332E+03  0.72950702749E+02  0.39974605759E+03  0.00000000000E+00 0.  1.
        -13    1    5    5    0    0 -0.19812835242E+02 -0.34129848543E+02 -0.21566734954E+02  0.44972425535E+02  0.00000000000E+00 0. -1.
          3    1    6    6  503    0  0.44115502472E+02  0.24414347392E+02  0.93152324555E+01  0.51273886849E+02  0.00000000000E+00 0. -1.
         -3    1    6    6    0  503  0.22493156693E+03  0.34487496006E+03 -0.93382981649E+02  0.42220057928E+03  0.00000000000E+00 0.  1.
<mgrwt>
<rscale>  0 0.11487962E+04</rscale>
<asrwt>0</asrwt>
<pdfrwt beam="1">  1        2 0.11001742E+00 0.11487962E+04</pdfrwt>
<pdfrwt beam="2">  1       -1 0.70980299E-01 0.11487962E+04</pdfrwt>
<totfact> 0.90416791E+01</totfact>
</mgrwt>
</event>
<event>
12    7  0.1675873E-007  0.1359925E+04  0.7818608E-02  0.8983349E-01
         -1   -1    0    0    0  501 -0.00000000000E+00  0.00000000000E+00  0.16231659491E+03  0.16231659491E+03  0.00000000000E+00 0.  1.
          2   -1    0    0  501    0  0.00000000000E+00 -0.00000000000E+00 -0.28484413958E+04  0.28484413958E+04  0.00000000000E+00 0. -1.
         24    2    1    2    0    0  0.14239548268E+02 -0.28222153231E+03 -0.13609793650E+04  0.13921971399E+04  0.78078718808E+02 0.  0.
        254    2    1    2    0    0 -0.14239548268E+02  0.28222153231E+03 -0.13251454359E+04  0.16185608508E+04  0.88536830953E+03 0.  0.
         23    2    4    4    0    0  0.33136364646E+03  0.40397936402E+03 -0.59890320844E+03  0.79989482293E+03  0.90252323674E+02 0.  0.
         23    2    4    4    0    0 -0.34560319473E+03 -0.12175783171E+03 -0.72624222745E+03  0.81866602789E+03  0.92302516207E+02 0.  0.
          4    1    3    3  502    0  0.24652507554E+02 -0.28162274422E+03 -0.13166005184E+04  0.13466090900E+04  0.00000000000E+00 0. -1.
         -3    1    3    3    0  502 -0.10412959286E+02 -0.59878808764E+00 -0.44378846643E+02  0.45588049944E+02  0.00000000000E+00 0.  1.
         13    1    5    5    0    0  0.26202136559E+03  0.30100508839E+03 -0.50810685797E+03  0.64608965197E+03  0.00000000000E+00 0.  1.
        -13    1    5    5    0    0  0.69342280876E+02  0.10297427563E+03 -0.90796350467E+02  0.15380517097E+03  0.00000000000E+00 0. -1.
          2    1    6    6  503    0 -0.70916024170E+02 -0.14688832604E+02 -0.23337251928E+03  0.24435133935E+03  0.00000000000E+00 0. -1.
         -2    1    6    6    0  503 -0.27468717056E+03 -0.10706899911E+03 -0.49286970817E+03  0.57431468854E+03  0.00000000000E+00 0.  1.
<mgrwt>
<rscale>  0 0.13599255E+04</rscale>
<asrwt>0</asrwt>
<pdfrwt beam="1">  1        2 0.43822178E+00 0.13599255E+04</pdfrwt>
<pdfrwt beam="2">  1       -1 0.24971782E-01 0.13599255E+04</pdfrwt>
<totfact> 0.33979526E+01</totfact>
</mgrwt>
</event>
<event>
12    7  0.1675873E-007  0.1407527E+04  0.7818608E-02  0.8948388E-01
         -1   -1    0    0    0  501 -0.00000000000E+00  0.00000000000E+00  0.27063672850E+03  0.27063672850E+03  0.00000000000E+00 0.  1.
          2   -1    0    0  501    0  0.00000000000E+00 -0.00000000000E+00 -0.18300672210E+04  0.18300672210E+04  0.00000000000E+00 0. -1.
         24    2    1    2    0    0  0.82167990951E+02  0.38257347938E+03 -0.27309985999E+03  0.48370824160E+03  0.79221736932E+02 0.  0.
        254    2    1    2    0    0 -0.82167990951E+02 -0.38257347938E+03 -0.12863306325E+04  0.16169957079E+04  0.89828424085E+03 0.  0.
         23    2    4    4    0    0  0.39907970272E+01 -0.74995043669E+02  0.12227998144E+03  0.16984196869E+03  0.90849972107E+02 0.  0.
         23    2    4    4    0    0 -0.86158787978E+02 -0.30757843571E+03 -0.14086106139E+04  0.14471537392E+04  0.89678605631E+02 0.  0.
          4    1    3    3  502    0  0.28723796397E+02  0.25513006450E+03 -0.21046020561E+03  0.33197877106E+03  0.00000000000E+00 0. -1.
         -3    1    3    3    0  502  0.53444194554E+02  0.12744341489E+03 -0.62639654373E+02  0.15172947054E+03  0.00000000000E+00 0.  1.
         13    1    5    5    0    0 -0.35904923658E+02 -0.49551714039E+02  0.10070054024E+03  0.11783520149E+03  0.00000000000E+00 0.  1.
        -13    1    5    5    0    0  0.39895720685E+02 -0.25443329629E+02  0.21579441205E+02  0.52006767198E+02  0.00000000000E+00 0. -1.
          1    1    6    6  503    0 -0.63936255708E+02 -0.25359996236E+03 -0.12717538560E+04  0.12983676891E+04  0.00000000000E+00 0. -1.
         -1    1    6    6    0  503 -0.22222532270E+02 -0.53978473356E+02 -0.13685675792E+03  0.14878605014E+03  0.00000000000E+00 0.  1.
<mgrwt>
<rscale>  0 0.14075275E+04</rscale>
<asrwt>0</asrwt>
<pdfrwt beam="1">  1        2 0.28154880E+00 0.14075275E+04</pdfrwt>
<pdfrwt beam="2">  1       -1 0.41636420E-01 0.14075275E+04</pdfrwt>
<totfact> 0.52068909E+01</totfact>
</mgrwt>
</event>
<event>
12    7  0.1675873E-007  0.1387343E+04  0.7818608E-02  0.8963032E-01
          2   -1    0    0  501    0  0.00000000000E+00  0.00000000000E+00  0.18428478590E+04  0.18428478590E+04  0.00000000000E+00 0. -1.
         -1   -1    0    0    0  501 -0.00000000000E+00 -0.00000000000E+00 -0.26110683367E+03  0.26110683367E+03  0.00000000000E+00 0.  1.
         24    2    1    2    0    0  0.63657258812E+02  0.29317708334E+03  0.50098441969E+02  0.31234374147E+03  0.71019083019E+02 0.  0.
        254    2    1    2    0    0 -0.63657258812E+02 -0.29317708334E+03  0.15316425834E+04  0.17916109512E+04  0.87973618118E+03 0.  0.
         23    2    4    4    0    0 -0.26486819458E+03 -0.19249468178E+03  0.15101263797E+04  0.15476968622E+04  0.87604403658E+02 0.  0.
         23    2    4    4    0    0  0.20121093577E+03 -0.10068240156E+03  0.21516203683E+02  0.24391408903E+03  0.91697050934E+02 0.  0.
          4    1    3    3  502    0  0.25540006648E+02  0.85331280066E+02  0.47653067847E+02  0.10101749439E+03  0.00000000000E+00 0. -1.
         -3    1    3    3    0  502  0.38117252163E+02  0.20784580327E+03  0.24453741214E+01  0.21132624708E+03  0.00000000000E+00 0.  1.
         13    1    5    5    0    0 -0.11998312961E+03 -0.13729562076E+03  0.74150845787E+03  0.76359729698E+03  0.00000000000E+00 0. -1.
        -13    1    5    5    0    0 -0.14488506497E+03 -0.55199061021E+02  0.76861792181E+03  0.78409956518E+03  0.00000000000E+00 0.  1.
          1    1    6    6  503    0  0.12666140757E+02 -0.99888905253E+01  0.30494411290E+02  0.34498089447E+02  0.00000000000E+00 0. -1.
         -1    1    6    6    0  503  0.18854479501E+03 -0.90693511030E+02 -0.89782076063E+01  0.20941599958E+03  0.00000000000E+00 0.  1.
<mgrwt>
<rscale>  0 0.13873430E+04</rscale>
<asrwt>0</asrwt>
<pdfrwt beam="1">  1        2 0.28351505E+00 0.13873430E+04</pdfrwt>
<pdfrwt beam="2">  1       -1 0.40170283E-01 0.13873430E+04</pdfrwt>
<totfact> 0.54800035E+01</totfact>
</mgrwt>
</event>
<event>
12    7  0.1675873E-007  0.1599580E+04  0.7818608E-02  0.8820806E-01
         -1   -1    0    0    0  501 -0.00000000000E+00  0.00000000000E+00  0.21531234675E+03  0.21531234675E+03  0.00000000000E+00 0.  1.
          2   -1    0    0  501    0  0.00000000000E+00 -0.00000000000E+00 -0.29708668667E+04  0.29708668667E+04  0.00000000000E+00 0. -1.
         24    2    1    2    0    0  0.34569781849E+03 -0.34802759781E+03 -0.48481395369E+03  0.69417837686E+03  0.78796311157E+02 0.  0.
        254    2    1    2    0    0 -0.34569781849E+03  0.34802759781E+03 -0.22707405662E+04  0.24920008366E+04  0.90176230777E+03 0.  0.
         23    2    4    4    0    0 -0.17706299940E+03  0.17567457468E+03 -0.22102659692E+04  0.22261281574E+04  0.90321961287E+02 0.  0.
         23    2    4    4    0    0 -0.16863481910E+03  0.17235302313E+03 -0.60474597039E+02  0.26587267915E+03  0.94275329937E+02 0.  0.
          2    1    3    3  502    0  0.71579111498E+02 -0.11034320498E+03 -0.99424603356E+02  0.16487705675E+03  0.00000000000E+00 0. -1.
         -1    1    3    3    0  502  0.27411870700E+03 -0.23768439283E+03 -0.38538935034E+03  0.52930132011E+03  0.00000000000E+00 0.  1.
         13    1    5    5    0    0  0.27430075505E+01  0.35492528896E+02 -0.39488214991E+03  0.39648348769E+03  0.00000000000E+00 0. -1.
        -13    1    5    5    0    0 -0.17980600695E+03  0.14018204578E+03 -0.18153838193E+04  0.18296446697E+04  0.00000000000E+00 0.  1.
          4    1    6    6  503    0 -0.53659995668E+02  0.24728417372E+02 -0.51768202975E+02  0.78554672681E+02  0.00000000000E+00 0. -1.
         -4    1    6    6    0  503 -0.11497482343E+03  0.14762460576E+03 -0.87063940639E+01  0.18731800647E+03  0.00000000000E+00 0.  1.
<mgrwt>
<rscale>  0 0.15995803E+04</rscale>
<asrwt>0</asrwt>
<pdfrwt beam="1">  1        2 0.45705640E+00 0.15995803E+04</pdfrwt>
<pdfrwt beam="2">  1       -1 0.33124980E-01 0.15995803E+04</pdfrwt>
<totfact> 0.17074879E+01</totfact>
</mgrwt>
</event>
<event>
12    7  0.1675873E-007  0.3190397E+04  0.7818608E-02  0.8191358E-01
          2   -1    0    0  501    0  0.00000000000E+00  0.00000000000E+00  0.15584107754E+04  0.15584107754E+04  0.00000000000E+00 0. -1.
         -1   -1    0    0    0  501 -0.00000000000E+00 -0.00000000000E+00 -0.16328546473E+04  0.16328546473E+04  0.00000000000E+00 0.  1.
         24    2    1    2    0    0 -0.79444707763E+03 -0.51790285607E+03 -0.11508173627E+04  0.14933367081E+04  0.79400214095E+02 0.  0.
        254    2    1    2    0    0  0.79444707763E+03  0.51790285607E+03  0.10763734909E+04  0.16979287145E+04  0.90830198742E+03 0.  0.
         23    2    4    4    0    0  0.22900428064E+03  0.15524374365E+03 -0.12442057892E+03  0.31902388313E+03  0.98753111640E+02 0.  0.
         23    2    4    4    0    0  0.56544279700E+03  0.36265911242E+03  0.12007940698E+04  0.13789048314E+04  0.90691496573E+02 0.  0.
          4    1    3    3  502    0 -0.34623429886E+03 -0.26558745398E+03 -0.49503109054E+03  0.65990201244E+03  0.00000000000E+00 0. -1.
         -3    1    3    3    0  502 -0.44821277877E+03 -0.25231540209E+03 -0.65578627219E+03  0.83343469568E+03  0.00000000000E+00 0.  1.
         13    1    5    5    0    0  0.25173174858E+02 -0.24356795575E+01  0.11377246901E+02  0.27731985402E+02  0.00000000000E+00 0. -1.
        -13    1    5    5    0    0  0.20383110578E+03  0.15767942321E+03 -0.13579782582E+03  0.29129189773E+03  0.00000000000E+00 0.  1.
          1    1    6    6  503    0  0.95336695749E+00  0.14554479143E+02  0.28723051124E+02  0.32214211732E+02  0.00000000000E+00 0. -1.
         -1    1    6    6    0  503  0.56448943004E+03  0.34810463328E+03  0.11720710187E+04  0.13466906197E+04  0.00000000000E+00 0.  1.
<mgrwt>
<rscale>  0 0.31903970E+04</rscale>
<asrwt>0</asrwt>
<pdfrwt beam="1">  1        2 0.23975550E+00 0.31903970E+04</pdfrwt>
<pdfrwt beam="2">  1       -1 0.25120841E+00 0.31903970E+04</pdfrwt>
<totfact> 0.77289393E-01</totfact>
</mgrwt>
</event>
<event>
12    7  0.1675873E-007  0.1307560E+04  0.7818608E-02  0.9023592E-01
         -1   -1    0    0    0  501 -0.00000000000E+00  0.00000000000E+00  0.42092669973E+03  0.42092669973E+03  0.00000000000E+00 0.  1.
          2   -1    0    0  501    0  0.00000000000E+00 -0.00000000000E+00 -0.10154452298E+04  0.10154452298E+04  0.00000000000E+00 0. -1.
         24    2    1    2    0    0  0.24276150360E+03  0.41878776723E+02 -0.41308418482E+03  0.48944514069E+03  0.90724982358E+02 0.  0.
        254    2    1    2    0    0 -0.24276150360E+03 -0.41878776723E+02 -0.18143434529E+03  0.94692678889E+03  0.89613890793E+03 0.  0.
         23    2    4    4    0    0 -0.30212731638E+03  0.33193321560E+03 -0.28880397472E+03  0.54151405487E+03  0.91483118017E+02 0.  0.
         23    2    4    4    0    0  0.59365812782E+02 -0.37381199232E+03  0.10736962943E+03  0.40541273402E+03  0.97834259096E+02 0.  0.
          2    1    3    3  502    0  0.24099554078E+03  0.50710274695E+02 -0.41249558412E+03  0.48041959738E+03  0.00000000000E+00 0. -1.
         -1    1    3    3    0  502  0.17659628237E+01 -0.88314979718E+01 -0.58860070138E+00  0.90255433026E+01  0.00000000000E+00 0.  1.
         13    1    5    5    0    0 -0.27355325183E+03  0.31946396112E+03 -0.24187208192E+03  0.48517080297E+03  0.00000000000E+00 0. -1.
        -13    1    5    5    0    0 -0.28574064557E+02  0.12469254475E+02 -0.46931892806E+02  0.56343251901E+02  0.00000000000E+00 0.  1.
          1    1    6    6  503    0  0.54924059172E+02 -0.13448716632E+03  0.57922749888E+01  0.14538569610E+03  0.00000000000E+00 0. -1.
         -1    1    6    6    0  503  0.44417536099E+01 -0.23932482601E+03  0.10157735444E+03  0.26002703793E+03  0.00000000000E+00 0.  1.
<mgrwt>
<rscale>  0 0.13075596E+04</rscale>
<asrwt>0</asrwt>
<pdfrwt beam="1">  1        2 0.15622234E+00 0.13075596E+04</pdfrwt>
<pdfrwt beam="2">  1       -1 0.64757954E-01 0.13075596E+04</pdfrwt>
<totfact> 0.66532916E+01</totfact>
</mgrwt>
</event>
<event>
12    7  0.1675873E-007  0.1445399E+04  0.7818608E-02  0.8921597E-01
          2   -1    0    0  501    0  0.00000000000E+00  0.00000000000E+00  0.16840978139E+04  0.16840978139E+04  0.00000000000E+00 0. -1.
         -1   -1    0    0    0  501 -0.00000000000E+00 -0.00000000000E+00 -0.31013304589E+03  0.31013304589E+03  0.00000000000E+00 0.  1.
         24    2    1    2    0    0  0.27872407389E+03 -0.14798213681E+03  0.27870625977E+01  0.32725304811E+03  0.86608126631E+02 0.  0.
        254    2    1    2    0    0 -0.27872407389E+03  0.14798213681E+03  0.13711777054E+04  0.16669778117E+04  0.89392443900E+03 0.  0.
         23    2    4    4    0    0 -0.79366645929E+02 -0.36698000146E+03  0.60244251399E+03  0.71571366452E+03  0.91299950540E+02 0.  0.
         23    2    4    4    0    0 -0.19935742796E+03  0.51496213827E+03  0.76873519146E+03  0.95126414719E+03  0.94975234690E+02 0.  0.
          4    1    3    3  502    0  0.10244220427E+03 -0.10200330335E+03  0.10184837012E+02  0.14492346261E+03  0.00000000000E+00 0. -1.
         -3    1    3    3    0  502  0.17628186962E+03 -0.45978833467E+02 -0.73977744146E+01  0.18232958550E+03  0.00000000000E+00 0.  1.
         13    1    5    5    0    0 -0.30992755758E+02 -0.30910253980E+03  0.47284841134E+03  0.56576545593E+03  0.00000000000E+00 0. -1.
        -13    1    5    5    0    0 -0.48373890171E+02 -0.57877461660E+02  0.12959410265E+03  0.14994820859E+03  0.00000000000E+00 0.  1.
          1    1    6    6  503    0 -0.52117381158E+02  0.22645752549E+03  0.26585640431E+03  0.35309893795E+03  0.00000000000E+00 0. -1.
         -1    1    6    6    0  503 -0.14724004680E+03  0.28850461278E+03  0.50287878715E+03  0.59816520924E+03  0.00000000000E+00 0.  1.
<mgrwt>
<rscale>  0 0.14453987E+04</rscale>
<asrwt>0</asrwt>
<pdfrwt beam="1">  1        2 0.25909197E+00 0.14453987E+04</pdfrwt>
<pdfrwt beam="2">  1       -1 0.47712777E-01 0.14453987E+04</pdfrwt>
<totfact> 0.48526894E+01</totfact>
</mgrwt>
</event>
<event>
12    7  0.1675873E-007  0.1360427E+04  0.7818608E-02  0.8982972E-01
          2   -1    0    0  501    0  0.00000000000E+00  0.00000000000E+00  0.59548082997E+03  0.59548082997E+03  0.00000000000E+00 0. -1.
         -1   -1    0    0    0  501 -0.00000000000E+00 -0.00000000000E+00 -0.77700304217E+03  0.77700304217E+03  0.00000000000E+00 0.  1.
         24    2    1    2    0    0  0.34867268976E+02 -0.93255419661E+02  0.31810263871E+03  0.34137336284E+03  0.73716920440E+02 0.  0.
        254    2    1    2    0    0 -0.34867268976E+02  0.93255419661E+02 -0.49962485091E+03  0.10311105093E+04  0.89646616835E+03 0.  0.
         23    2    4    4    0    0 -0.37420548493E+03 -0.20623349929E+03 -0.21429414271E+03  0.48770953543E+03  0.96832898150E+02 0.  0.
         23    2    4    4    0    0  0.33933821596E+03  0.29948891895E+03 -0.28533070820E+03  0.54340097387E+03  0.95010357252E+02 0.  0.
          4    1    3    3  502    0 -0.64323490130E+01 -0.72372858666E+02  0.14492451705E+03  0.16211823286E+03  0.00000000000E+00 0. -1.
         -3    1    3    3    0  502  0.41299617989E+02 -0.20882560994E+02  0.17317812166E+03  0.17925512997E+03  0.00000000000E+00 0.  1.
         13    1    5    5    0    0 -0.21860818689E+03 -0.10612118491E+03 -0.17255685656E+03  0.29803877937E+03  0.00000000000E+00 0.  1.
        -13    1    5    5    0    0 -0.15559729804E+03 -0.10011231438E+03 -0.41737286152E+02  0.18967075606E+03  0.00000000000E+00 0. -1.
          3    1    6    6  503    0  0.33650566280E+03  0.30492386625E+03 -0.27358950261E+03  0.53015643091E+03  0.00000000000E+00 0. -1.
         -3    1    6    6    0  503  0.28325531587E+01 -0.54349472990E+01 -0.11741205588E+02  0.13244542959E+02  0.00000000000E+00 0.  1.
<mgrwt>
<rscale>  0 0.13604270E+04</rscale>
<asrwt>0</asrwt>
<pdfrwt beam="1">  1        2 0.91612436E-01 0.13604270E+04</pdfrwt>
<pdfrwt beam="2">  1       -1 0.11953893E+00 0.13604270E+04</pdfrwt>
<totfact> 0.34905284E+01</totfact>
</mgrwt>
</event>
<event>
12    7  0.1675873E-007  0.1369904E+04  0.7818608E-02  0.8975896E-01
         -1   -1    0    0    0  501 -0.00000000000E+00  0.00000000000E+00  0.82641608229E+03  0.82641608229E+03  0.00000000000E+00 0.  1.
          2   -1    0    0  501    0  0.00000000000E+00 -0.00000000000E+00 -0.56770368653E+03  0.56770368653E+03  0.00000000000E+00 0. -1.
         24    2    1    2    0    0  0.40098837488E+03 -0.12407414185E+02  0.28510051801E+01  0.40904778597E+03  0.79789361832E+02 0.  0.
        254    2    1    2    0    0 -0.40098837488E+03  0.12407414185E+02  0.25586139058E+03  0.98507198285E+03  0.86252892096E+03 0.  0.
         23    2    4    4    0    0  0.22347169383E+03 -0.12438478135E+03 -0.39818497273E+02  0.27470424422E+03  0.92009441319E+02 0.  0.
         23    2    4    4    0    0 -0.62446006870E+03  0.13679219554E+03  0.29567988785E+03  0.71036773863E+03  0.92375569482E+02 0.  0.
          4    1    3    3  502    0  0.25568167878E+03 -0.10535926221E+02 -0.36516632640E+02  0.25849098836E+03  0.00000000000E+00 0. -1.
         -3    1    3    3    0  502  0.14530669610E+03 -0.18714879646E+01  0.39367637820E+02  0.15055679761E+03  0.00000000000E+00 0.  1.
         13    1    5    5    0    0  0.21361842431E+03 -0.13767371272E+03 -0.43291201569E+02  0.25780033070E+03  0.00000000000E+00 0.  1.
        -13    1    5    5    0    0  0.98532695188E+01  0.13288931364E+02  0.34727042956E+01  0.16903913515E+02  0.00000000000E+00 0. -1.
          4    1    6    6  503    0 -0.87525359391E+02  0.51545067486E+02  0.34951661049E+02  0.10742067366E+03  0.00000000000E+00 0. -1.
         -4    1    6    6    0  503 -0.53693470931E+03  0.85247128053E+02  0.26072822680E+03  0.60294706497E+03  0.00000000000E+00 0.  1.
<mgrwt>
<rscale>  0 0.13699043E+04</rscale>
<asrwt>0</asrwt>
<pdfrwt beam="1">  1        2 0.87339029E-01 0.13699043E+04</pdfrwt>
<pdfrwt beam="2">  1       -1 0.12714094E+00 0.13699043E+04</pdfrwt>
<totfact> 0.31710150E+01</totfact>
</mgrwt>
</event>
<event>
12    7  0.1675873E-007  0.1529517E+04  0.7818608E-02  0.8865058E-01
         -1   -1    0    0    0  501 -0.00000000000E+00  0.00000000000E+00  0.40390140662E+03  0.40390140662E+03  0.00000000000E+00 0.  1.
          2   -1    0    0  501    0  0.00000000000E+00 -0.00000000000E+00 -0.14480161989E+04  0.14480161989E+04  0.00000000000E+00 0. -1.
         24    2    1    2    0    0 -0.45560553306E+03  0.17385837027E+03 -0.41857693684E+03  0.64734234522E+03  0.77732394721E+02 0.  0.
        254    2    1    2    0    0  0.45560553306E+03 -0.17385837027E+03 -0.62553785541E+03  0.12045752603E+04  0.90658745549E+03 0.  0.
         23    2    4    4    0    0  0.13835451644E+03 -0.65015327181E+02  0.22399679922E+03  0.28636838434E+03  0.91996306998E+02 0.  0.
         23    2    4    4    0    0  0.31725101662E+03 -0.10884304309E+03 -0.84953465463E+03  0.91820687594E+03  0.94338338097E+02 0.  0.
          2    1    3    3  502    0 -0.36849328880E+03  0.16169384319E+03 -0.37104508231E+03  0.54736336736E+03  0.00000000000E+00 0. -1.
         -1    1    3    3    0  502 -0.87112244262E+02  0.12164527077E+02 -0.47531854532E+02  0.99978977863E+02  0.00000000000E+00 0.  1.
         13    1    5    5    0    0  0.60163585716E+02 -0.61289822503E+02  0.60364950512E+02  0.10497631466E+03  0.00000000000E+00 0.  1.
        -13    1    5    5    0    0  0.78190930726E+02 -0.37255046777E+01  0.16363184871E+03  0.18139206968E+03  0.00000000000E+00 0. -1.
          4    1    6    6  503    0  0.16405538624E+03 -0.10473651291E+03 -0.45003859809E+03  0.49032504185E+03  0.00000000000E+00 0. -1.
         -4    1    6    6    0  503  0.15319563038E+03 -0.41065301759E+01 -0.39949605654E+03  0.42788183409E+03  0.00000000000E+00 0.  1.
<mgrwt>
<rscale>  0 0.15295173E+04</rscale>
<asrwt>0</asrwt>
<pdfrwt beam="1">  1        2 0.22277173E+00 0.15295173E+04</pdfrwt>
<pdfrwt beam="2">  1       -1 0.62138677E-01 0.15295173E+04</pdfrwt>
<totfact> 0.39205640E+01</totfact>
</mgrwt>
</event>
<event>
12    7  0.1675873E-007  0.1490268E+04  0.7818608E-02  0.8890951E-01
          2   -1    0    0  501    0  0.00000000000E+00  0.00000000000E+00  0.10223015162E+04  0.10223015162E+04  0.00000000000E+00 0. -1.
         -1   -1    0    0    0  501 -0.00000000000E+00 -0.00000000000E+00 -0.54311230363E+03  0.54311230363E+03  0.00000000000E+00 0.  1.
         24    2    1    2    0    0 -0.16489170130E+03  0.35468703051E+03 -0.13010935550E+03  0.42070632650E+03  0.84102354300E+02 0.  0.
        254    2    1    2    0    0  0.16489170130E+03 -0.35468703051E+03  0.60929856804E+03  0.11447074933E+04  0.88663314703E+03 0.  0.
         23    2    4    4    0    0  0.23497132573E+02 -0.63492460563E+03  0.43530227101E+03  0.77482108668E+03  0.84724725695E+02 0.  0.
         23    2    4    4    0    0  0.14139456873E+03  0.28023757513E+03  0.17399629703E+03  0.36988640661E+03  0.89530552514E+02 0.  0.
          4    1    3    3  502    0 -0.13323505629E+02  0.11216809723E+03 -0.22701564925E+02  0.11521527194E+03  0.00000000000E+00 0. -1.
         -3    1    3    3    0  502 -0.15156819567E+03  0.24251893327E+03 -0.10740779058E+03  0.30549105455E+03  0.00000000000E+00 0.  1.
         13    1    5    5    0    0 -0.26694701335E+02 -0.23855025362E+03  0.13878357024E+03  0.27727190617E+03  0.00000000000E+00 0.  1.
        -13    1    5    5    0    0  0.50191833908E+02 -0.39637435202E+03  0.29651870077E+03  0.49754918051E+03  0.00000000000E+00 0. -1.
          1    1    6    6  503    0  0.37420159719E+01  0.86051770822E+02  0.65969516233E+02  0.10849371879E+03  0.00000000000E+00 0. -1.
         -1    1    6    6    0  503  0.13765255276E+03  0.19418580431E+03  0.10802678080E+03  0.26139268782E+03  0.00000000000E+00 0.  1.
<mgrwt>
<rscale>  0 0.14902678E+04</rscale>
<asrwt>0</asrwt>
<pdfrwt beam="1">  1        2 0.15727716E+00 0.14902678E+04</pdfrwt>
<pdfrwt beam="2">  1       -1 0.83555740E-01 0.14902678E+04</pdfrwt>
<totfact> 0.38209898E+01</totfact>
</mgrwt>
</event>
<event>
12    7  0.1675873E-007  0.2522732E+04  0.7818608E-02  0.8394932E-01
         -1   -1    0    0    0  501 -0.00000000000E+00  0.00000000000E+00  0.89668760735E+03  0.89668760735E+03  0.00000000000E+00 0.  1.
          2   -1    0    0  501    0  0.00000000000E+00 -0.00000000000E+00 -0.17743569168E+04  0.17743569168E+04  0.00000000000E+00 0. -1.
         24    2    1    2    0    0 -0.76653901261E+03  0.63452573316E+03  0.11247880549E+03  0.10048469103E+04  0.82830353688E+02 0.  0.
        254    2    1    2    0    0  0.76653901261E+03 -0.63452573316E+03 -0.99014811493E+03  0.16661976139E+04  0.89756127094E+03 0.  0.
         23    2    4    4    0    0 -0.30183507487E+02  0.15280733258E+03 -0.19561880360E+02  0.18132580737E+03  0.90748312594E+02 0.  0.
         23    2    4    4    0    0  0.79672252010E+03 -0.78733306575E+03 -0.97058623457E+03  0.14848718065E+04  0.90258033308E+02 0.  0.
          4    1    3    3  502    0 -0.14063739187E+03  0.13297802384E+03 -0.83700665494E+01  0.19373200260E+03  0.00000000000E+00 0. -1.
         -1    1    3    3    0  502 -0.62590162074E+03  0.50154770932E+03  0.12084887204E+03  0.81111490767E+03  0.00000000000E+00 0.  1.
         13    1    5    5    0    0  0.23646765862E+02  0.55689317032E+02  0.19578235725E+02  0.63590698072E+02  0.00000000000E+00 0.  1.
        -13    1    5    5    0    0 -0.53830273350E+02  0.97118015552E+02 -0.39140116084E+02  0.11773510930E+03  0.00000000000E+00 0. -1.
          3    1    6    6  503    0  0.11150003948E+03 -0.98394366789E+02 -0.91899518710E+02  0.17481198975E+03  0.00000000000E+00 0. -1.
         -3    1    6    6    0  503  0.68522248062E+03 -0.68893869896E+03 -0.87868671586E+03  0.13100598168E+04  0.00000000000E+00 0.  1.
<mgrwt>
<rscale>  0 0.25227317E+04</rscale>
<asrwt>0</asrwt>
<pdfrwt beam="1">  1        2 0.27297798E+00 0.25227317E+04</pdfrwt>
<pdfrwt beam="2">  1       -1 0.13795194E+00 0.25227317E+04</pdfrwt>
<totfact> 0.39359144E+00</totfact>
</mgrwt>
</event>
<event>
12    7  0.1675873E-007  0.1582505E+04  0.7818608E-02  0.8831368E-01
          2   -1    0    0  501    0  0.00000000000E+00  0.00000000000E+00  0.16978995394E+04  0.16978995394E+04  0.00000000000E+00 0. -1.
         -1   -1    0    0    0  501 -0.00000000000E+00 -0.00000000000E+00 -0.36873837841E+03  0.36873837841E+03  0.00000000000E+00 0.  1.
         24    2    1    2    0    0 -0.16856156058E+03  0.41184574557E+03  0.82583813705E+03  0.94159288991E+03  0.80985331151E+02 0.  0.
        254    2    1    2    0    0  0.16856156058E+03 -0.41184574557E+03  0.50332302397E+03  0.11250450279E+04  0.90242026274E+03 0.  0.
         23    2    4    4    0    0 -0.27449456517E+03 -0.33220869251E+03 -0.38161236554E+01  0.44047632217E+03  0.91076593618E+02 0.  0.
         23    2    4    4    0    0  0.44305612575E+03 -0.79637053060E+02  0.50713914763E+03  0.68456870577E+03  0.93826473264E+02 0.  0.
          2    1    3    3  502    0 -0.13274551983E+03  0.28628743453E+03  0.65028334812E+03  0.72280723644E+03  0.00000000000E+00 0. -1.
         -1    1    3    3    0  502 -0.35816040748E+02  0.12555831104E+03  0.17555478893E+03  0.21878565346E+03  0.00000000000E+00 0.  1.
         13    1    5    5    0    0 -0.23108048553E+02 -0.15750401410E+02  0.21876955170E+02  0.35505749112E+02  0.00000000000E+00 0.  1.
        -13    1    5    5    0    0 -0.25138651662E+03 -0.31645829110E+03 -0.25693078825E+02  0.40497057306E+03  0.00000000000E+00 0. -1.
          3    1    6    6  503    0  0.35470609576E+03 -0.87410734019E+02  0.36081191561E+03  0.51346108834E+03  0.00000000000E+00 0. -1.
         -3    1    6    6    0  503  0.88350029985E+02  0.77736809586E+01  0.14632723201E+03  0.17110761743E+03  0.00000000000E+00 0.  1.
<mgrwt>
<rscale>  0 0.15825053E+04</rscale>
<asrwt>0</asrwt>
<pdfrwt beam="1">  1        2 0.26121531E+00 0.15825053E+04</pdfrwt>
<pdfrwt beam="2">  1       -1 0.56728982E-01 0.15825053E+04</pdfrwt>
<totfact> 0.33832631E+01</totfact>
</mgrwt>
</event>
<event>
12    7  0.1675873E-007  0.1166985E+04  0.7818608E-02  0.9142256E-01
          2   -1    0    0  501    0  0.00000000000E+00  0.00000000000E+00  0.85481101178E+03  0.85481101178E+03  0.00000000000E+00 0. -1.
         -1   -1    0    0    0  501 -0.00000000000E+00 -0.00000000000E+00 -0.39829076671E+03  0.39829076671E+03  0.00000000000E+00 0.  1.
         24    2    1    2    0    0  0.99147267391E+02 -0.17529026528E+02  0.31802358058E+03  0.34290766302E+03  0.79430599585E+02 0.  0.
        254    2    1    2    0    0 -0.99147267391E+02  0.17529026528E+02  0.13849666450E+03  0.91019411547E+03  0.89394326127E+03 0.  0.
         23    2    4    4    0    0  0.16129883833E+03  0.36858858837E+03 -0.67963914197E+02  0.41811818039E+03  0.91262568513E+02 0.  0.
         23    2    4    4    0    0 -0.26044610572E+03 -0.35105956185E+03  0.20646057870E+03  0.49207593509E+03  0.91857309926E+02 0.  0.
          2    1    3    3  502    0  0.11158645432E+03 -0.15641413926E+02  0.30322539308E+03  0.32348389392E+03  0.00000000000E+00 0. -1.
         -3    1    3    3    0  502 -0.12439186926E+02 -0.18876126023E+01  0.14798187493E+02  0.19423769093E+02  0.00000000000E+00 0.  1.
         13    1    5    5    0    0 -0.59957934637E+01  0.37863466279E+01  0.68638199782E+01  0.98690417336E+01  0.00000000000E+00 0. -1.
        -13    1    5    5    0    0  0.16729463179E+03  0.36480224175E+03 -0.74827734176E+02  0.40824913865E+03  0.00000000000E+00 0.  1.
          3    1    6    6  503    0 -0.48943519859E+02 -0.38287494902E+02  0.83912260791E+00  0.62145832755E+02  0.00000000000E+00 0. -1.
         -3    1    6    6    0  503 -0.21150258586E+03 -0.31277206694E+03  0.20562145609E+03  0.42993010233E+03  0.00000000000E+00 0.  1.
<mgrwt>
<rscale>  0 0.11669847E+04</rscale>
<asrwt>0</asrwt>
<pdfrwt beam="1">  1        2 0.13150939E+00 0.11669847E+04</pdfrwt>
<pdfrwt beam="2">  1       -1 0.61275503E-01 0.11669847E+04</pdfrwt>
<totfact> 0.96017617E+01</totfact>
</mgrwt>
</event>
<event>
12    7  0.1675873E-007  0.1994936E+04  0.7818608E-02  0.8608992E-01
          2   -1    0    0  501    0  0.00000000000E+00  0.00000000000E+00  0.70571688342E+03  0.70571688342E+03  0.00000000000E+00 0. -1.
         -1   -1    0    0    0  501 -0.00000000000E+00 -0.00000000000E+00 -0.14098325645E+04  0.14098325645E+04  0.00000000000E+00 0.  1.
         24    2    1    2    0    0 -0.68143769212E+03  0.18190016811E+03 -0.66012936685E+03  0.96933591367E+03  0.79977078949E+02 0.  0.
        254    2    1    2    0    0  0.68143769212E+03 -0.18190016811E+03 -0.43986314278E+02  0.11462135343E+04  0.90245535676E+03 0.  0.
         23    2    4    4    0    0 -0.44305660152E+02  0.10779624047E+03  0.26304802334E+03  0.30170049143E+03  0.90806954381E+02 0.  0.
         23    2    4    4    0    0  0.72574335227E+03 -0.28969640858E+03 -0.30703433762E+03  0.84451304286E+03  0.91130524955E+02 0.  0.
          4    1    3    3  502    0 -0.55678857335E+02  0.12534169361E+02 -0.26827122821E+02  0.63062945337E+02  0.00000000000E+00 0. -1.
         -3    1    3    3    0  502 -0.62575883478E+03  0.16936599875E+03 -0.63330224402E+03  0.90627296833E+03  0.00000000000E+00 0.  1.
         13    1    5    5    0    0 -0.18986348547E+02  0.13197912426E+01  0.26225109958E+01  0.19211997397E+02  0.00000000000E+00 0. -1.
        -13    1    5    5    0    0 -0.25319311605E+02  0.10647644923E+03  0.26042551235E+03  0.28248849403E+03  0.00000000000E+00 0.  1.
          2    1    6    6  503    0  0.28045993748E+03 -0.64764267675E+02 -0.11015157454E+03  0.30819726843E+03  0.00000000000E+00 0. -1.
         -2    1    6    6    0  503  0.44528341479E+03 -0.22493214090E+03 -0.19688276308E+03  0.53631577443E+03  0.00000000000E+00 0.  1.
<mgrwt>
<rscale>  0 0.19949362E+04</rscale>
<asrwt>0</asrwt>
<pdfrwt beam="1">  1        2 0.10857183E+00 0.19949362E+04</pdfrwt>
<pdfrwt beam="2">  1       -1 0.21689731E+00 0.19949362E+04</pdfrwt>
<totfact> 0.49672281E+00</totfact>
</mgrwt>
</event>
<event>
12    7  0.1675873E-007  0.2694069E+04  0.7818608E-02  0.8336932E-01
          2   -1    0    0  501    0  0.00000000000E+00  0.00000000000E+00  0.27314460551E+04  0.27314460551E+04  0.00000000000E+00 0. -1.
         -1   -1    0    0    0  501 -0.00000000000E+00 -0.00000000000E+00 -0.66430082551E+03  0.66430082551E+03  0.00000000000E+00 0.  1.
         24    2    1    2    0    0  0.28034171830E+03  0.69717034854E+03  0.20322020327E+04  0.21680923277E+04  0.78366230445E+02 0.  0.
        254    2    1    2    0    0 -0.28034171830E+03 -0.69717034854E+03  0.34943196957E+02  0.12276545529E+04  0.97019415602E+03 0.  0.
         23    2    4    4    0    0  0.34363472702E+03 -0.25150994864E+03 -0.91288904404E+02  0.44516161783E+03  0.92158136062E+02 0.  0.
         23    2    4    4    0    0 -0.62397644532E+03 -0.44566039990E+03  0.12623210136E+03  0.78249293508E+03  0.91656171044E+02 0.  0.
          2    1    3    3  502    0  0.19291747368E+03  0.40698485402E+03  0.11356712795E+04  0.12217213587E+04  0.00000000000E+00 0. -1.
         -1    1    3    3    0  502  0.87424244618E+02  0.29018549452E+03  0.89653075314E+03  0.94637096907E+03  0.00000000000E+00 0.  1.
         13    1    5    5    0    0  0.23310215157E+03 -0.17165059399E+03 -0.17254497652E+02  0.28999699511E+03  0.00000000000E+00 0. -1.
        -13    1    5    5    0    0  0.11053257545E+03 -0.79859354655E+02 -0.74034406752E+02  0.15516462272E+03  0.00000000000E+00 0.  1.
          3    1    6    6  503    0 -0.58161966326E+03 -0.42005506953E+03  0.94359872468E+02  0.72362385233E+03  0.00000000000E+00 0. -1.
         -3    1    6    6    0  503 -0.42356782054E+02 -0.25605330378E+02  0.31872228894E+02  0.58869082755E+02  0.00000000000E+00 0.  1.
<mgrwt>
<rscale>  0 0.26940689E+04</rscale>
<asrwt>0</asrwt>
<pdfrwt beam="1">  1        2 0.42022246E+00 0.26940689E+04</pdfrwt>
<pdfrwt beam="2">  1       -1 0.10220013E+00 0.26940689E+04</pdfrwt>
<totfact> 0.22996649E+00</totfact>
</mgrwt>
</event>
<event>
12    7  0.1675873E-007  0.1538391E+04  0.7818608E-02  0.8859317E-01
          2   -1    0    0  501    0  0.00000000000E+00  0.00000000000E+00  0.14316161744E+04  0.14316161744E+04  0.00000000000E+00 0. -1.
         -1   -1    0    0    0  501 -0.00000000000E+00 -0.00000000000E+00 -0.41328242361E+03  0.41328242361E+03  0.00000000000E+00 0.  1.
         24    2    1    2    0    0  0.11128111549E+03  0.29882255612E+03  0.81840650242E+03  0.88462838467E+03  0.10535544151E+03 0.  0.
        254    2    1    2    0    0 -0.11128111549E+03 -0.29882255612E+03  0.19992724837E+03  0.96027021335E+03  0.88344188903E+03 0.  0.
         23    2    4    4    0    0 -0.21835495615E+03  0.21189186484E+03 -0.12163766509E+03  0.34060591775E+03  0.92949558233E+02 0.  0.
         23    2    4    4    0    0  0.10707384067E+03 -0.51071442096E+03  0.32156491346E+03  0.61966429560E+03  0.91026471620E+02 0.  0.
          2    1    3    3  502    0  0.26436851549E+02  0.17326404401E+03  0.53890554439E+03  0.56669085209E+03  0.00000000000E+00 0. -1.
         -1    1    3    3    0  502  0.84844263938E+02  0.12555851211E+03  0.27950095803E+03  0.31793753259E+03  0.00000000000E+00 0.  1.
         13    1    5    5    0    0 -0.21680943806E+03  0.21163248813E+03 -0.13174293987E+03  0.33037984906E+03  0.00000000000E+00 0. -1.
        -13    1    5    5    0    0 -0.15455180936E+01  0.25937671692E+00  0.10105274779E+02  0.10226068688E+02  0.00000000000E+00 0.  1.
          2    1    6    6  503    0  0.73785828367E+02 -0.46459280784E+03  0.26731610334E+03  0.54106258850E+03  0.00000000000E+00 0.  1.
         -2    1    6    6    0  503  0.33288012300E+02 -0.46121613119E+02  0.54248810117E+02  0.78601707098E+02  0.00000000000E+00 0. -1.
<mgrwt>
<rscale>  0 0.15383911E+04</rscale>
<asrwt>0</asrwt>
<pdfrwt beam="1">  1        2 0.22024864E+00 0.15383911E+04</pdfrwt>
<pdfrwt beam="2">  1       -1 0.63581912E-01 0.15383911E+04</pdfrwt>
<totfact> 0.38232998E+01</totfact>
</mgrwt>
</event>
<event>
12    7  0.1675873E-007  0.1758527E+04  0.7818608E-02  0.8728671E-01
          2   -1    0    0  501    0  0.00000000000E+00  0.00000000000E+00  0.73356169311E+03  0.73356169311E+03  0.00000000000E+00 0. -1.
         -1   -1    0    0    0  501 -0.00000000000E+00 -0.00000000000E+00 -0.10539051557E+04  0.10539051557E+04  0.00000000000E+00 0.  1.
         24    2    1    2    0    0 -0.13818782606E+03 -0.56956776896E+03 -0.41011382591E+03  0.71972838381E+03  0.79449842913E+02 0.  0.
        254    2    1    2    0    0  0.13818782606E+03  0.56956776896E+03  0.89770363329E+02  0.10677384650E+04  0.88797713529E+03 0.  0.
         23    2    4    4    0    0 -0.27165821539E+03  0.57589678097E+03  0.39857116076E+02  0.64470020763E+03  0.92706416674E+02 0.  0.
         23    2    4    4    0    0  0.40984604145E+03 -0.63290120114E+01  0.49913247253E+02  0.42303825737E+03  0.91957603598E+02 0.  0.
          4    1    3    3  502    0  0.10496696893E+02 -0.31698347965E+02 -0.21825753704E+02  0.39891470694E+02  0.00000000000E+00 0. -1.
         -3    1    3    3    0  502 -0.14868452296E+03 -0.53786942100E+03 -0.38828807221E+03  0.67983691311E+03  0.00000000000E+00 0.  1.
         13    1    5    5    0    0 -0.12084634960E+03  0.35078089357E+03  0.13653755287E+01  0.37101609097E+03  0.00000000000E+00 0. -1.
        -13    1    5    5    0    0 -0.15081186579E+03  0.22511588740E+03  0.38491740548E+02  0.27368411666E+03  0.00000000000E+00 0.  1.
          4    1    6    6  503    0  0.35306167318E+03 -0.28358666577E+02  0.18933567124E+02  0.35470443894E+03  0.00000000000E+00 0. -1.
         -4    1    6    6    0  503  0.56784368270E+02  0.22029654566E+02  0.30979680129E+02  0.68333818428E+02  0.00000000000E+00 0.  1.
<mgrwt>
<rscale>  0 0.17585272E+04</rscale>
<asrwt>0</asrwt>
<pdfrwt beam="1">  1        2 0.11285565E+00 0.17585272E+04</pdfrwt>
<pdfrwt beam="2">  1       -1 0.16213925E+00 0.17585272E+04</pdfrwt>
<totfact> 0.11750909E+01</totfact>
</mgrwt>
</event>
<event>
12    7  0.1675873E-007  0.3962614E+04  0.7818608E-02  0.8012131E-01
         -1   -1    0    0    0  501 -0.00000000000E+00  0.00000000000E+00  0.15836033306E+04  0.15836033306E+04  0.00000000000E+00 0.  1.
          2   -1    0    0  501    0  0.00000000000E+00 -0.00000000000E+00 -0.24788897970E+04  0.24788897970E+04  0.00000000000E+00 0. -1.
         24    2    1    2    0    0  0.16300686665E+04  0.36483477670E+03  0.45564447955E+03  0.17333081001E+04  0.80726738313E+02 0.  0.
        254    2    1    2    0    0 -0.16300686665E+04 -0.36483477670E+03 -0.13509309460E+04  0.23291850275E+04  0.89992232975E+03 0.  0.
         23    2    4    4    0    0 -0.12522947836E+04 -0.64924481672E+03 -0.10556812537E+04  0.17641755589E+04  0.89952411367E+02 0.  0.
         23    2    4    4    0    0 -0.37777388295E+03  0.28441004001E+03 -0.29524969230E+03  0.56500946857E+03  0.91984462110E+02 0.  0.
          2    1    3    3  502    0  0.57700866078E+03  0.10370182589E+03  0.19046292133E+03  0.61641640772E+03  0.00000000000E+00 0. -1.
         -1    1    3    3    0  502  0.10530600057E+04  0.26113295082E+03  0.26518155822E+03  0.11168916924E+04  0.00000000000E+00 0.  1.
         13    1    5    5    0    0 -0.64044364629E+03 -0.29117759868E+03 -0.49263541197E+03  0.85886093587E+03  0.00000000000E+00 0.  1.
        -13    1    5    5    0    0 -0.61185113728E+03 -0.35806721803E+03 -0.56304584168E+03  0.90531462302E+03  0.00000000000E+00 0. -1.
          1    1    6    6  503    0 -0.11847902199E+03  0.51016897536E+02 -0.48993305159E+02  0.13798676181E+03  0.00000000000E+00 0. -1.
         -1    1    6    6    0  503 -0.25929486096E+03  0.23339314248E+03 -0.24625638714E+03  0.42702270675E+03  0.00000000000E+00 0.  1.
<mgrwt>
<rscale>  0 0.39626144E+04</rscale>
<asrwt>0</asrwt>
<pdfrwt beam="1">  1        2 0.38136766E+00 0.39626144E+04</pdfrwt>
<pdfrwt beam="2">  1       -1 0.24363128E+00 0.39626144E+04</pdfrwt>
<totfact> 0.24713326E-01</totfact>
</mgrwt>
</event>
<event>
12    7  0.1675873E-007  0.1201713E+04  0.7818608E-02  0.9111358E-01
         -1   -1    0    0    0  501 -0.00000000000E+00  0.00000000000E+00  0.53274897779E+03  0.53274897779E+03  0.00000000000E+00 0.  1.
          2   -1    0    0  501    0  0.00000000000E+00 -0.00000000000E+00 -0.67767155406E+03  0.67767155406E+03  0.00000000000E+00 0. -1.
         24    2    1    2    0    0  0.19236623684E+03 -0.33405609724E+02 -0.18683331881E+03  0.28181105747E+03  0.79937971313E+02 0.  0.
        254    2    1    2    0    0 -0.19236623684E+03  0.33405609724E+02  0.41910742537E+02  0.92860947438E+03  0.90688386342E+03 0.  0.
         23    2    4    4    0    0  0.90820227702E+02  0.33887806121E+03 -0.22331317865E+03  0.42563762786E+03  0.90619867364E+02 0.  0.
         23    2    4    4    0    0 -0.28318646454E+03 -0.30547245148E+03  0.26522392119E+03  0.50297184653E+03  0.95545579250E+02 0.  0.
          2    1    3    3  502    0  0.25255172624E+02 -0.16626911493E+02 -0.72733319049E+02  0.78768100332E+02  0.00000000000E+00 0. -1.
         -1    1    3    3    0  502  0.16711106421E+03 -0.16778698231E+02 -0.11409999976E+03  0.20304295713E+03  0.00000000000E+00 0.  1.
         13    1    5    5    0    0  0.11389067160E+02  0.73966572304E+02 -0.82422119006E+01  0.75290761227E+02  0.00000000000E+00 0.  1.
        -13    1    5    5    0    0  0.79431160542E+02  0.26491148890E+03 -0.21507096675E+03  0.35034686663E+03  0.00000000000E+00 0. -1.
          4    1    6    6  503    0 -0.24809949717E+03 -0.30272279285E+03  0.23463474653E+03  0.45634188290E+03  0.00000000000E+00 0. -1.
         -4    1    6    6    0  503 -0.35086967365E+02 -0.27496586317E+01  0.30589174660E+02  0.46629963627E+02  0.00000000000E+00 0.  1.
<mgrwt>
<rscale>  0 0.12017135E+04</rscale>
<asrwt>0</asrwt>
<pdfrwt beam="1">  1        2 0.10425716E+00 0.12017135E+04</pdfrwt>
<pdfrwt beam="2">  1       -1 0.81961381E-01 0.12017135E+04</pdfrwt>
<totfact> 0.71287340E+01</totfact>
</mgrwt>
</event>
<event>
12    7  0.1675873E-007  0.2173341E+04  0.7818608E-02  0.8529607E-01
          2   -1    0    0  501    0  0.00000000000E+00  0.00000000000E+00  0.51109544555E+03  0.51109544555E+03  0.00000000000E+00 0. -1.
         -1   -1    0    0    0  501 -0.00000000000E+00 -0.00000000000E+00 -0.23104349886E+04  0.23104349886E+04  0.00000000000E+00 0.  1.
         24    2    1    2    0    0  0.15640288445E+03  0.58958009414E+02  0.39673162674E+03  0.43789400865E+03  0.80107864877E+02 0.  0.
        254    2    1    2    0    0 -0.15640288445E+03 -0.58958009414E+02 -0.21960711698E+04  0.23836364255E+04  0.91162279317E+03 0.  0.
         23    2    4    4    0    0 -0.17857556869E+03 -0.36572001409E+03 -0.19068017097E+04  0.19514331286E+04  0.80982299275E+02 0.  0.
         23    2    4    4    0    0  0.22172684239E+02  0.30676200467E+03 -0.28926946015E+03  0.43220329696E+03  0.92348870555E+02 0.  0.
          2    1    3    3  502    0  0.12280948976E+03  0.46927613708E+02  0.37181238616E+03  0.39437142671E+03  0.00000000000E+00 0. -1.
         -1    1    3    3    0  502  0.33593394690E+02  0.12030395707E+02  0.24919240589E+02  0.43522581946E+02  0.00000000000E+00 0.  1.
         13    1    5    5    0    0 -0.12342085355E+03 -0.31267389422E+03 -0.14667040474E+04  0.15047320139E+04  0.00000000000E+00 0.  1.
        -13    1    5    5    0    0 -0.55154715134E+02 -0.53046119871E+02 -0.44009766234E+03  0.44670111465E+03  0.00000000000E+00 0. -1.
          2    1    6    6  503    0  0.40497042306E+02  0.92756056467E+02 -0.58319828316E+02  0.11681138139E+03  0.00000000000E+00 0. -1.
         -2    1    6    6    0  503 -0.18324358067E+02  0.21400594821E+03 -0.23094963184E+03  0.31539191558E+03  0.00000000000E+00 0.  1.
<mgrwt>
<rscale>  0 0.21733410E+04</rscale>
<asrwt>0</asrwt>
<pdfrwt beam="1">  1        2 0.78630067E-01 0.21733410E+04</pdfrwt>
<pdfrwt beam="2">  1       -1 0.35545154E+00 0.21733410E+04</pdfrwt>
<totfact> 0.89845605E-01</totfact>
</mgrwt>
</event>
<event>
12    7  0.1675873E-007  0.1215010E+04  0.7818608E-02  0.9099819E-01
         -1   -1    0    0    0  501 -0.00000000000E+00  0.00000000000E+00  0.83290694080E+03  0.83290694080E+03  0.00000000000E+00 0.  1.
          2   -1    0    0  501    0  0.00000000000E+00 -0.00000000000E+00 -0.44310119738E+03  0.44310119738E+03  0.00000000000E+00 0. -1.
         24    2    1    2    0    0  0.89173904522E+02  0.22916912390E+03  0.19937821706E+03  0.32642221838E+03  0.79557014915E+02 0.  0.
        254    2    1    2    0    0 -0.89173904522E+02 -0.22916912390E+03  0.19042752636E+03  0.94958591980E+03  0.89720694586E+03 0.  0.
         23    2    4    4    0    0 -0.24348979542E+03  0.14417787388E+03  0.38945323325E+03  0.48996530709E+03  0.91201104528E+02 0.  0.
         23    2    4    4    0    0  0.15431589090E+03 -0.37334699778E+03 -0.19902570689E+03  0.45962061271E+03  0.91861312278E+02 0.  0.
          2    1    3    3  502    0  0.65927482457E+02  0.11331656221E+03  0.61408370732E+02  0.14476900294E+03  0.00000000000E+00 0. -1.
         -1    1    3    3    0  502  0.23246422065E+02  0.11585256168E+03  0.13796984633E+03  0.18165321545E+03  0.00000000000E+00 0.  1.
         13    1    5    5    0    0 -0.10126423723E+03  0.94032254307E+02  0.12922518756E+03  0.18919740932E+03  0.00000000000E+00 0. -1.
        -13    1    5    5    0    0 -0.14222555820E+03  0.50145619574E+02  0.26022804569E+03  0.30076789777E+03  0.00000000000E+00 0.  1.
          3    1    6    6  503    0  0.12391619295E+02 -0.22342012353E+01  0.42837497941E+01  0.13300165270E+02  0.00000000000E+00 0. -1.
         -3    1    6    6    0  503  0.14192427161E+03 -0.37111279654E+03 -0.20330945669E+03  0.44632044744E+03  0.00000000000E+00 0.  1.
<mgrwt>
<rscale>  0 0.12150096E+04</rscale>
<asrwt>0</asrwt>
<pdfrwt beam="1">  1        2 0.68169415E-01 0.12150096E+04</pdfrwt>
<pdfrwt beam="2">  1       -1 0.12813953E+00 0.12150096E+04</pdfrwt>
<totfact> 0.42001602E+01</totfact>
</mgrwt>
</event>
<event>
12    7  0.1675873E-007  0.1818141E+04  0.7818608E-02  0.8696711E-01
         -1   -1    0    0    0  501 -0.00000000000E+00  0.00000000000E+00  0.23914124992E+03  0.23914124992E+03  0.00000000000E+00 0.  1.
          2   -1    0    0  501    0  0.00000000000E+00 -0.00000000000E+00 -0.34557383533E+04  0.34557383533E+04  0.00000000000E+00 0. -1.
         24    2    1    2    0    0 -0.57939006794E+03  0.33380576149E+03 -0.15205672629E+04  0.16629752700E+04  0.79011455502E+02 0.  0.
        254    2    1    2    0    0  0.57939006794E+03 -0.33380576149E+03 -0.16960298404E+04  0.20319043333E+04  0.89721728845E+03 0.  0.
         23    2    4    4    0    0  0.49565067980E+03  0.98967000114E+01 -0.29579632420E+03  0.58462463019E+03  0.92319834042E+02 0.  0.
         23    2    4    4    0    0  0.83739388141E+02 -0.34370246150E+03 -0.14002335162E+04  0.14472797031E+04  0.93920028756E+02 0.  0.
          2    1    3    3  502    0 -0.46165957664E+03  0.30087710753E+03 -0.12496733493E+04  0.13657745343E+04  0.00000000000E+00 0. -1.
         -1    1    3    3    0  502 -0.11773049131E+03  0.32928653959E+02 -0.27089391361E+03  0.29720073564E+03  0.00000000000E+00 0.  1.
         13    1    5    5    0    0  0.43352208948E+03 -0.77435511737E+01 -0.28570193359E+03  0.51925615982E+03  0.00000000000E+00 0.  1.
        -13    1    5    5    0    0  0.62128590321E+02  0.17640251185E+02 -0.10094390610E+02  0.65368470374E+02  0.00000000000E+00 0. -1.
          2    1    6    6  503    0  0.37449844841E+02 -0.29989270771E+03 -0.11658240013E+04  0.12043602987E+04  0.00000000000E+00 0.  1.
         -2    1    6    6    0  503  0.46289543300E+02 -0.43809753786E+02 -0.23440951491E+03  0.24291940439E+03  0.00000000000E+00 0. -1.
<mgrwt>
<rscale>  0 0.18181415E+04</rscale>
<asrwt>0</asrwt>
<pdfrwt beam="1">  1        2 0.53165203E+00 0.18181415E+04</pdfrwt>
<pdfrwt beam="2">  1       -1 0.36790963E-01 0.18181415E+04</pdfrwt>
<totfact> 0.66935427E+00</totfact>
</mgrwt>
</event>
<event>
12    7  0.1675873E-007  0.1760811E+04  0.7818608E-02  0.8727422E-01
          2   -1    0    0  501    0  0.00000000000E+00  0.00000000000E+00  0.14530872750E+04  0.14530872750E+04  0.00000000000E+00 0. -1.
         -1   -1    0    0    0  501 -0.00000000000E+00 -0.00000000000E+00 -0.53342559802E+03  0.53342559802E+03  0.00000000000E+00 0.  1.
         24    2    1    2    0    0 -0.22872556766E+03 -0.40938514046E+03  0.84700267516E+03  0.97205094939E+03  0.86936401721E+02 0.  0.
        254    2    1    2    0    0  0.22872556766E+03  0.40938514046E+03  0.72659001865E+02  0.10144619237E+04  0.89662817572E+03 0.  0.
         23    2    4    4    0    0 -0.29901481012E+03  0.27590238497E+03 -0.11540427157E+03  0.43153567228E+03  0.85865638353E+02 0.  0.
         23    2    4    4    0    0  0.52774037779E+03  0.13348275549E+03  0.18806327343E+03  0.58292625139E+03  0.90042586531E+02 0.  0.
          4    1    3    3  502    0 -0.14851722505E+03 -0.18339996814E+03  0.45381833073E+03  0.51151147764E+03  0.00000000000E+00 0. -1.
         -3    1    3    3    0  502 -0.80208342616E+02 -0.22598517232E+03  0.39318434443E+03  0.46053947175E+03  0.00000000000E+00 0.  1.
         13    1    5    5    0    0 -0.28518216798E+03  0.25726607489E+03 -0.85145611024E+02  0.39340116586E+03  0.00000000000E+00 0.  1.
        -13    1    5    5    0    0 -0.13832642141E+02  0.18636310083E+02 -0.30258660544E+02  0.38134506422E+02  0.00000000000E+00 0. -1.
          1    1    6    6  503    0  0.23110051132E+03  0.57246109197E+02  0.35381720768E+02  0.24069987436E+03  0.00000000000E+00 0. -1.
         -1    1    6    6    0  503  0.29663986646E+03  0.76236646294E+02  0.15268155266E+03  0.34222637703E+03  0.00000000000E+00 0.  1.
<mgrwt>
<rscale>  0 0.17608111E+04</rscale>
<asrwt>0</asrwt>
<pdfrwt beam="1">  1        2 0.22355189E+00 0.17608111E+04</pdfrwt>
<pdfrwt beam="2">  1       -1 0.82065477E-01 0.17608111E+04</pdfrwt>
<totfact> 0.21512484E+01</totfact>
</mgrwt>
</event>
<event>
12    7  0.1675873E-007  0.2367999E+04  0.7818608E-02  0.8451582E-01
          2   -1    0    0  501    0  0.00000000000E+00  0.00000000000E+00  0.25787070260E+04  0.25787070260E+04  0.00000000000E+00 0. -1.
         -1   -1    0    0    0  501 -0.00000000000E+00 -0.00000000000E+00 -0.54362692194E+03  0.54362692194E+03  0.00000000000E+00 0.  1.
         24    2    1    2    0    0 -0.94592554517E+03  0.14718466617E+03  0.43344704993E+03  0.10538457790E+04  0.79221953288E+02 0.  0.
        254    2    1    2    0    0  0.94592554517E+03 -0.14718466617E+03  0.16016330541E+04  0.20684881689E+04  0.89273534820E+03 0.  0.
         23    2    4    4    0    0  0.70973918401E+03 -0.48566488904E+03  0.12350778912E+04  0.15073299423E+04  0.83821618937E+02 0.  0.
         23    2    4    4    0    0  0.23618636116E+03  0.33848022287E+03  0.36655516295E+03  0.56115822666E+03  0.10091089827E+03 0.  0.
          4    1    3    3  502    0 -0.36705330749E+02  0.41871126906E+01  0.10956196095E+01  0.36959621216E+02  0.00000000000E+00 0. -1.
         -3    1    3    3    0  502 -0.90922021443E+03  0.14299755348E+03  0.43235143032E+03  0.10168861578E+04  0.00000000000E+00 0.  1.
         13    1    5    5    0    0  0.85519113772E+02 -0.27765850016E+02  0.12738435386E+03  0.15592060433E+03  0.00000000000E+00 0.  1.
        -13    1    5    5    0    0  0.62422007024E+03 -0.45789903902E+03  0.11076935373E+04  0.13514093379E+04  0.00000000000E+00 0. -1.
          4    1    6    6  503    0  0.17992699834E+03  0.19628131870E+03  0.18736624926E+03  0.32558592133E+03  0.00000000000E+00 0. -1.
         -4    1    6    6    0  503  0.56259362821E+02  0.14219890416E+03  0.17918891369E+03  0.23557230533E+03  0.00000000000E+00 0.  1.
<mgrwt>
<rscale>  0 0.23679988E+04</rscale>
<asrwt>0</asrwt>
<pdfrwt beam="1">  1        2 0.39672415E+00 0.23679988E+04</pdfrwt>
<pdfrwt beam="2">  1       -1 0.83634913E-01 0.23679988E+04</pdfrwt>
<totfact> 0.45549396E+00</totfact>
</mgrwt>
</event>
<event>
12    7  0.1675873E-007  0.1069709E+04  0.7818608E-02  0.9235229E-01
         -1   -1    0    0    0  501 -0.00000000000E+00  0.00000000000E+00  0.36787034267E+03  0.36787034267E+03  0.00000000000E+00 0.  1.
          2   -1    0    0  501    0  0.00000000000E+00 -0.00000000000E+00 -0.77763669265E+03  0.77763669265E+03  0.00000000000E+00 0. -1.
         24    2    1    2    0    0 -0.73001447721E+02  0.67473898893E+02 -0.16929888060E+03  0.21587861137E+03  0.89774859922E+02 0.  0.
        254    2    1    2    0    0  0.73001447721E+02 -0.67473898893E+02 -0.24046746938E+03  0.92962842395E+03  0.89246986749E+03 0.  0.
         23    2    4    4    0    0  0.37374502676E+03  0.15885448343E+03  0.83634556926E+02  0.42457705010E+03  0.91382932889E+02 0.  0.
         23    2    4    4    0    0 -0.30074357904E+03 -0.22632838233E+03 -0.32410202630E+03  0.50505137385E+03  0.91452336203E+02 0.  0.
          2    1    3    3  502    0 -0.64163832521E+02  0.17485166945E+02 -0.14515760013E+03  0.15966670705E+03  0.00000000000E+00 0. -1.
         -1    1    3    3    0  502 -0.88376152001E+01  0.49988731948E+02 -0.24141280476E+02  0.56211904320E+02  0.00000000000E+00 0.  1.
         13    1    5    5    0    0  0.92661366090E+02  0.78531964486E+01  0.44557290081E+02  0.10311718363E+03  0.00000000000E+00 0. -1.
        -13    1    5    5    0    0  0.28108366067E+03  0.15100128698E+03  0.39077266844E+02  0.32145986647E+03  0.00000000000E+00 0.  1.
          4    1    6    6  503    0 -0.25049153213E+03 -0.14097831110E+03 -0.25538632972E+03  0.38450366614E+03  0.00000000000E+00 0. -1.
         -4    1    6    6    0  503 -0.50252046910E+02 -0.85350071230E+02 -0.68715696580E+02  0.12054770771E+03  0.00000000000E+00 0.  1.
<mgrwt>
<rscale>  0 0.10697093E+04</rscale>
<asrwt>0</asrwt>
<pdfrwt beam="1">  1        2 0.11963641E+00 0.10697093E+04</pdfrwt>
<pdfrwt beam="2">  1       -1 0.56595438E-01 0.10697093E+04</pdfrwt>
<totfact> 0.12831460E+02</totfact>
</mgrwt>
</event>
<event>
12    7  0.1675873E-007  0.2408463E+04  0.7818608E-02  0.8436342E-01
          2   -1    0    0  501    0  0.00000000000E+00  0.00000000000E+00  0.15252711720E+04  0.15252711720E+04  0.00000000000E+00 0. -1.
         -1   -1    0    0    0  501 -0.00000000000E+00 -0.00000000000E+00 -0.95076426081E+03  0.95076426081E+03  0.00000000000E+00 0.  1.
         24    2    1    2    0    0 -0.63522120310E+03 -0.82730016224E+03  0.27496873771E+03  0.10836509160E+04  0.10373025494E+03 0.  0.
        254    2    1    2    0    0  0.63522120310E+03  0.82730016224E+03  0.29953817348E+03  0.13923845168E+04  0.87239898548E+03 0.  0.
         23    2    4    4    0    0  0.12759020500E+03  0.32660564527E+03 -0.28873243035E+03  0.46319994612E+03  0.90759384182E+02 0.  0.
         23    2    4    4    0    0  0.50763099810E+03  0.50069451697E+03  0.58827060383E+03  0.92918457065E+03  0.94538000006E+02 0.  0.
          4    1    3    3  502    0 -0.62461813543E+03 -0.80536673557E+03  0.25138059236E+03  0.10497407280E+04  0.00000000000E+00 0. -1.
         -3    1    3    3    0  502 -0.10603067670E+02 -0.21933426668E+02  0.23588145342E+02  0.33910187998E+02  0.00000000000E+00 0.  1.
         13    1    5    5    0    0  0.32300911738E+01  0.73443165112E+02 -0.98820351280E+02  0.12316571689E+03  0.00000000000E+00 0. -1.
        -13    1    5    5    0    0  0.12436011383E+03  0.25316248016E+03 -0.18991207907E+03  0.34003422923E+03  0.00000000000E+00 0.  1.
          1    1    6    6  503    0  0.41568764730E+03  0.44289403067E+03  0.52891374411E+03  0.80541982297E+03  0.00000000000E+00 0.  1.
         -1    1    6    6    0  503  0.91943350803E+02  0.57800486303E+02  0.59356859725E+02  0.12376474769E+03  0.00000000000E+00 0. -1.
<mgrwt>
<rscale>  0 0.24084628E+04</rscale>
<asrwt>0</asrwt>
<pdfrwt beam="1">  1        2 0.23465710E+00 0.24084628E+04</pdfrwt>
<pdfrwt beam="2">  1       -1 0.14627142E+00 0.24084628E+04</pdfrwt>
<totfact> 0.46934395E+00</totfact>
</mgrwt>
</event>
<event>
12    7  0.1675873E-007  0.1988562E+04  0.7818608E-02  0.8611987E-01
          2   -1    0    0  501    0  0.00000000000E+00  0.00000000000E+00  0.15871630515E+04  0.15871630515E+04  0.00000000000E+00 0. -1.
         -1   -1    0    0    0  501 -0.00000000000E+00 -0.00000000000E+00 -0.62286911633E+03  0.62286911633E+03  0.00000000000E+00 0.  1.
         24    2    1    2    0    0 -0.33489279471E+03  0.48820348278E+03 -0.19556779206E+03  0.62886965073E+03  0.82063705542E+02 0.  0.
        254    2    1    2    0    0  0.33489279471E+03 -0.48820348278E+03  0.11598617272E+04  0.15811625171E+04  0.89682766159E+03 0.  0.
         23    2    4    4    0    0  0.29533273613E+03  0.20084730213E+03  0.30192254632E+03  0.47620223933E+03  0.89723380221E+02 0.  0.
         23    2    4    4    0    0  0.39560058576E+02 -0.68905078491E+03  0.85793918087E+03  0.11049602777E+04  0.92312484907E+02 0.  0.
          2    1    3    3  502    0 -0.57070453816E+02  0.12101342616E+03 -0.16430081045E+02  0.13480071799E+03  0.00000000000E+00 0. -1.
         -1    1    3    3    0  502 -0.27782234089E+03  0.36719005662E+03 -0.17913771102E+03  0.49406893273E+03  0.00000000000E+00 0.  1.
         13    1    5    5    0    0  0.13539542237E+03  0.46223322012E+02  0.14689437090E+03  0.20505236428E+03  0.00000000000E+00 0. -1.
        -13    1    5    5    0    0  0.15993731377E+03  0.15462398012E+03  0.15502817542E+03  0.27114987504E+03  0.00000000000E+00 0.  1.
          3    1    6    6  503    0 -0.12796588792E+01 -0.67513416864E+02  0.46363736260E+02  0.81910286432E+02  0.00000000000E+00 0. -1.
         -3    1    6    6    0  503  0.40839717455E+02 -0.62153736804E+03  0.81157544461E+03  0.10230499913E+04  0.00000000000E+00 0.  1.
<mgrwt>
<rscale>  0 0.19885621E+04</rscale>
<asrwt>0</asrwt>
<pdfrwt beam="1">  1        2 0.24417893E+00 0.19885621E+04</pdfrwt>
<pdfrwt beam="2">  1       -1 0.95826018E-01 0.19885621E+04</pdfrwt>
<totfact> 0.12612458E+01</totfact>
</mgrwt>
</event>
<event>
12    7  0.1675873E-007  0.1422458E+04  0.7818608E-02  0.8937721E-01
          2   -1    0    0  501    0  0.00000000000E+00  0.00000000000E+00  0.45058582689E+03  0.45058582689E+03  0.00000000000E+00 0. -1.
         -1   -1    0    0    0  501 -0.00000000000E+00 -0.00000000000E+00 -0.11226421471E+04  0.11226421471E+04  0.00000000000E+00 0.  1.
         24    2    1    2    0    0 -0.81122648925E+02 -0.32458378736E+03 -0.49604842554E+03  0.60340403206E+03  0.78082432353E+02 0.  0.
        254    2    1    2    0    0  0.81122648925E+02  0.32458378736E+03 -0.17600789464E+03  0.96982394189E+03  0.89310927669E+03 0.  0.
         23    2    4    4    0    0 -0.39710391289E+03  0.13406601268E+03 -0.11229002043E+03  0.44320613068E+03  0.90318393439E+02 0.  0.
         23    2    4    4    0    0  0.47822656182E+03  0.19051777467E+03 -0.63717874211E+02  0.52661781121E+03  0.90932308348E+02 0.  0.
          2    1    3    3  502    0  0.13797808563E+02 -0.19355246432E+02 -0.38908143281E+02  0.45594393286E+02  0.00000000000E+00 0. -1.
         -1    1    3    3    0  502 -0.94920457488E+02 -0.30522854092E+03 -0.45714028225E+03  0.55780963877E+03  0.00000000000E+00 0.  1.
         13    1    5    5    0    0 -0.13932994423E+03  0.28632061529E+02 -0.79037378981E+02  0.16272533786E+03  0.00000000000E+00 0.  1.
        -13    1    5    5    0    0 -0.25777396866E+03  0.10543395115E+03 -0.33252641447E+02  0.28048079282E+03  0.00000000000E+00 0. -1.
          2    1    6    6  503    0  0.37142107131E+03  0.10679303363E+03 -0.36342445935E+02  0.38817410735E+03  0.00000000000E+00 0. -1.
         -2    1    6    6    0  503  0.10680549051E+03  0.83724741043E+02 -0.27375428275E+02  0.13844370386E+03  0.00000000000E+00 0.  1.
<mgrwt>
<rscale>  0 0.14224579E+04</rscale>
<asrwt>0</asrwt>
<pdfrwt beam="1">  1        2 0.69320897E-01 0.14224579E+04</pdfrwt>
<pdfrwt beam="2">  1       -1 0.17271418E+00 0.14224579E+04</pdfrwt>
<totfact> 0.18139526E+01</totfact>
</mgrwt>
</event>
<event>
12    7  0.1675873E-007  0.1865529E+04  0.7818608E-02  0.8672208E-01
         -1   -1    0    0    0  501 -0.00000000000E+00  0.00000000000E+00  0.46419311754E+03  0.46419311754E+03  0.00000000000E+00 0.  1.
          2   -1    0    0  501    0  0.00000000000E+00 -0.00000000000E+00 -0.18743261289E+04  0.18743261289E+04  0.00000000000E+00 0. -1.
         24    2    1    2    0    0  0.38563287081E+03 -0.13745363590E+03 -0.12696656493E+04  0.13366734585E+04  0.83897917083E+02 0.  0.
        254    2    1    2    0    0 -0.38563287081E+03  0.13745363590E+03 -0.14046736209E+03  0.10018457880E+04  0.90352514633E+03 0.  0.
         23    2    4    4    0    0 -0.17064185000E+03  0.47561175436E+03  0.10405567453E+03  0.52385224701E+03  0.90930805777E+02 0.  0.
         23    2    4    4    0    0 -0.21499102082E+03 -0.33815811845E+03 -0.24452303662E+03  0.47799354100E+03  0.90079174546E+02 0.  0.
          2    1    3    3  502    0  0.22862467069E+03 -0.12413032320E+03 -0.77136497768E+03  0.81405252040E+03  0.00000000000E+00 0. -1.
         -1    1    3    3    0  502  0.15700820012E+03 -0.13323312703E+02 -0.49830067163E+03  0.52262093807E+03  0.00000000000E+00 0.  1.
         13    1    5    5    0    0 -0.13029758527E+03  0.23406681111E+03  0.41363736635E+02  0.27106399890E+03  0.00000000000E+00 0.  1.
        -13    1    5    5    0    0 -0.40344264725E+02  0.24154494324E+03  0.62691937895E+02  0.25278824811E+03  0.00000000000E+00 0. -1.
          1    1    6    6  503    0 -0.19669697044E+03 -0.25356778204E+03 -0.21613112083E+03  0.38690952387E+03  0.00000000000E+00 0. -1.
         -1    1    6    6    0  503 -0.18294050379E+02 -0.84590336415E+02 -0.28391915792E+02  0.91084017129E+02  0.00000000000E+00 0.  1.
<mgrwt>
<rscale>  0 0.18655287E+04</rscale>
<asrwt>0</asrwt>
<pdfrwt beam="1">  1        2 0.28835787E+00 0.18655287E+04</pdfrwt>
<pdfrwt beam="2">  1       -1 0.71414326E-01 0.18655287E+04</pdfrwt>
<totfact> 0.16614678E+01</totfact>
</mgrwt>
</event>
<event>
12    7  0.1675873E-007  0.2787919E+04  0.7818608E-02  0.8307029E-01
         -1   -1    0    0    0  501 -0.00000000000E+00  0.00000000000E+00  0.10426034619E+04  0.10426034619E+04  0.00000000000E+00 0.  1.
          2   -1    0    0  501    0  0.00000000000E+00 -0.00000000000E+00 -0.18637214608E+04  0.18637214608E+04  0.00000000000E+00 0. -1.
         24    2    1    2    0    0 -0.40046744220E+03  0.10090381831E+04  0.26950358720E+03  0.11214594872E+04  0.80665795590E+02 0.  0.
        254    2    1    2    0    0  0.40046744220E+03 -0.10090381831E+04 -0.10906215861E+04  0.17848654355E+04  0.90429914936E+03 0.  0.
         23    2    4    4    0    0  0.36371295560E+03 -0.64020691862E+03 -0.11790209452E+04  0.13929786384E+04  0.90261205629E+02 0.  0.
         23    2    4    4    0    0  0.36754486595E+02 -0.36883126452E+03  0.88399359096E+02  0.39188679707E+03  0.91506399018E+02 0.  0.
          2    1    3    3  502    0 -0.95705774822E+01  0.13284989720E+02  0.14227068932E+02  0.21690928879E+02  0.00000000000E+00 0. -1.
         -1    1    3    3    0  502 -0.39089686472E+03  0.99575319342E+03  0.25527651827E+03  0.10997685583E+04  0.00000000000E+00 0.  1.
         13    1    5    5    0    0  0.18876847643E+03 -0.24320493638E+03 -0.50152951226E+03  0.58848452014E+03  0.00000000000E+00 0.  1.
        -13    1    5    5    0    0  0.17494447917E+03 -0.39700198225E+03 -0.67749143289E+03  0.80449411828E+03  0.00000000000E+00 0. -1.
          3    1    6    6  503    0  0.20183364589E+02 -0.21331417628E+03  0.97112127087E+02  0.23524683044E+03  0.00000000000E+00 0. -1.
         -3    1    6    6    0  503  0.16571122006E+02 -0.15551708824E+03 -0.87127679909E+01  0.15663996663E+03  0.00000000000E+00 0.  1.
<mgrwt>
<rscale>  0 0.27879185E+04</rscale>
<asrwt>0</asrwt>
<pdfrwt beam="1">  1        2 0.28672638E+00 0.27879185E+04</pdfrwt>
<pdfrwt beam="2">  1       -1 0.16040053E+00 0.27879185E+04</pdfrwt>
<totfact> 0.22878968E+00</totfact>
</mgrwt>
</event>
<event>
12    7  0.1675873E-007  0.1320602E+04  0.7818608E-02  0.9013385E-01
          2   -1    0    0  501    0  0.00000000000E+00  0.00000000000E+00  0.11903213015E+04  0.11903213015E+04  0.00000000000E+00 0. -1.
         -1   -1    0    0    0  501 -0.00000000000E+00 -0.00000000000E+00 -0.36628564411E+03  0.36628564411E+03  0.00000000000E+00 0.  1.
         24    2    1    2    0    0 -0.17869217712E+02 -0.30846827426E+03  0.86070605201E+02  0.32998023221E+03  0.77503673447E+02 0.  0.
        254    2    1    2    0    0  0.17869217712E+02  0.30846827426E+03  0.73796505223E+03  0.12266267135E+04  0.92981110483E+03 0.  0.
         23    2    4    4    0    0 -0.51732126216E+02 -0.20097651104E+03  0.66079930185E+03  0.69863951179E+03  0.91507809644E+02 0.  0.
         23    2    4    4    0    0  0.69601343928E+02  0.50944478531E+03  0.77165750376E+02  0.52798720166E+03  0.91856386478E+02 0.  0.
          2    1    3    3  502    0 -0.30860725238E+02 -0.11650657925E+03  0.34058730907E+01  0.12057266416E+03  0.00000000000E+00 0. -1.
         -1    1    3    3    0  502  0.12991507526E+02 -0.19196169501E+03  0.82664732110E+02  0.20940756804E+03  0.00000000000E+00 0.  1.
         13    1    5    5    0    0  0.71288360544E+00 -0.59269150353E+02  0.86957560506E+02  0.10523762500E+03  0.00000000000E+00 0.  1.
        -13    1    5    5    0    0 -0.52445009821E+02 -0.14170736069E+03  0.57384174135E+03  0.59340188679E+03  0.00000000000E+00 0. -1.
          1    1    6    6  503    0  0.50555605832E+02  0.47399065563E+03  0.91276036862E+02  0.48533939239E+03  0.00000000000E+00 0. -1.
         -1    1    6    6    0  503  0.19045738096E+02  0.35454129681E+02 -0.14110286485E+02  0.42647809272E+02  0.00000000000E+00 0.  1.
<mgrwt>
<rscale>  0 0.13206023E+04</rscale>
<asrwt>0</asrwt>
<pdfrwt beam="1">  1        2 0.18312635E+00 0.13206023E+04</pdfrwt>
<pdfrwt beam="2">  1       -1 0.56351638E-01 0.13206023E+04</pdfrwt>
<totfact> 0.68258397E+01</totfact>
</mgrwt>
</event>
<event>
12    7  0.1675873E-007  0.1644928E+04  0.7818608E-02  0.8793412E-01
         -1   -1    0    0    0  501 -0.00000000000E+00  0.00000000000E+00  0.10383133707E+04  0.10383133707E+04  0.00000000000E+00 0.  1.
          2   -1    0    0  501    0  0.00000000000E+00 -0.00000000000E+00 -0.65148662474E+03  0.65148662474E+03  0.00000000000E+00 0. -1.
         24    2    1    2    0    0  0.31317632996E+03  0.45568756128E+03  0.22701965650E+03  0.60393961394E+03  0.86455570646E+02 0.  0.
        254    2    1    2    0    0 -0.31317632996E+03 -0.45568756128E+03  0.15980708941E+03  0.10858603815E+04  0.92077353080E+03 0.  0.
         23    2    4    4    0    0 -0.47939300062E+03 -0.64052080174E+03  0.16562799147E+03  0.82114615589E+03  0.82242515000E+02 0.  0.
         23    2    4    4    0    0  0.16621667066E+03  0.18483324046E+03 -0.58209020603E+01  0.26471422556E+03  0.90820867280E+02 0.  0.
          2    1    3    3  502    0  0.43799807489E+02  0.54160640629E+02 -0.29502074877E+00  0.69655474779E+02  0.00000000000E+00 0. -1.
         -1    1    3    3    0  502  0.26937652247E+03  0.40152692065E+03  0.22731467725E+03  0.53428413916E+03  0.00000000000E+00 0.  1.
         13    1    5    5    0    0 -0.26631691982E+03 -0.41969833276E+03  0.11406664236E+03  0.50998293227E+03  0.00000000000E+00 0.  1.
        -13    1    5    5    0    0 -0.21307608079E+03 -0.22082246898E+03  0.51561349107E+02  0.31116322362E+03  0.00000000000E+00 0. -1.
          2    1    6    6  503    0  0.23225183686E+02  0.88202852035E+02  0.81291380818E+01  0.91570929613E+02  0.00000000000E+00 0.  1.
         -2    1    6    6    0  503  0.14299148697E+03  0.96630388422E+02 -0.13950040142E+02  0.17314329595E+03  0.00000000000E+00 0. -1.
<mgrwt>
<rscale>  0 0.16449283E+04</rscale>
<asrwt>0</asrwt>
<pdfrwt beam="1">  1        2 0.10022871E+00 0.16449283E+04</pdfrwt>
<pdfrwt beam="2">  1       -1 0.15974052E+00 0.16449283E+04</pdfrwt>
<totfact> 0.14367442E+01</totfact>
</mgrwt>
</event>
<event>
12    7  0.1675873E-007  0.1223268E+04  0.7818608E-02  0.9092731E-01
          2   -1    0    0  501    0  0.00000000000E+00  0.00000000000E+00  0.51014728768E+03  0.51014728768E+03  0.00000000000E+00 0. -1.
         -1   -1    0    0    0  501 -0.00000000000E+00 -0.00000000000E+00 -0.73330980049E+03  0.73330980049E+03  0.00000000000E+00 0.  1.
         24    2    1    2    0    0 -0.15381099724E+03  0.19752722890E+03 -0.16198060539E+03  0.30888846859E+03  0.80619727591E+02 0.  0.
        254    2    1    2    0    0  0.15381099724E+03 -0.19752722890E+03 -0.61181907423E+02  0.93456861957E+03  0.89833203765E+03 0.  0.
         23    2    4    4    0    0  0.25390591837E+03  0.97780832890E+02 -0.38269332983E+03  0.47767576304E+03  0.87696312563E+02 0.  0.
         23    2    4    4    0    0 -0.10009492113E+03 -0.29530806179E+03  0.32151142241E+03  0.45689285653E+03  0.90308598762E+02 0.  0.
          2    1    3    3  502    0 -0.13145276623E+03  0.18001055188E+03 -0.10754058375E+03  0.24748455647E+03  0.00000000000E+00 0. -1.
         -1    1    3    3    0  502 -0.22358231011E+02  0.17516677020E+02 -0.54440021638E+02  0.61403912121E+02  0.00000000000E+00 0.  1.
         13    1    5    5    0    0  0.35810752229E+02  0.49903084117E+02 -0.10112441596E+03  0.11831684277E+03  0.00000000000E+00 0.  1.
        -13    1    5    5    0    0  0.21809516614E+03  0.47877748773E+02 -0.28156891387E+03  0.35935892028E+03  0.00000000000E+00 0. -1.
          3    1    6    6  503    0 -0.10781598616E+03 -0.21339292933E+03  0.26591805132E+03  0.35759367888E+03  0.00000000000E+00 0. -1.
         -3    1    6    6    0  503  0.77210650318E+01 -0.81915132462E+02  0.55593371090E+02  0.99299177644E+02  0.00000000000E+00 0.  1.
<mgrwt>
<rscale>  0 0.12232678E+04</rscale>
<asrwt>0</asrwt>
<pdfrwt beam="1">  1        2 0.78484198E-01 0.12232678E+04</pdfrwt>
<pdfrwt beam="2">  1       -1 0.11281689E+00 0.12232678E+04</pdfrwt>
<totfact> 0.48725763E+01</totfact>
</mgrwt>
</event>
<event>
12    7  0.1675873E-007  0.3094254E+04  0.7818608E-02  0.8217316E-01
          2   -1    0    0  501    0  0.00000000000E+00  0.00000000000E+00  0.29374659915E+04  0.29374659915E+04  0.00000000000E+00 0. -1.
         -1   -1    0    0    0  501 -0.00000000000E+00 -0.00000000000E+00 -0.81485288698E+03  0.81485288698E+03  0.00000000000E+00 0.  1.
         24    2    1    2    0    0 -0.43323340044E+02  0.13811847191E+04  0.60829576436E+03  0.15118924330E+04  0.79037029961E+02 0.  0.
        254    2    1    2    0    0  0.43323340044E+02 -0.13811847191E+04  0.15143173402E+04  0.22404264454E+04  0.90377293092E+03 0.  0.
         23    2    4    4    0    0 -0.37432474203E+03 -0.72420020208E+03  0.10391198998E+04  0.13238108891E+04  0.90111923811E+02 0.  0.
         23    2    4    4    0    0  0.41764808207E+03 -0.65698451701E+03  0.47519744033E+03  0.91661555629E+03  0.91175077113E+02 0.  0.
          2    1    3    3  502    0 -0.40296635053E+02  0.82867395093E+03  0.32565651778E+03  0.89127801685E+03  0.00000000000E+00 0. -1.
         -1    1    3    3    0  502 -0.30267049915E+01  0.55251076815E+03  0.28263924658E+03  0.62061441618E+03  0.00000000000E+00 0.  1.
         13    1    5    5    0    0 -0.29919019210E+03 -0.59543850430E+03  0.90042849217E+03  0.11201933998E+04  0.00000000000E+00 0.  1.
        -13    1    5    5    0    0 -0.75134549927E+02 -0.12876169777E+03  0.13869140767E+03  0.20361748934E+03  0.00000000000E+00 0. -1.
          3    1    6    6  503    0  0.15853071047E+03 -0.17199556402E+03  0.14596429316E+03  0.27571731009E+03  0.00000000000E+00 0. -1.
         -3    1    6    6    0  503  0.25911737160E+03 -0.48498895299E+03  0.32923314718E+03  0.64089824620E+03  0.00000000000E+00 0.  1.
<mgrwt>
<rscale>  0 0.30942544E+04</rscale>
<asrwt>0</asrwt>
<pdfrwt beam="1">  1        2 0.45191784E+00 0.30942544E+04</pdfrwt>
<pdfrwt beam="2">  1       -1 0.12536198E+00 0.30942544E+04</pdfrwt>
<totfact> 0.10206343E+00</totfact>
</mgrwt>
</event>
<event>
12    7  0.1675873E-007  0.2057786E+04  0.7818608E-02  0.8580070E-01
          2   -1    0    0  501    0  0.00000000000E+00  0.00000000000E+00  0.23458835140E+04  0.23458835140E+04  0.00000000000E+00 0. -1.
         -1   -1    0    0    0  501 -0.00000000000E+00 -0.00000000000E+00 -0.45126749928E+03  0.45126749928E+03  0.00000000000E+00 0.  1.
         24    2    1    2    0    0 -0.19066830432E+03 -0.57827491955E+03  0.99359929019E+00  0.61423130745E+03  0.80764020192E+02 0.  0.
        254    2    1    2    0    0  0.19066830432E+03  0.57827491955E+03  0.18936224155E+04  0.21829197059E+04  0.89920871050E+03 0.  0.
         23    2    4    4    0    0 -0.33540311988E+03  0.35038508790E+03  0.10254568325E+04  0.11380699087E+04  0.91522888779E+02 0.  0.
         23    2    4    4    0    0  0.52607142420E+03  0.22788983165E+03  0.86816558301E+03  0.10448497972E+04  0.96512695639E+02 0.  0.
          4    1    3    3  502    0 -0.85410285251E+01 -0.10259406137E+01  0.23994707551E+01  0.89307996458E+01  0.00000000000E+00 0. -1.
         -3    1    3    3    0  502 -0.18212727579E+03 -0.57724897894E+03 -0.14058714649E+01  0.60530050780E+03  0.00000000000E+00 0.  1.
         13    1    5    5    0    0 -0.87589316932E+02  0.10772857519E+03  0.39223879674E+03  0.41608726011E+03  0.00000000000E+00 0. -1.
        -13    1    5    5    0    0 -0.24781380295E+03  0.24265651271E+03  0.63321803571E+03  0.72198264857E+03  0.00000000000E+00 0.  1.
          4    1    6    6  503    0  0.76916501906E+02  0.38926677394E+02  0.76600001461E+02  0.11532126735E+03  0.00000000000E+00 0. -1.
         -4    1    6    6    0  503  0.44915492229E+03  0.18896315426E+03  0.79156558155E+03  0.92952852983E+03  0.00000000000E+00 0.  1.
<mgrwt>
<rscale>  0 0.20577862E+04</rscale>
<asrwt>0</asrwt>
<pdfrwt beam="1">  1        2 0.36090515E+00 0.20577862E+04</pdfrwt>
<pdfrwt beam="2">  1       -1 0.69425771E-01 0.20577862E+04</pdfrwt>
<totfact> 0.94310415E+00</totfact>
</mgrwt>
</event>
<event>
12    7  0.1675873E-007  0.1722700E+04  0.7818608E-02  0.8748522E-01
          2   -1    0    0  501    0  0.00000000000E+00  0.00000000000E+00  0.74185371935E+03  0.74185371935E+03  0.00000000000E+00 0. -1.
         -1   -1    0    0    0  501 -0.00000000000E+00 -0.00000000000E+00 -0.10000948470E+04  0.10000948470E+04  0.00000000000E+00 0.  1.
         24    2    1    2    0    0 -0.18443383610E+03 -0.59083693616E+03 -0.99443642529E+01  0.62412709041E+03  0.79571411762E+02 0.  0.
        254    2    1    2    0    0  0.18443383610E+03  0.59083693616E+03 -0.24829676339E+03  0.11178214759E+04  0.89708942940E+03 0.  0.
         23    2    4    4    0    0  0.19607481088E+03  0.57061624816E+03  0.21322289417E+03  0.64666292600E+03  0.93062898802E+02 0.  0.
         23    2    4    4    0    0 -0.11640974779E+02  0.20220687999E+02 -0.46151965757E+03  0.47115854995E+03  0.91899925738E+02 0.  0.
          4    1    3    3  502    0 -0.12472302774E+03 -0.42112174108E+03  0.28594275543E+02  0.44013291976E+03  0.00000000000E+00 0. -1.
         -3    1    3    3    0  502 -0.59710808368E+02 -0.16971519507E+03 -0.38538639796E+02  0.18399417065E+03  0.00000000000E+00 0.  1.
         13    1    5    5    0    0  0.18951660508E+03  0.54685224303E+03  0.18163352840E+03  0.60659266229E+03  0.00000000000E+00 0. -1.
        -13    1    5    5    0    0  0.65582058021E+01  0.23764005126E+02  0.31589365778E+02  0.40070263703E+02  0.00000000000E+00 0.  1.
          1    1    6    6  503    0  0.20016217654E+02  0.45436827095E+02 -0.32484165886E+03  0.32861414692E+03  0.00000000000E+00 0. -1.
         -1    1    6    6    0  503 -0.31657192433E+02 -0.25216139096E+02 -0.13667799871E+03  0.14254440303E+03  0.00000000000E+00 0.  1.
<mgrwt>
<rscale>  0 0.17227003E+04</rscale>
<asrwt>0</asrwt>
<pdfrwt beam="1">  1        2 0.11413134E+00 0.17227003E+04</pdfrwt>
<pdfrwt beam="2">  1       -1 0.15386075E+00 0.17227003E+04</pdfrwt>
<totfact> 0.13433081E+01</totfact>
</mgrwt>
</event>
<event>
12    7  0.1675873E-007  0.1893900E+04  0.7818608E-02  0.8657898E-01
         -1   -1    0    0    0  501 -0.00000000000E+00  0.00000000000E+00  0.50674474126E+03  0.50674474126E+03  0.00000000000E+00 0.  1.
          2   -1    0    0  501    0  0.00000000000E+00 -0.00000000000E+00 -0.17695591006E+04  0.17695591006E+04  0.00000000000E+00 0. -1.
         24    2    1    2    0    0  0.11402022663E+03  0.46904478607E+03 -0.10888087057E+04  0.11937853316E+04  0.81335090652E+02 0.  0.
        254    2    1    2    0    0 -0.11402022663E+03 -0.46904478607E+03 -0.17400565362E+03  0.10825185102E+04  0.95318662079E+03 0.  0.
         23    2    4    4    0    0  0.40152533071E+03 -0.13311335609E+03 -0.15333084778E+03  0.45913293537E+03  0.91383514287E+02 0.  0.
         23    2    4    4    0    0 -0.51554555734E+03 -0.33593142998E+03 -0.20674805846E+02  0.62338557485E+03  0.97698413468E+02 0.  0.
          2    1    3    3  502    0  0.10774260201E+03  0.39343384637E+03 -0.97621466075E+03  0.10580140470E+04  0.00000000000E+00 0. -1.
         -1    1    3    3    0  502  0.62776246157E+01  0.75610939699E+02 -0.11259404492E+03  0.13577128461E+03  0.00000000000E+00 0.  1.
         13    1    5    5    0    0  0.19241526320E+02  0.98959662796E+01  0.34293066391E+01  0.21907227752E+02  0.00000000000E+00 0. -1.
        -13    1    5    5    0    0  0.38228380439E+03 -0.14300932237E+03 -0.15676015442E+03  0.43722570762E+03  0.00000000000E+00 0.  1.
          1    1    6    6  503    0 -0.71622745707E+01  0.67228405291E+01  0.13257724656E+01  0.99122366011E+01  0.00000000000E+00 0. -1.
         -1    1    6    6    0  503 -0.50838328277E+03 -0.34265427051E+03 -0.22000578311E+02  0.61347333825E+03  0.00000000000E+00 0.  1.
<mgrwt>
<rscale>  0 0.18939005E+04</rscale>
<asrwt>0</asrwt>
<pdfrwt beam="1">  1        2 0.27223987E+00 0.18939005E+04</pdfrwt>
<pdfrwt beam="2">  1       -1 0.77960728E-01 0.18939005E+04</pdfrwt>
<totfact> 0.15776390E+01</totfact>
</mgrwt>
</event>
<event>
12    7  0.1675873E-007  0.1593303E+04  0.7818608E-02  0.8824673E-01
          2   -1    0    0  501    0  0.00000000000E+00  0.00000000000E+00  0.38438510331E+03  0.38438510331E+03  0.00000000000E+00 0. -1.
         -1   -1    0    0    0  501 -0.00000000000E+00 -0.00000000000E+00 -0.16510879033E+04  0.16510879033E+04  0.00000000000E+00 0.  1.
         24    2    1    2    0    0 -0.28610779000E+03 -0.19202509249E+03 -0.67386580382E+03  0.76113805872E+03  0.80651839624E+02 0.  0.
        254    2    1    2    0    0  0.28610779000E+03  0.19202509249E+03 -0.59283699615E+03  0.12743349479E+04  0.10741240858E+04 0.  0.
         23    2    4    4    0    0 -0.71523088113E+02  0.47389691805E+03  0.39495577673E+02  0.48976253554E+03  0.92809479522E+02 0.  0.
         23    2    4    4    0    0  0.35763087811E+03 -0.28187182556E+03 -0.63233257382E+03  0.78457241232E+03  0.91421087521E+02 0.  0.
          4    1    3    3  502    0 -0.72714822624E+01 -0.92837593919E+01 -0.73313574366E+02  0.74255927906E+02  0.00000000000E+00 0. -1.
         -3    1    3    3    0  502 -0.27883630773E+03 -0.18274133310E+03 -0.60055222945E+03  0.68688213081E+03  0.00000000000E+00 0.  1.
         13    1    5    5    0    0 -0.72998351359E+02  0.44596418792E+03  0.14313981745E+02  0.45212576379E+03  0.00000000000E+00 0. -1.
        -13    1    5    5    0    0  0.14752632453E+01  0.27932730131E+02  0.25181595928E+02  0.37636771749E+02  0.00000000000E+00 0.  1.
          1    1    6    6  503    0  0.16226707245E+03 -0.15176201552E+03 -0.23736903796E+03  0.32512516412E+03  0.00000000000E+00 0. -1.
         -1    1    6    6    0  503  0.19536380565E+03 -0.13010981003E+03 -0.39496353586E+03  0.45944724820E+03  0.00000000000E+00 0.  1.
<mgrwt>
<rscale>  0 0.15933030E+04</rscale>
<asrwt>0</asrwt>
<pdfrwt beam="1">  1        2 0.59136169E-01 0.15933030E+04</pdfrwt>
<pdfrwt beam="2">  1       -1 0.25401352E+00 0.15933030E+04</pdfrwt>
<totfact> 0.59948400E+00</totfact>
</mgrwt>
</event>
<event>
12    7  0.1675873E-007  0.1831258E+04  0.7818608E-02  0.8689851E-01
         -1   -1    0    0    0  501 -0.00000000000E+00  0.00000000000E+00  0.98066566621E+03  0.98066566621E+03  0.00000000000E+00 0.  1.
          2   -1    0    0  501    0  0.00000000000E+00 -0.00000000000E+00 -0.85490537074E+03  0.85490537074E+03  0.00000000000E+00 0. -1.
         24    2    1    2    0    0 -0.62235813724E+03 -0.28277327587E+03 -0.52694711965E+02  0.69011260817E+03  0.78665766027E+02 0.  0.
        254    2    1    2    0    0  0.62235813724E+03  0.28277327587E+03  0.17845500744E+03  0.11454584288E+04  0.90163099207E+03 0.  0.
         23    2    4    4    0    0  0.11909038600E+03  0.31262651795E+03  0.44781943760E+03  0.56638085409E+03  0.91253292670E+02 0.  0.
         23    2    4    4    0    0  0.50326775124E+03 -0.29853242077E+02 -0.26936443017E+03  0.57907757470E+03  0.92757726214E+02 0.  0.
          2    1    3    3  502    0 -0.35504313970E+03 -0.13231002560E+03 -0.16134092699E+00  0.37889523612E+03  0.00000000000E+00 0. -1.
         -3    1    3    3    0  502 -0.26731499754E+03 -0.15046325027E+03 -0.52533371038E+02  0.31121737205E+03  0.00000000000E+00 0.  1.
         13    1    5    5    0    0  0.59822820315E+02  0.26165007804E+03  0.35445876937E+03  0.44461281173E+03  0.00000000000E+00 0.  1.
        -13    1    5    5    0    0  0.59267565687E+02  0.50976439908E+02  0.93360668236E+02  0.12176804237E+03  0.00000000000E+00 0. -1.
          4    1    6    6  503    0  0.10193122265E+03  0.75957938045E+01 -0.96239437074E+02  0.14039123720E+03  0.00000000000E+00 0. -1.
         -4    1    6    6    0  503  0.40133652859E+03 -0.37449035882E+02 -0.17312499310E+03  0.43868633749E+03  0.00000000000E+00 0.  1.
<mgrwt>
<rscale>  0 0.18312579E+04</rscale>
<asrwt>0</asrwt>
<pdfrwt beam="1">  1        2 0.13152390E+00 0.18312579E+04</pdfrwt>
<pdfrwt beam="2">  1       -1 0.15087164E+00 0.18312579E+04</pdfrwt>
<totfact> 0.11625266E+01</totfact>
</mgrwt>
</event>
<event>
12    7  0.1675873E-007  0.1571321E+04  0.7818608E-02  0.8838363E-01
          2   -1    0    0  501    0  0.00000000000E+00  0.00000000000E+00  0.31332842595E+04  0.31332842595E+04  0.00000000000E+00 0. -1.
         -1   -1    0    0    0  501 -0.00000000000E+00 -0.00000000000E+00 -0.19700161902E+03  0.19700161902E+03  0.00000000000E+00 0.  1.
         24    2    1    2    0    0  0.38093085313E+03  0.14469486546E+03  0.17321491421E+04  0.17814807758E+04  0.85370867766E+02 0.  0.
        254    2    1    2    0    0 -0.38093085313E+03 -0.14469486546E+03  0.12041334984E+04  0.15488051028E+04  0.88476824389E+03 0.  0.
         23    2    4    4    0    0 -0.46568707919E+03 -0.43883536387E+03  0.70645451197E+03  0.95757002644E+03  0.91768435424E+02 0.  0.
         23    2    4    4    0    0  0.84756226060E+02  0.29414049841E+03  0.49767898646E+03  0.59123507634E+03  0.90400726052E+02 0.  0.
          2    1    3    3  502    0  0.36581394710E+03  0.11885358984E+03  0.16436283681E+04  0.16880344286E+04  0.00000000000E+00 0. -1.
         -1    1    3    3    0  502  0.15116906031E+02  0.25841275617E+02  0.88520774037E+02  0.93446347225E+02  0.00000000000E+00 0.  1.
         13    1    5    5    0    0 -0.24353497562E+03 -0.23589446253E+03  0.44136856572E+03  0.55656238878E+03  0.00000000000E+00 0.  1.
        -13    1    5    5    0    0 -0.22215210357E+03 -0.20294090134E+03  0.26508594625E+03  0.40100763765E+03  0.00000000000E+00 0. -1.
          3    1    6    6  503    0  0.31946098569E+02  0.13449049655E+03  0.30891669782E+03  0.33843429652E+03  0.00000000000E+00 0. -1.
         -3    1    6    6    0  503  0.52810127491E+02  0.15965000187E+03  0.18876228864E+03  0.25280077981E+03  0.00000000000E+00 0.  1.
<mgrwt>
<rscale>  0 0.15713206E+04</rscale>
<asrwt>0</asrwt>
<pdfrwt beam="1">  1        2 0.48204370E+00 0.15713206E+04</pdfrwt>
<pdfrwt beam="2">  1       -1 0.30307944E-01 0.15713206E+04</pdfrwt>
<totfact> 0.15834231E+01</totfact>
</mgrwt>
</event>
<event>
12    7  0.1675873E-007  0.1789464E+04  0.7818608E-02  0.8711922E-01
         -1   -1    0    0    0  501 -0.00000000000E+00  0.00000000000E+00  0.66747212950E+03  0.66747212950E+03  0.00000000000E+00 0.  1.
          2   -1    0    0  501    0  0.00000000000E+00 -0.00000000000E+00 -0.11993696260E+04  0.11993696260E+04  0.00000000000E+00 0. -1.
         24    2    1    2    0    0 -0.43359419752E+03  0.25933095690E+03  0.24892800134E+03  0.56809859441E+03  0.74258937463E+02 0.  0.
        254    2    1    2    0    0  0.43359419752E+03 -0.25933095690E+03 -0.78082549784E+03  0.12987431611E+04  0.90652571231E+03 0.  0.
         23    2    4    4    0    0  0.25142815394E+03 -0.52996732861E+03 -0.75376931572E+03  0.95847607826E+03  0.80166859100E+02 0.  0.
         23    2    4    4    0    0  0.18216604359E+03  0.27063637171E+03 -0.27056182126E+02  0.34026708283E+03  0.92850080989E+02 0.  0.
          2    1    3    3  502    0 -0.20696422874E+02  0.30260596482E+02  0.62065953805E+01  0.37182891838E+02  0.00000000000E+00 0. -1.
         -1    1    3    3    0  502 -0.41289777465E+03  0.22907036042E+03  0.24272140596E+03  0.53091570258E+03  0.00000000000E+00 0.  1.
         13    1    5    5    0    0  0.15363750725E+03 -0.30472703487E+03 -0.49992797933E+03  0.60530243179E+03  0.00000000000E+00 0. -1.
        -13    1    5    5    0    0  0.97790646687E+02 -0.22524029374E+03 -0.25384133639E+03  0.35317364647E+03  0.00000000000E+00 0.  1.
          1    1    6    6  503    0  0.18056455750E+03  0.20557029204E+03 -0.14597585396E+02  0.27399962390E+03  0.00000000000E+00 0. -1.
         -1    1    6    6    0  503  0.16014860812E+01  0.65066079669E+02 -0.12458596730E+02  0.66267458934E+02  0.00000000000E+00 0.  1.
<mgrwt>
<rscale>  0 0.17894645E+04</rscale>
<asrwt>0</asrwt>
<pdfrwt beam="1">  1        2 0.18451840E+00 0.17894645E+04</pdfrwt>
<pdfrwt beam="2">  1       -1 0.10268802E+00 0.17894645E+04</pdfrwt>
<totfact> 0.18314103E+01</totfact>
</mgrwt>
</event>
<event>
12    7  0.1675873E-007  0.1747886E+04  0.7818608E-02  0.8734515E-01
          2   -1    0    0  501    0  0.00000000000E+00  0.00000000000E+00  0.13547371712E+04  0.13547371712E+04  0.00000000000E+00 0. -1.
         -1   -1    0    0    0  501 -0.00000000000E+00 -0.00000000000E+00 -0.56378206829E+03  0.56378206829E+03  0.00000000000E+00 0.  1.
         24    2    1    2    0    0 -0.41990892685E+03 -0.44891100966E+03  0.10588884856E+03  0.62936293551E+03  0.83908610382E+02 0.  0.
        254    2    1    2    0    0  0.41990892685E+03  0.44891100966E+03  0.68506625430E+03  0.12891563039E+04  0.90264256590E+03 0.  0.
         23    2    4    4    0    0  0.45621127439E+02  0.32033869913E+03 -0.14415532268E+03  0.36572282405E+03  0.90962945985E+02 0.  0.
         23    2    4    4    0    0  0.37428779942E+03  0.12857231052E+03  0.82922157698E+03  0.92343347989E+03  0.92188785814E+02 0.  0.
          2    1    3    3  502    0 -0.49823747146E+02 -0.54382906255E+02  0.41433599160E+02  0.84596982285E+02  0.00000000000E+00 0. -1.
         -1    1    3    3    0  502 -0.37008517971E+03 -0.39452810340E+03  0.64455249404E+02  0.54476595322E+03  0.00000000000E+00 0.  1.
         13    1    5    5    0    0  0.33441355106E+02  0.72410417548E+02 -0.71409395220E+02  0.10705556747E+03  0.00000000000E+00 0.  1.
        -13    1    5    5    0    0  0.12179772333E+02  0.24792828158E+03 -0.72745927462E+02  0.25866725658E+03  0.00000000000E+00 0. -1.
          4    1    6    6  503    0  0.31784825425E+03  0.12129586956E+03  0.76727584857E+03  0.83931664377E+03  0.00000000000E+00 0. -1.
         -4    1    6    6    0  503  0.56439545163E+02  0.72764409639E+01  0.61945728405E+02  0.84116836121E+02  0.00000000000E+00 0.  1.
<mgrwt>
<rscale>  0 0.17478862E+04</rscale>
<asrwt>0</asrwt>
<pdfrwt beam="1">  1        2 0.20842110E+00 0.17478862E+04</pdfrwt>
<pdfrwt beam="2">  1       -1 0.86735703E-01 0.17478862E+04</pdfrwt>
<totfact> 0.21751814E+01</totfact>
</mgrwt>
</event>
<event>
12    7  0.1675873E-007  0.1616348E+04  0.7818608E-02  0.8810568E-01
         -1   -1    0    0    0  501 -0.00000000000E+00  0.00000000000E+00  0.34753913657E+03  0.34753913657E+03  0.00000000000E+00 0.  1.
          2   -1    0    0  501    0  0.00000000000E+00 -0.00000000000E+00 -0.18793419027E+04  0.18793419027E+04  0.00000000000E+00 0. -1.
         24    2    1    2    0    0 -0.22269100310E+03  0.22548016301E+03 -0.11561025068E+04  0.12012161613E+04  0.76906913348E+02 0.  0.
        254    2    1    2    0    0  0.22269100310E+03 -0.22548016301E+03 -0.37570025939E+03  0.10256648780E+04  0.90022506643E+03 0.  0.
         23    2    4    4    0    0 -0.17768148412E+03 -0.30838108409E+03 -0.47032584958E+03  0.59620172418E+03  0.87065999742E+02 0.  0.
         23    2    4    4    0    0  0.40037248722E+03  0.82900921078E+02  0.94625590191E+02  0.42946315379E+03  0.91180627909E+02 0.  0.
          2    1    3    3  502    0 -0.21689997693E+03  0.19049590774E+03 -0.98262020453E+03  0.10241468436E+04  0.00000000000E+00 0. -1.
         -1    1    3    3    0  502 -0.57910261669E+01  0.34984255267E+02 -0.17348230223E+03  0.17706931775E+03  0.00000000000E+00 0.  1.
         13    1    5    5    0    0 -0.60610001290E+02 -0.11657707630E+03 -0.10908292738E+03  0.17077140282E+03  0.00000000000E+00 0. -1.
        -13    1    5    5    0    0 -0.11707148283E+03 -0.19180400779E+03 -0.36124292220E+03  0.42543032136E+03  0.00000000000E+00 0.  1.
          1    1    6    6  503    0  0.19589354304E+03  0.80860470441E+02  0.24757046313E+02  0.21336730590E+03  0.00000000000E+00 0. -1.
         -1    1    6    6    0  503  0.20447894418E+03  0.20404506365E+01  0.69868543878E+02  0.21609584789E+03  0.00000000000E+00 0.  1.
<mgrwt>
<rscale>  0 0.16163476E+04</rscale>
<asrwt>0</asrwt>
<pdfrwt beam="1">  1        2 0.28912952E+00 0.16163476E+04</pdfrwt>
<pdfrwt beam="2">  1       -1 0.53467560E-01 0.16163476E+04</pdfrwt>
<totfact> 0.30019083E+01</totfact>
</mgrwt>
</event>
<event>
12    7  0.1675873E-007  0.1574685E+04  0.7818608E-02  0.8836252E-01
         -1   -1    0    0    0  501 -0.00000000000E+00  0.00000000000E+00  0.45154278324E+03  0.45154278324E+03  0.00000000000E+00 0.  1.
          2   -1    0    0  501    0  0.00000000000E+00 -0.00000000000E+00 -0.13728678762E+04  0.13728678762E+04  0.00000000000E+00 0. -1.
         24    2    1    2    0    0  0.47816832029E+03 -0.23557763287E+03 -0.26020908178E+03  0.59882035004E+03  0.82068762297E+02 0.  0.
        254    2    1    2    0    0 -0.47816832029E+03  0.23557763287E+03 -0.66111601114E+03  0.12255903094E+04  0.88366026421E+03 0.  0.
         23    2    4    4    0    0  0.21049424081E+03 -0.53168195563E+02 -0.14863491065E+02  0.23407181679E+03  0.86220702957E+02 0.  0.
         23    2    4    4    0    0 -0.68866256110E+03  0.28874582844E+03 -0.64625252008E+03  0.99151849256E+03  0.88523018909E+02 0.  0.
          4    1    3    3  502    0  0.36713375603E+03 -0.17106626588E+03 -0.15824461053E+03  0.43484735126E+03  0.00000000000E+00 0. -1.
         -3    1    3    3    0  502  0.11103456427E+03 -0.64511366992E+02 -0.10196447125E+03  0.16397299878E+03  0.00000000000E+00 0.  1.
         13    1    5    5    0    0  0.25281579203E+02 -0.40673888395E+02 -0.54471947364E+01  0.48199537079E+02  0.00000000000E+00 0.  1.
        -13    1    5    5    0    0  0.18521266160E+03 -0.12494307169E+02 -0.94162963289E+01  0.18587227972E+03  0.00000000000E+00 0. -1.
          1    1    6    6  503    0 -0.52604977137E+03  0.25268581560E+03 -0.53058373787E+03  0.78873163133E+03  0.00000000000E+00 0. -1.
         -1    1    6    6    0  503 -0.16261278974E+03  0.36060012831E+02 -0.11566878220E+03  0.20278686123E+03  0.00000000000E+00 0.  1.
<mgrwt>
<rscale>  0 0.15746855E+04</rscale>
<asrwt>0</asrwt>
<pdfrwt beam="1">  1        2 0.21121044E+00 0.15746855E+04</pdfrwt>
<pdfrwt beam="2">  1       -1 0.69468121E-01 0.15746855E+04</pdfrwt>
<totfact> 0.34425640E+01</totfact>
</mgrwt>
</event>
<event>
12    7  0.1675873E-007  0.1756197E+04  0.7818608E-02  0.8729947E-01
         -1   -1    0    0    0  501 -0.00000000000E+00  0.00000000000E+00  0.55628947773E+03  0.55628947773E+03  0.00000000000E+00 0.  1.
          2   -1    0    0  501    0  0.00000000000E+00 -0.00000000000E+00 -0.13860716199E+04  0.13860716199E+04  0.00000000000E+00 0. -1.
         24    2    1    2    0    0  0.18260491166E+02 -0.56109804919E+03  0.39895698077E+02  0.56926631152E+03  0.85486843246E+02 0.  0.
        254    2    1    2    0    0 -0.18260491166E+02  0.56109804919E+03 -0.86967784025E+03  0.13730947861E+04  0.90215590641E+03 0.  0.
         23    2    4    4    0    0  0.26468127339E+03 -0.12218146746E+03 -0.35031758451E+03  0.46472614947E+03  0.90903776109E+02 0.  0.
         23    2    4    4    0    0 -0.28294176456E+03  0.68327951664E+03 -0.51936025574E+03  0.90836863663E+03  0.92041103761E+02 0.  0.
          4    1    3    3  502    0  0.74210341070E+01 -0.37778570757E+03 -0.13272480070E+02  0.37809161762E+03  0.00000000000E+00 0. -1.
         -3    1    3    3    0  502  0.10839457059E+02 -0.18331234162E+03  0.53168178147E+02  0.19117469389E+03  0.00000000000E+00 0.  1.
         13    1    5    5    0    0  0.18502080216E+03 -0.90878583302E+02 -0.17812034660E+03  0.27243067376E+03  0.00000000000E+00 0. -1.
        -13    1    5    5    0    0  0.79660471234E+02 -0.31302884157E+02 -0.17219723792E+03  0.19229547571E+03  0.00000000000E+00 0.  1.
          2    1    6    6  503    0 -0.21933604933E+03  0.43091195566E+03 -0.36451689037E+03  0.60552950336E+03  0.00000000000E+00 0. -1.
         -2    1    6    6    0  503 -0.63605715227E+02  0.25236756098E+03 -0.15484336536E+03  0.30283913328E+03  0.00000000000E+00 0.  1.
<mgrwt>
<rscale>  0 0.17561971E+04</rscale>
<asrwt>0</asrwt>
<pdfrwt beam="1">  1        2 0.21324179E+00 0.17561971E+04</pdfrwt>
<pdfrwt beam="2">  1       -1 0.85582997E-01 0.17561971E+04</pdfrwt>
<totfact> 0.21468278E+01</totfact>
</mgrwt>
</event>
<event>
12    7  0.1675873E-007  0.2502488E+04  0.7818608E-02  0.8402100E-01
         -1   -1    0    0    0  501 -0.00000000000E+00  0.00000000000E+00  0.11061023286E+04  0.11061023286E+04  0.00000000000E+00 0.  1.
          2   -1    0    0  501    0  0.00000000000E+00 -0.00000000000E+00 -0.14154313958E+04  0.14154313958E+04  0.00000000000E+00 0. -1.
         24    2    1    2    0    0  0.47978679179E+03  0.13260890735E+03  0.84246380866E+03  0.98182977793E+03  0.80398731609E+02 0.  0.
        254    2    1    2    0    0 -0.47978679179E+03 -0.13260890735E+03 -0.11517928759E+04  0.15397039466E+04  0.89234574366E+03 0.  0.
         23    2    4    4    0    0 -0.72325700292E+03 -0.55462013722E+02 -0.69771189911E+03  0.10105470819E+04  0.90701616501E+02 0.  0.
         23    2    4    4    0    0  0.24347021113E+03 -0.77146893623E+02 -0.45408097676E+03  0.52915686470E+03  0.92671824731E+02 0.  0.
          4    1    3    3  502    0  0.25462930651E+03  0.89243722100E+02  0.38521519958E+03  0.47030976564E+03  0.00000000000E+00 0. -1.
         -3    1    3    3    0  502  0.22515748529E+03  0.43365185245E+02  0.45724860908E+03  0.51152001229E+03  0.00000000000E+00 0.  1.
         13    1    5    5    0    0 -0.57057833619E+03 -0.72619992656E+02 -0.58147480315E+03  0.81789134228E+03  0.00000000000E+00 0. -1.
        -13    1    5    5    0    0 -0.15267866673E+03  0.17157978934E+02 -0.11623709596E+03  0.19265573958E+03  0.00000000000E+00 0.  1.
          3    1    6    6  503    0  0.13125548685E+03 -0.38419261785E+02 -0.15137315763E+03  0.20400459641E+03  0.00000000000E+00 0. -1.
         -3    1    6    6    0  503  0.11221472428E+03 -0.38727631838E+02 -0.30270781913E+03  0.32515226829E+03  0.00000000000E+00 0.  1.
<mgrwt>
<rscale>  0 0.25024883E+04</rscale>
<asrwt>0</asrwt>
<pdfrwt beam="1">  1        2 0.21775868E+00 0.25024883E+04</pdfrwt>
<pdfrwt beam="2">  1       -1 0.17016959E+00 0.25024883E+04</pdfrwt>
<totfact> 0.35341836E+00</totfact>
</mgrwt>
</event>
<event>
12    7  0.1675873E-007  0.2017556E+04  0.7818608E-02  0.8598456E-01
          2   -1    0    0  501    0  0.00000000000E+00  0.00000000000E+00  0.75900949682E+03  0.75900949682E+03  0.00000000000E+00 0. -1.
         -1   -1    0    0    0  501 -0.00000000000E+00 -0.00000000000E+00 -0.13407387412E+04  0.13407387412E+04  0.00000000000E+00 0.  1.
         24    2    1    2    0    0 -0.50703772034E+03  0.60304281389E+03 -0.44199693492E+03  0.90667165568E+03  0.77099387134E+02 0.  0.
        254    2    1    2    0    0  0.50703772034E+03 -0.60304281389E+03 -0.13973230945E+03  0.11930765823E+04  0.88496255728E+03 0.  0.
         23    2    4    4    0    0 -0.18880270790E+03 -0.18283349878E+03  0.16062995843E+03  0.32166605224E+03  0.92695818866E+02 0.  0.
         23    2    4    4    0    0  0.69584042824E+03 -0.42020931510E+03 -0.30036226788E+03  0.87141053009E+03  0.91482511553E+02 0.  0.
          2    1    3    3  502    0 -0.81958387111E+02  0.14391067977E+03 -0.81943547239E+02  0.18477609668E+03  0.00000000000E+00 0. -1.
         -1    1    3    3    0  502 -0.42507933323E+03  0.45913213412E+03 -0.36005338768E+03  0.72189555900E+03  0.00000000000E+00 0.  1.
         13    1    5    5    0    0 -0.19247383575E+03 -0.18223367515E+03  0.16771659140E+03  0.31366246960E+03  0.00000000000E+00 0.  1.
        -13    1    5    5    0    0  0.36711278550E+01 -0.59982363766E+00 -0.70866329767E+01  0.80035826397E+01  0.00000000000E+00 0. -1.
          3    1    6    6  503    0  0.50589821769E+03 -0.34525094760E+03 -0.20348339678E+03  0.64539655736E+03  0.00000000000E+00 0. -1.
         -3    1    6    6    0  503  0.18994221055E+03 -0.74958367500E+02 -0.96878871102E+02  0.22601397273E+03  0.00000000000E+00 0.  1.
<mgrwt>
<rscale>  0 0.20175564E+04</rscale>
<asrwt>0</asrwt>
<pdfrwt beam="1">  1        2 0.11677069E+00 0.20175564E+04</pdfrwt>
<pdfrwt beam="2">  1       -1 0.20626750E+00 0.20175564E+04</pdfrwt>
<totfact> 0.53283130E+00</totfact>
</mgrwt>
</event>
<event>
12    7  0.1675873E-007  0.2150685E+04  0.7818608E-02  0.8539239E-01
         -3   -1    0    0    0  501 -0.00000000000E+00  0.00000000000E+00  0.41729150398E+03  0.41729150398E+03  0.00000000000E+00 0.  1.
          4   -1    0    0  501    0  0.00000000000E+00 -0.00000000000E+00 -0.27711132590E+04  0.27711132590E+04  0.00000000000E+00 0. -1.
         24    2    1    2    0    0 -0.77121046702E+03 -0.49398085720E+02 -0.32975353978E+03  0.84369188095E+03  0.76634441886E+02 0.  0.
        254    2    1    2    0    0  0.77121046702E+03  0.49398085720E+02 -0.20240682152E+04  0.23447128820E+04  0.89644888525E+03 0.  0.
         23    2    4    4    0    0 -0.37395686256E+02  0.28113451514E+03 -0.30756108650E+03  0.43074322476E+03  0.10252244041E+03 0.  0.
         23    2    4    4    0    0  0.80860615327E+03 -0.23173642942E+03 -0.17165071287E+04  0.19139696573E+04  0.96630440878E+02 0.  0.
          4    1    3    3  502    0 -0.18525414400E+03 -0.15644959240E+02 -0.11555891486E+03  0.21890117730E+03  0.00000000000E+00 0. -1.
         -3    1    3    3    0  502 -0.58595632302E+03 -0.33753126480E+02 -0.21419462491E+03  0.62479070366E+03  0.00000000000E+00 0.  1.
         13    1    5    5    0    0 -0.95756240517E+01  0.26086491128E+03 -0.23853855364E+03  0.35361396478E+03  0.00000000000E+00 0. -1.
        -13    1    5    5    0    0 -0.27820062204E+02  0.20269603857E+02 -0.69022532864E+02  0.77129259976E+02  0.00000000000E+00 0.  1.
          3    1    6    6  503    0  0.42744198664E+03 -0.11393206318E+03 -0.79450535579E+03  0.90935467632E+03  0.00000000000E+00 0. -1.
         -3    1    6    6    0  503  0.38116416663E+03 -0.11780436624E+03 -0.92200177294E+03  0.10046149809E+04  0.00000000000E+00 0.  1.
<mgrwt>
<rscale>  0 0.21506855E+04</rscale>
<asrwt>0</asrwt>
<pdfrwt beam="1">  1        4 0.42632512E+00 0.21506855E+04</pdfrwt>
<pdfrwt beam="2">  1       -3 0.64198693E-01 0.21506855E+04</pdfrwt>
<totfact> 0.21848366E-02</totfact>
</mgrwt>
</event>
<event>
12    7  0.1675873E-007  0.1962961E+04  0.7818608E-02  0.8624136E-01
         -1   -1    0    0    0  501 -0.00000000000E+00  0.00000000000E+00  0.52726409588E+03  0.52726409588E+03  0.00000000000E+00 0.  1.
          2   -1    0    0  501    0  0.00000000000E+00 -0.00000000000E+00 -0.18269852742E+04  0.18269852742E+04  0.00000000000E+00 0. -1.
         24    2    1    2    0    0  0.43523326169E+02 -0.18572125625E+03 -0.14086416697E+04  0.14239456783E+04  0.83446248441E+02 0.  0.
        254    2    1    2    0    0 -0.43523326169E+02  0.18572125625E+03  0.10892049133E+03  0.93030369177E+03  0.90399923702E+03 0.  0.
         23    2    4    4    0    0 -0.44959931779E+03  0.17348367514E+03 -0.30084721099E+02  0.49137754561E+03  0.91162875073E+02 0.  0.
         23    2    4    4    0    0  0.40607599162E+03  0.12237581108E+02  0.13900521242E+03  0.43892614616E+03  0.91028805000E+02 0.  0.
          4    1    3    3  502    0  0.18416161953E+02 -0.30368979886E+02 -0.53982103297E+03  0.54098814922E+03  0.00000000000E+00 0. -1.
         -3    1    3    3    0  502  0.25107164216E+02 -0.15535227637E+03 -0.86882063668E+03  0.88295752910E+03  0.00000000000E+00 0.  1.
         13    1    5    5    0    0 -0.23821449768E+03  0.10349473104E+03  0.28071801090E+02  0.26123807585E+03  0.00000000000E+00 0.  1.
        -13    1    5    5    0    0 -0.21138482011E+03  0.69988944106E+02 -0.58156522189E+02  0.23013946976E+03  0.00000000000E+00 0. -1.
          1    1    6    6  503    0  0.60852548787E+02  0.54090349746E+01  0.58045725547E+02  0.84270971322E+02  0.00000000000E+00 0. -1.
         -1    1    6    6    0  503  0.34522344283E+03  0.68285461335E+01  0.80959486877E+02  0.35465517484E+03  0.00000000000E+00 0.  1.
<mgrwt>
<rscale>  0 0.19629608E+04</rscale>
<asrwt>0</asrwt>
<pdfrwt beam="1">  1        2 0.28107465E+00 0.19629608E+04</pdfrwt>
<pdfrwt beam="2">  1       -1 0.81117555E-01 0.19629608E+04</pdfrwt>
<totfact> 0.13395238E+01</totfact>
</mgrwt>
</event>
<event>
12    7  0.1675873E-007  0.1886217E+04  0.7818608E-02  0.8661747E-01
          2   -1    0    0  501    0  0.00000000000E+00  0.00000000000E+00  0.98810079665E+03  0.98810079665E+03  0.00000000000E+00 0. -1.
         -1   -1    0    0    0  501 -0.00000000000E+00 -0.00000000000E+00 -0.90016525743E+03  0.90016525743E+03  0.00000000000E+00 0.  1.
         24    2    1    2    0    0 -0.57701360088E+03  0.11858828107E+03 -0.39014070450E+03  0.71193381618E+03  0.87361967165E+02 0.  0.
        254    2    1    2    0    0  0.57701360088E+03 -0.11858828107E+03  0.47807624372E+03  0.11763322379E+04  0.89899541883E+03 0.  0.
         23    2    4    4    0    0  0.40565681859E+02 -0.23547369014E+03  0.55816365248E+03  0.61416700357E+03  0.92525737143E+02 0.  0.
         23    2    4    4    0    0  0.53644791902E+03  0.11688540907E+03 -0.80087408760E+02  0.56216523432E+03  0.90427810720E+02 0.  0.
          2    1    3    3  502    0 -0.19935258649E+03  0.83516939559E+02 -0.14760695560E+03  0.26173334956E+03  0.00000000000E+00 0. -1.
         -1    1    3    3    0  502 -0.37766101439E+03  0.35071341516E+02 -0.24253374890E+03  0.45020046662E+03  0.00000000000E+00 0.  1.
         13    1    5    5    0    0  0.14288544902E+02 -0.17526626870E+03  0.29964819838E+03  0.34743556273E+03  0.00000000000E+00 0. -1.
        -13    1    5    5    0    0  0.26277136956E+02 -0.60207421441E+02  0.25851545410E+03  0.26673144084E+03  0.00000000000E+00 0.  1.
          2    1    6    6  503    0  0.17296799979E+03  0.80662539765E+02 -0.18745818105E+02  0.19177012272E+03  0.00000000000E+00 0. -1.
         -2    1    6    6    0  503  0.36347991923E+03  0.36222869305E+02 -0.61341590655E+02  0.37039511159E+03  0.00000000000E+00 0.  1.
<mgrwt>
<rscale>  0 0.18862174E+04</rscale>
<asrwt>0</asrwt>
<pdfrwt beam="1">  1        2 0.15201551E+00 0.18862174E+04</pdfrwt>
<pdfrwt beam="2">  1       -1 0.13848696E+00 0.18862174E+04</pdfrwt>
<totfact> 0.11826899E+01</totfact>
</mgrwt>
</event>
<event>
12    7  0.1675873E-007  0.1320701E+04  0.7818608E-02  0.9013308E-01
         -1   -1    0    0    0  501 -0.00000000000E+00  0.00000000000E+00  0.35094524089E+03  0.35094524089E+03  0.00000000000E+00 0.  1.
          2   -1    0    0  501    0  0.00000000000E+00 -0.00000000000E+00 -0.12425388803E+04  0.12425388803E+04  0.00000000000E+00 0. -1.
         24    2    1    2    0    0  0.12524566396E+03 -0.62230326322E+02  0.12714213140E+03  0.20545544374E+03  0.80546433387E+02 0.  0.
        254    2    1    2    0    0 -0.12524566396E+03  0.62230326322E+02 -0.10187357709E+04  0.13880286775E+04  0.93233145868E+03 0.  0.
         23    2    4    4    0    0 -0.39510555864E+03 -0.15305964634E+03 -0.92127358722E+03  0.10180971350E+04  0.90780482344E+02 0.  0.
         23    2    4    4    0    0  0.26985989467E+03  0.21528997267E+03 -0.97462183636E+02  0.36993154249E+03  0.90423082258E+02 0.  0.
          2    1    3    3  502    0  0.79690109543E+02 -0.50540720907E+02  0.32559546058E+02  0.99824856966E+02  0.00000000000E+00 0. -1.
         -1    1    3    3    0  502  0.45555554421E+02 -0.11689605415E+02  0.94582585339E+02  0.10563058678E+03  0.00000000000E+00 0.  1.
         13    1    5    5    0    0 -0.10204161485E+02 -0.20310436602E+02 -0.84844776676E+02  0.87836637434E+02  0.00000000000E+00 0. -1.
        -13    1    5    5    0    0 -0.38490139715E+03 -0.13274920974E+03 -0.83642881055E+03  0.93026049757E+03  0.00000000000E+00 0.  1.
          1    1    6    6  503    0  0.52692646142E+02  0.21372356294E+02 -0.48419885864E+02  0.74684522614E+02  0.00000000000E+00 0. -1.
         -1    1    6    6    0  503  0.21716724853E+03  0.19391761637E+03 -0.49042297772E+02  0.29524701988E+03  0.00000000000E+00 0.  1.
<mgrwt>
<rscale>  0 0.13207015E+04</rscale>
<asrwt>0</asrwt>
<pdfrwt beam="1">  1        2 0.19115983E+00 0.13207015E+04</pdfrwt>
<pdfrwt beam="2">  1       -1 0.53991575E-01 0.13207015E+04</pdfrwt>
<totfact> 0.69038418E+01</totfact>
</mgrwt>
</event>
<event>
12    7  0.1675873E-007  0.1319505E+04  0.7818608E-02  0.9014239E-01
         -1   -1    0    0    0  501 -0.00000000000E+00  0.00000000000E+00  0.44793151511E+03  0.44793151511E+03  0.00000000000E+00 0.  1.
          2   -1    0    0  501    0  0.00000000000E+00 -0.00000000000E+00 -0.97174119355E+03  0.97174119355E+03  0.00000000000E+00 0. -1.
         24    2    1    2    0    0  0.10723981184E+03 -0.34589935248E+03 -0.21116826037E+03  0.42603996826E+03  0.75968948090E+02 0.  0.
        254    2    1    2    0    0 -0.10723981184E+03  0.34589935248E+03 -0.31264141807E+03  0.99363274041E+03  0.87087004038E+03 0.  0.
         23    2    4    4    0    0 -0.28918450826E+03  0.44180766931E+03  0.80425980811E+02  0.54056321642E+03  0.83177858100E+02 0.  0.
         23    2    4    4    0    0  0.18194469642E+03 -0.95908316827E+02 -0.39306739888E+03  0.45306952399E+03  0.92020300572E+02 0.  0.
          4    1    3    3  502    0  0.74052173231E+02 -0.29758191539E+03 -0.15020631778E+03  0.34146838599E+03  0.00000000000E+00 0. -1.
         -3    1    3    3    0  502  0.33187638606E+02 -0.48317437096E+02 -0.60961942592E+02  0.84571582274E+02  0.00000000000E+00 0.  1.
         13    1    5    5    0    0 -0.10379434305E+03  0.92852705535E+02  0.26338049284E+02  0.14173419988E+03  0.00000000000E+00 0. -1.
        -13    1    5    5    0    0 -0.18539016520E+03  0.34895496378E+03  0.54087931527E+02  0.39882901654E+03  0.00000000000E+00 0.  1.
          3    1    6    6  503    0  0.89777451661E+02 -0.19654550173E+02 -0.25129498859E+03  0.26757328615E+03  0.00000000000E+00 0. -1.
         -3    1    6    6    0  503  0.92167244758E+02 -0.76253766655E+02 -0.14177241029E+03  0.18549623784E+03  0.00000000000E+00 0.  1.
<mgrwt>
<rscale>  0 0.13195052E+04</rscale>
<asrwt>0</asrwt>
<pdfrwt beam="1">  1        2 0.14949865E+00 0.13195052E+04</pdfrwt>
<pdfrwt beam="2">  1       -1 0.68912541E-01 0.13195052E+04</pdfrwt>
<totfact> 0.62529267E+01</totfact>
</mgrwt>
</event>
<event>
12    7  0.1675873E-007  0.1748747E+04  0.7818608E-02  0.8734040E-01
         -1   -1    0    0    0  501 -0.00000000000E+00  0.00000000000E+00  0.87802851560E+03  0.87802851560E+03  0.00000000000E+00 0.  1.
          2   -1    0    0  501    0  0.00000000000E+00 -0.00000000000E+00 -0.87073406317E+03  0.87073406317E+03  0.00000000000E+00 0. -1.
         24    2    1    2    0    0  0.19687027194E+03  0.57490414852E+03  0.20093484735E+03  0.64484795359E+03  0.78621793474E+02 0.  0.
        254    2    1    2    0    0 -0.19687027194E+03 -0.57490414852E+03 -0.19364039492E+03  0.11039146252E+04  0.90103174926E+03 0.  0.
         23    2    4    4    0    0  0.23240473209E+03  0.84458685470E+02  0.62618083234E+02  0.27124652810E+03  0.92241127539E+02 0.  0.
         23    2    4    4    0    0 -0.42927500403E+03 -0.65936283399E+03 -0.25625847815E+03  0.83266809708E+03  0.92905200805E+02 0.  0.
          4    1    3    3  502    0  0.11348834781E+03  0.28383543638E+03  0.62883094704E+02  0.31208403297E+03  0.00000000000E+00 0. -1.
         -3    1    3    3    0  502  0.83381924125E+02  0.29106871213E+03  0.13805175264E+03  0.33276392061E+03  0.00000000000E+00 0.  1.
         13    1    5    5    0    0  0.73036485077E+01 -0.10811085772E+02 -0.97946149648E+01  0.16314329266E+02  0.00000000000E+00 0. -1.
        -13    1    5    5    0    0  0.22510108358E+03  0.95269771242E+02  0.72412698199E+02  0.25493219883E+03  0.00000000000E+00 0.  1.
          1    1    6    6  503    0 -0.25490108375E+03 -0.43463586202E+03 -0.20330095104E+03  0.54333614986E+03  0.00000000000E+00 0. -1.
         -1    1    6    6    0  503 -0.17437392028E+03 -0.22472697197E+03 -0.52957527116E+02  0.28933194722E+03  0.00000000000E+00 0.  1.
<mgrwt>
<rscale>  0 0.17487474E+04</rscale>
<asrwt>0</asrwt>
<pdfrwt beam="1">  1        2 0.13395909E+00 0.17487474E+04</pdfrwt>
<pdfrwt beam="2">  1       -1 0.13508131E+00 0.17487474E+04</pdfrwt>
<totfact> 0.15279665E+01</totfact>
</mgrwt>
</event>
<event>
12    7  0.1675873E-007  0.2110464E+04  0.7818608E-02  0.8556648E-01
         -1   -1    0    0    0  501 -0.00000000000E+00  0.00000000000E+00  0.31811005167E+03  0.31811005167E+03  0.00000000000E+00 0.  1.
          2   -1    0    0  501    0  0.00000000000E+00 -0.00000000000E+00 -0.35004081773E+04  0.35004081773E+04  0.00000000000E+00 0. -1.
         24    2    1    2    0    0  0.77915757756E+03  0.67361112588E+02 -0.16785934940E+04  0.18536145845E+04  0.81159468909E+02 0.  0.
        254    2    1    2    0    0 -0.77915757756E+03 -0.67361112588E+02 -0.15037046316E+04  0.19649036445E+04  0.99402950808E+03 0.  0.
         23    2    4    4    0    0 -0.46721518810E+03  0.25433725773E+03 -0.18641949899E+03  0.57054341179E+03  0.88261443863E+02 0.  0.
         23    2    4    4    0    0 -0.31194238947E+03 -0.32169837031E+03 -0.13172851327E+04  0.13943602328E+04  0.90567334995E+02 0.  0.
          2    1    3    3  502    0  0.19258644530E+03  0.94631105135E+01 -0.33725482219E+03  0.38848411095E+03  0.00000000000E+00 0. -1.
         -3    1    3    3    0  502  0.58657113227E+03  0.57898002074E+02 -0.13413386718E+04  0.14651304735E+04  0.00000000000E+00 0.  1.
         13    1    5    5    0    0 -0.49073380313E+01  0.19872237692E+02 -0.11395972741E+02  0.23427675774E+02  0.00000000000E+00 0. -1.
        -13    1    5    5    0    0 -0.46230785007E+03  0.23446502003E+03 -0.17502352625E+03  0.54711573601E+03  0.00000000000E+00 0.  1.
          4    1    6    6  503    0 -0.27961195348E+03 -0.26554254334E+03 -0.11990909387E+04  0.12595692780E+04  0.00000000000E+00 0.  1.
         -4    1    6    6    0  503 -0.32330435984E+02 -0.56155826973E+02 -0.11819419393E+03  0.13479095471E+03  0.00000000000E+00 0. -1.
<mgrwt>
<rscale>  0 0.21104644E+04</rscale>
<asrwt>0</asrwt>
<pdfrwt beam="1">  1        2 0.53852434E+00 0.21104644E+04</pdfrwt>
<pdfrwt beam="2">  1       -1 0.48940008E-01 0.21104644E+04</pdfrwt>
<totfact> 0.35750678E+00</totfact>
</mgrwt>
</event>
<event>
12    7  0.1675873E-007  0.1439245E+04  0.7818608E-02  0.8925891E-01
          2   -1    0    0  501    0  0.00000000000E+00  0.00000000000E+00  0.22968710405E+04  0.22968710405E+04  0.00000000000E+00 0. -1.
         -1   -1    0    0    0  501 -0.00000000000E+00 -0.00000000000E+00 -0.22546160131E+03  0.22546160131E+03  0.00000000000E+00 0.  1.
         24    2    1    2    0    0  0.19790685627E+03  0.30659116839E+03  0.10491254269E+04  0.11135889020E+04  0.79062084488E+02 0.  0.
        254    2    1    2    0    0 -0.19790685627E+03 -0.30659116839E+03  0.10222840124E+04  0.14087437398E+04  0.89795826971E+03 0.  0.
         23    2    4    4    0    0 -0.16022696533E+03  0.22801964958E+02  0.10482062869E+04  0.10646156599E+04  0.92073196203E+02 0.  0.
         23    2    4    4    0    0 -0.37679890940E+02 -0.32939313335E+03 -0.25922274531E+02  0.34412807985E+03  0.88501754477E+02 0.  0.
          2    1    3    3  502    0  0.13610999848E+03  0.16492382585E+03  0.69629868796E+03  0.72839389267E+03  0.00000000000E+00 0. -1.
         -1    1    3    3    0  502  0.61796857789E+02  0.14166734254E+03  0.35282673889E+03  0.38519500938E+03  0.00000000000E+00 0.  1.
         13    1    5    5    0    0 -0.41366133394E+02  0.49313755475E+02  0.37441351870E+03  0.37990589158E+03  0.00000000000E+00 0.  1.
        -13    1    5    5    0    0 -0.11886083193E+03 -0.26511790517E+02  0.67379276820E+03  0.68470976835E+03  0.00000000000E+00 0. -1.
          3    1    6    6  503    0  0.19432640676E+00 -0.20488342863E+03 -0.52042858532E+02  0.21138996243E+03  0.00000000000E+00 0. -1.
         -3    1    6    6    0  503 -0.37874217347E+02 -0.12450970472E+03  0.26120584001E+02  0.13273811742E+03  0.00000000000E+00 0.  1.
<mgrwt>
<rscale>  0 0.14392446E+04</rscale>
<asrwt>0</asrwt>
<pdfrwt beam="1">  1        2 0.35336476E+00 0.14392446E+04</pdfrwt>
<pdfrwt beam="2">  1       -1 0.34686402E-01 0.14392446E+04</pdfrwt>
<totfact> 0.39758372E+01</totfact>
</mgrwt>
</event>
<event>
12    7  0.1675873E-007  0.2152627E+04  0.7818608E-02  0.8538409E-01
         -1   -1    0    0    0  501 -0.00000000000E+00  0.00000000000E+00  0.12973883718E+04  0.12973883718E+04  0.00000000000E+00 0.  1.
          2   -1    0    0  501    0  0.00000000000E+00 -0.00000000000E+00 -0.89290945488E+03  0.89290945488E+03  0.00000000000E+00 0. -1.
         24    2    1    2    0    0 -0.61725302056E+03 -0.40705070213E+02 -0.47460872383E+03  0.78453045782E+03  0.87042543488E+02 0.  0.
        254    2    1    2    0    0  0.61725302056E+03  0.40705070213E+02  0.87908764074E+03  0.14057673688E+04  0.90594073816E+03 0.  0.
         23    2    4    4    0    0  0.56706937189E+03 -0.21949082988E+03  0.16251099502E+03  0.63621046040E+03  0.92790244552E+02 0.  0.
         23    2    4    4    0    0  0.50183648671E+02  0.26019590009E+03  0.71657664572E+03  0.76955690844E+03  0.92279147795E+02 0.  0.
          4    1    3    3  502    0 -0.36589272882E+03  0.17733114898E+02 -0.29040921769E+03  0.46747135322E+03  0.00000000000E+00 0. -1.
         -3    1    3    3    0  502 -0.25136029174E+03 -0.58438185111E+02 -0.18419950614E+03  0.31705910459E+03  0.00000000000E+00 0.  1.
         13    1    5    5    0    0  0.48733591135E+02  0.65471554055E+01  0.19755329468E+02  0.52991519993E+02  0.00000000000E+00 0.  1.
        -13    1    5    5    0    0  0.51833578075E+03 -0.22603798529E+03  0.14275566555E+03  0.58321894041E+03  0.00000000000E+00 0. -1.
          3    1    6    6  503    0  0.21088643585E+02  0.38381995770E+02  0.22840749349E+03  0.23256803643E+03  0.00000000000E+00 0. -1.
         -3    1    6    6    0  503  0.29095005086E+02  0.22181390432E+03  0.48816915223E+03  0.53698887201E+03  0.00000000000E+00 0.  1.
<mgrwt>
<rscale>  0 0.21526266E+04</rscale>
<asrwt>0</asrwt>
<pdfrwt beam="1">  1        2 0.13737069E+00 0.21526266E+04</pdfrwt>
<pdfrwt beam="2">  1       -1 0.19959821E+00 0.21526266E+04</pdfrwt>
<totfact> 0.47006262E+00</totfact>
</mgrwt>
</event>
<event>
12    7  0.1675873E-007  0.1599269E+04  0.7818608E-02  0.8820997E-01
         -1   -1    0    0    0  501 -0.00000000000E+00  0.00000000000E+00  0.10211332021E+04  0.10211332021E+04  0.00000000000E+00 0.  1.
          2   -1    0    0  501    0  0.00000000000E+00 -0.00000000000E+00 -0.62618186209E+03  0.62618186209E+03  0.00000000000E+00 0. -1.
         24    2    1    2    0    0 -0.43734213546E+03  0.25612030977E+03  0.31165255921E+03  0.60095418130E+03  0.84574546037E+02 0.  0.
        254    2    1    2    0    0  0.43734213546E+03 -0.25612030977E+03  0.83298780846E+02  0.10463608829E+04  0.91162857234E+03 0.  0.
         23    2    4    4    0    0  0.57227107056E+03 -0.35516882399E+03 -0.19660302811E+03  0.70777347027E+03  0.93013240067E+02 0.  0.
         23    2    4    4    0    0 -0.13492893510E+03  0.99048514222E+02  0.27990180895E+03  0.33858741266E+03  0.90994437528E+02 0.  0.
          4    1    3    3  502    0 -0.33614606701E+03  0.22620938507E+03  0.27305039080E+03  0.48859121991E+03  0.00000000000E+00 0. -1.
         -3    1    3    3    0  502 -0.10119606845E+03  0.29910924702E+02  0.38602168408E+02  0.11236296139E+03  0.00000000000E+00 0.  1.
         13    1    5    5    0    0  0.48348083839E+02 -0.64529180350E+02 -0.18560967751E+02  0.82740932140E+02  0.00000000000E+00 0.  1.
        -13    1    5    5    0    0  0.52392298672E+03 -0.29063964364E+03 -0.17804206035E+03  0.62503253813E+03  0.00000000000E+00 0. -1.
          1    1    6    6  503    0 -0.72592811945E+02 -0.65119376488E+00  0.11674502793E+03  0.13747560491E+03  0.00000000000E+00 0. -1.
         -1    1    6    6    0  503 -0.62336123152E+02  0.99699707986E+02  0.16315678102E+03  0.20111180775E+03  0.00000000000E+00 0.  1.
<mgrwt>
<rscale>  0 0.15992687E+04</rscale>
<asrwt>0</asrwt>
<pdfrwt beam="1">  1        2 0.96335671E-01 0.15992687E+04</pdfrwt>
<pdfrwt beam="2">  1       -1 0.15709742E+00 0.15992687E+04</pdfrwt>
<totfact> 0.15861239E+01</totfact>
</mgrwt>
</event>
<event>
12    7  0.1675873E-007  0.1778490E+04  0.7818608E-02  0.8717822E-01
         -1   -1    0    0    0  501 -0.00000000000E+00  0.00000000000E+00  0.24757497025E+03  0.24757497025E+03  0.00000000000E+00 0.  1.
          2   -1    0    0  501    0  0.00000000000E+00 -0.00000000000E+00 -0.31940100467E+04  0.31940100467E+04  0.00000000000E+00 0. -1.
         24    2    1    2    0    0  0.41914503762E+03  0.12855043757E+03 -0.14861776456E+03  0.46925289674E+03  0.76832698764E+02 0.  0.
        254    2    1    2    0    0 -0.41914503762E+03 -0.12855043757E+03 -0.27978173119E+04  0.29723321202E+04  0.90264541464E+03 0.  0.
         23    2    4    4    0    0 -0.44676889258E+03  0.29892543273E+03 -0.18497604364E+04  0.19285573380E+04  0.93599552963E+02 0.  0.
         23    2    4    4    0    0  0.27623854961E+02 -0.42747587030E+03 -0.94805687553E+03  0.10437747822E+04  0.84588768102E+02 0.  0.
          4    1    3    3  502    0  0.17178322814E+03  0.89577094421E+02 -0.49688536825E+02  0.20000620992E+03  0.00000000000E+00 0. -1.
         -3    1    3    3    0  502  0.24736180948E+03  0.38973343150E+02 -0.98929227732E+02  0.26924668682E+03  0.00000000000E+00 0.  1.
         13    1    5    5    0    0 -0.17577626895E+03  0.16329392624E+03 -0.72366760250E+03  0.76240212617E+03  0.00000000000E+00 0.  1.
        -13    1    5    5    0    0 -0.27099262363E+03  0.13563150649E+03 -0.11260928339E+04  0.11661552118E+04  0.00000000000E+00 0. -1.
          1    1    6    6  503    0  0.11409493023E+01 -0.27904304635E+03 -0.52329840788E+03  0.59304936318E+03  0.00000000000E+00 0. -1.
         -1    1    6    6    0  503  0.26482905659E+02 -0.14843282395E+03 -0.42475846765E+03  0.45072541903E+03  0.00000000000E+00 0.  1.
<mgrwt>
<rscale>  0 0.17784903E+04</rscale>
<asrwt>0</asrwt>
<pdfrwt beam="1">  1        2 0.49138610E+00 0.17784903E+04</pdfrwt>
<pdfrwt beam="2">  1       -1 0.38088461E-01 0.17784903E+04</pdfrwt>
<totfact> 0.94359022E+00</totfact>
</mgrwt>
</event>
<event>
12    7  0.1675873E-007  0.2260282E+04  0.7818608E-02  0.8493748E-01
          2   -1    0    0  501    0  0.00000000000E+00  0.00000000000E+00  0.26214583889E+04  0.26214583889E+04  0.00000000000E+00 0. -1.
         -1   -1    0    0    0  501 -0.00000000000E+00 -0.00000000000E+00 -0.48721702212E+03  0.48721702212E+03  0.00000000000E+00 0.  1.
         24    2    1    2    0    0 -0.65293483038E+03  0.68021176539E+03  0.74287208749E+03  0.12034656698E+04  0.86364005869E+02 0.  0.
        254    2    1    2    0    0  0.65293483038E+03 -0.68021176539E+03  0.13913692792E+04  0.19052097412E+04  0.89716428161E+03 0.  0.
         23    2    4    4    0    0 -0.17633248605E+02 -0.51489440341E+02  0.80340414889E+03  0.81029577601E+03  0.90326763671E+02 0.  0.
         23    2    4    4    0    0  0.67056807898E+03 -0.62872232505E+03  0.58796513035E+03  0.10949139652E+04  0.90444933910E+02 0.  0.
          2    1    3    3  502    0 -0.56489270144E+03  0.57191507197E+03  0.66736533520E+03  0.10447808882E+04  0.00000000000E+00 0. -1.
         -1    1    3    3    0  502 -0.88042128940E+02  0.10829669343E+03  0.75506752287E+02  0.15868478161E+03  0.00000000000E+00 0.  1.
         13    1    5    5    0    0 -0.52712943657E+02 -0.23824096134E+02  0.35632511979E+03  0.36099007324E+03  0.00000000000E+00 0.  1.
        -13    1    5    5    0    0  0.35079695051E+02 -0.27665344206E+02  0.44707902911E+03  0.44930570277E+03  0.00000000000E+00 0. -1.
          4    1    6    6  503    0  0.76439900889E+02 -0.40802798481E+02  0.39792979026E+02  0.95348875146E+02  0.00000000000E+00 0. -1.
         -4    1    6    6    0  503  0.59412817809E+03 -0.58791952657E+03  0.54817215133E+03  0.99956509003E+03  0.00000000000E+00 0.  1.
<mgrwt>
<rscale>  0 0.22602824E+04</rscale>
<asrwt>0</asrwt>
<pdfrwt beam="1">  1        2 0.40330128E+00 0.22602824E+04</pdfrwt>
<pdfrwt beam="2">  1       -1 0.74956467E-01 0.22602824E+04</pdfrwt>
<totfact> 0.54770468E+00</totfact>
</mgrwt>
</event>
<event>
12    7  0.1675873E-007  0.1650951E+04  0.7818608E-02  0.8789844E-01
         -1   -1    0    0    0  501 -0.00000000000E+00  0.00000000000E+00  0.16850314677E+03  0.16850314677E+03  0.00000000000E+00 0.  1.
          2   -1    0    0  501    0  0.00000000000E+00 -0.00000000000E+00 -0.40439012153E+04  0.40439012153E+04  0.00000000000E+00 0. -1.
         24    2    1    2    0    0 -0.52234022157E+03  0.18046633271E+03 -0.15798164406E+04  0.16755629262E+04  0.79269977892E+02 0.  0.
        254    2    1    2    0    0  0.52234022157E+03 -0.18046633271E+03 -0.22955816279E+04  0.25368414358E+04  0.92761093995E+03 0.  0.
         23    2    4    4    0    0 -0.47967523926E+02  0.12540004610E+03 -0.10411938932E+02  0.16010347552E+03  0.86594800576E+02 0.  0.
         23    2    4    4    0    0  0.57030774549E+03 -0.30586637882E+03 -0.22851696889E+04  0.23767379603E+04  0.89875794162E+02 0.  0.
          2    1    3    3  502    0 -0.22103388773E+02 -0.25680206126E+01 -0.10933235523E+03  0.11157382500E+03  0.00000000000E+00 0. -1.
         -1    1    3    3    0  502 -0.50023683279E+03  0.18303435332E+03 -0.14704840854E+04  0.15639891012E+04  0.00000000000E+00 0.  1.
         13    1    5    5    0    0 -0.20617994215E+02  0.94057955593E+02  0.31245276330E+02  0.10123372950E+03  0.00000000000E+00 0. -1.
        -13    1    5    5    0    0 -0.27349529711E+02  0.31342090511E+02 -0.41657215262E+02  0.58869746019E+02  0.00000000000E+00 0.  1.
          1    1    6    6  503    0  0.24799597064E+03 -0.18207096325E+03 -0.10333668184E+04  0.10781923848E+04  0.00000000000E+00 0. -1.
         -1    1    6    6    0  503  0.32231177486E+03 -0.12379541556E+03 -0.12518028705E+04  0.12985455755E+04  0.00000000000E+00 0.  1.
<mgrwt>
<rscale>  0 0.16509513E+04</rscale>
<asrwt>0</asrwt>
<pdfrwt beam="1">  1        2 0.62213856E+00 0.16509513E+04</pdfrwt>
<pdfrwt beam="2">  1       -1 0.25923565E-01 0.16509513E+04</pdfrwt>
<totfact> 0.45970019E+00</totfact>
</mgrwt>
</event>
<event>
12    7  0.1675873E-007  0.1938523E+04  0.7818608E-02  0.8635915E-01
          2   -1    0    0  501    0  0.00000000000E+00  0.00000000000E+00  0.29077579404E+04  0.29077579404E+04  0.00000000000E+00 0. -1.
         -1   -1    0    0    0  501 -0.00000000000E+00 -0.00000000000E+00 -0.32309022004E+03  0.32309022004E+03  0.00000000000E+00 0.  1.
         24    2    1    2    0    0 -0.75130162518E+03 -0.96965939701E+02  0.98587367572E+03  0.12459464623E+04  0.81112002316E+02 0.  0.
        254    2    1    2    0    0  0.75130162518E+03  0.96965939701E+02  0.15987940446E+04  0.19849016982E+04  0.89990878914E+03 0.  0.
         23    2    4    4    0    0  0.70352539847E+03  0.42684146328E+03  0.10857733705E+04  0.13660858616E+04  0.10072312586E+03 0.  0.
         23    2    4    4    0    0  0.47776226707E+02 -0.32987552358E+03  0.51302067411E+03  0.61881583655E+03  0.92964501898E+02 0.  0.
          4    1    3    3  502    0 -0.41276896897E+03 -0.56458893241E+02  0.60741114726E+03  0.73655558526E+03  0.00000000000E+00 0. -1.
         -3    1    3    3    0  502 -0.33853265620E+03 -0.40507046460E+02  0.37846252846E+03  0.50939087701E+03  0.00000000000E+00 0.  1.
         13    1    5    5    0    0  0.99797255647E+02  0.83995376636E+02  0.12462193225E+03  0.18040327471E+03  0.00000000000E+00 0.  1.
        -13    1    5    5    0    0  0.60372814282E+03  0.34284608664E+03  0.96115143827E+03  0.11856825869E+04  0.00000000000E+00 0. -1.
          4    1    6    6  503    0  0.42298969878E+02 -0.30476262501E+03  0.40984345890E+03  0.51248524004E+03  0.00000000000E+00 0. -1.
         -4    1    6    6    0  503  0.54772568290E+01 -0.25112898568E+02  0.10317721521E+03  0.10633059651E+03  0.00000000000E+00 0.  1.
<mgrwt>
<rscale>  0 0.19385233E+04</rscale>
<asrwt>0</asrwt>
<pdfrwt beam="1">  1        2 0.44734736E+00 0.19385233E+04</pdfrwt>
<pdfrwt beam="2">  1       -1 0.49706190E-01 0.19385233E+04</pdfrwt>
<totfact> 0.85924947E+00</totfact>
</mgrwt>
</event>
<event>
12    7  0.1675873E-007  0.2071778E+04  0.7818608E-02  0.8573778E-01
         -1   -1    0    0    0  501 -0.00000000000E+00  0.00000000000E+00  0.60422659867E+03  0.60422659867E+03  0.00000000000E+00 0.  1.
          2   -1    0    0  501    0  0.00000000000E+00 -0.00000000000E+00 -0.17759323279E+04  0.17759323279E+04  0.00000000000E+00 0. -1.
         24    2    1    2    0    0  0.18480830717E+03  0.80122022100E+03 -0.65802852149E+03  0.10560717017E+04  0.78599942757E+02 0.  0.
        254    2    1    2    0    0 -0.18480830717E+03 -0.80122022100E+03 -0.51367720771E+03  0.13240872249E+04  0.90179529410E+03 0.  0.
         23    2    4    4    0    0 -0.23966481937E+03 -0.54122279202E+02  0.16428506863E+03  0.30944853909E+03  0.91653520511E+02 0.  0.
         23    2    4    4    0    0  0.54856512197E+02 -0.74709794180E+03 -0.67796227635E+03  0.10146386858E+04  0.93242924683E+02 0.  0.
          2    1    3    3  502    0  0.93687698134E+02  0.52176504170E+03 -0.45770736311E+03  0.70036574285E+03  0.00000000000E+00 0. -1.
         -1    1    3    3    0  502  0.91120609040E+02  0.27945517930E+03 -0.20032115838E+03  0.35570595880E+03  0.00000000000E+00 0.  1.
         13    1    5    5    0    0 -0.90485283922E+02 -0.23157165673E+02  0.12236710653E+02  0.94199670998E+02  0.00000000000E+00 0.  1.
        -13    1    5    5    0    0 -0.14917953545E+03 -0.30965113529E+02  0.15204835798E+03  0.21524886810E+03  0.00000000000E+00 0. -1.
          2    1    6    6  503    0 -0.12419124462E+02 -0.91924336737E+02 -0.11841855206E+03  0.15042364112E+03  0.00000000000E+00 0. -1.
         -2    1    6    6    0  503  0.67275636658E+02 -0.65517360506E+03 -0.55954372429E+03  0.86421504468E+03  0.00000000000E+00 0.  1.
<mgrwt>
<rscale>  0 0.20717775E+04</rscale>
<asrwt>0</asrwt>
<pdfrwt beam="1">  1        2 0.27322036E+00 0.20717775E+04</pdfrwt>
<pdfrwt beam="2">  1       -1 0.92957939E-01 0.20717775E+04</pdfrwt>
<totfact> 0.10521667E+01</totfact>
</mgrwt>
</event>
<event>
12    7  0.1675873E-007  0.1235852E+04  0.7818608E-02  0.9082041E-01
         -1   -1    0    0    0  501 -0.00000000000E+00  0.00000000000E+00  0.10714113351E+03  0.10714113351E+03  0.00000000000E+00 0.  1.
          2   -1    0    0  501    0  0.00000000000E+00 -0.00000000000E+00 -0.35638286065E+04  0.35638286065E+04  0.00000000000E+00 0. -1.
         24    2    1    2    0    0  0.14930224427E+03 -0.34722877537E+02 -0.14646858453E+04  0.14748396036E+04  0.79689348946E+02 0.  0.
        254    2    1    2    0    0 -0.14930224427E+03  0.34722877537E+02 -0.19920016277E+04  0.21961301365E+04  0.91182249000E+03 0.  0.
         23    2    4    4    0    0 -0.26308180107E+03  0.37828526535E+03 -0.15405716040E+04  0.16105224304E+04  0.90054736983E+02 0.  0.
         23    2    4    4    0    0  0.11377955680E+03 -0.34356238782E+03 -0.45143002367E+03  0.58560770609E+03  0.90368231636E+02 0.  0.
          4    1    3    3  502    0  0.12348511793E+03 -0.47248905585E+02 -0.92615901817E+03  0.93554880171E+03  0.00000000000E+00 0. -1.
         -3    1    3    3    0  502  0.25817126331E+02  0.12526028048E+02 -0.53852682716E+03  0.53929080185E+03  0.00000000000E+00 0.  1.
         13    1    5    5    0    0 -0.10313609430E+03  0.90401395595E+02 -0.37391950218E+03  0.39827786830E+03  0.00000000000E+00 0. -1.
        -13    1    5    5    0    0 -0.15994570677E+03  0.28788386976E+03 -0.11666521018E+04  0.12122445621E+04  0.00000000000E+00 0.  1.
          1    1    6    6  503    0  0.33578684693E+02 -0.15966039242E+03 -0.26804642706E+03  0.31379588275E+03  0.00000000000E+00 0. -1.
         -1    1    6    6    0  503  0.80200872111E+02 -0.18390199540E+03 -0.18338359661E+03  0.27181182333E+03  0.00000000000E+00 0.  1.
<mgrwt>
<rscale>  0 0.12358522E+04</rscale>
<asrwt>0</asrwt>
<pdfrwt beam="1">  1        2 0.54828133E+00 0.12358522E+04</pdfrwt>
<pdfrwt beam="2">  1       -1 0.16483251E-01 0.12358522E+04</pdfrwt>
<totfact> 0.23763334E+01</totfact>
</mgrwt>
</event>
<event>
12    7  0.1675873E-007  0.1081150E+04  0.7818608E-02  0.9223762E-01
         -1   -1    0    0    0  501 -0.00000000000E+00  0.00000000000E+00  0.28560468604E+03  0.28560468604E+03  0.00000000000E+00 0.  1.
          2   -1    0    0  501    0  0.00000000000E+00 -0.00000000000E+00 -0.10231669067E+04  0.10231669067E+04  0.00000000000E+00 0. -1.
         24    2    1    2    0    0  0.41769717457E+00 -0.69828970523E+02  0.43433002151E+02  0.11396705808E+03  0.78903770868E+02 0.  0.
        254    2    1    2    0    0 -0.41769717457E+00  0.69828970523E+02 -0.78099522276E+03  0.11948045346E+04  0.90151432510E+03 0.  0.
         23    2    4    4    0    0 -0.26466470286E+03 -0.31729835814E+03 -0.41285869223E+03  0.59186512007E+03  0.95532023906E+02 0.  0.
         23    2    4    4    0    0  0.26424700568E+03  0.38712732866E+03 -0.36813653053E+03  0.60293941454E+03  0.91199692366E+02 0.  0.
          4    1    3    3  502    0 -0.15547980972E+02 -0.31027200204E+02 -0.18370170917E+02  0.39266907751E+02  0.00000000000E+00 0. -1.
         -3    1    3    3    0  502  0.15965678147E+02 -0.38801770319E+02  0.61803173067E+02  0.74700150333E+02  0.00000000000E+00 0.  1.
         13    1    5    5    0    0 -0.10636680443E+03 -0.20184366148E+03 -0.22367546376E+03  0.31950817494E+03  0.00000000000E+00 0. -1.
        -13    1    5    5    0    0 -0.15829789843E+03 -0.11545469665E+03 -0.18918322847E+03  0.27235694513E+03  0.00000000000E+00 0.  1.
          4    1    6    6  503    0 -0.41306505125E+01 -0.21680093960E+01 -0.36945762493E+01  0.59508345683E+01  0.00000000000E+00 0. -1.
         -4    1    6    6    0  503  0.26837765620E+03  0.38929533806E+03 -0.36444195428E+03  0.59698857997E+03  0.00000000000E+00 0.  1.
<mgrwt>
<rscale>  0 0.10811499E+04</rscale>
<asrwt>0</asrwt>
<pdfrwt beam="1">  1        2 0.15741029E+00 0.10811499E+04</pdfrwt>
<pdfrwt beam="2">  1       -1 0.43939182E-01 0.10811499E+04</pdfrwt>
<totfact> 0.14118869E+02</totfact>
</mgrwt>
</event>
<event>
12    7  0.1675873E-007  0.1427149E+04  0.7818608E-02  0.8934398E-01
          2   -1    0    0  501    0  0.00000000000E+00  0.00000000000E+00  0.40842528377E+03  0.40842528377E+03  0.00000000000E+00 0. -1.
         -1   -1    0    0    0  501 -0.00000000000E+00 -0.00000000000E+00 -0.12467122415E+04  0.12467122415E+04  0.00000000000E+00 0.  1.
         24    2    1    2    0    0  0.12020008189E+03 -0.37913397134E+03 -0.11599002362E+03  0.42158990795E+03  0.78062391706E+02 0.  0.
        254    2    1    2    0    0 -0.12020008189E+03  0.37913397134E+03 -0.72229693413E+03  0.12335476173E+04  0.91746184405E+03 0.  0.
         23    2    4    4    0    0 -0.85561279143E+02  0.65857821862E+03 -0.35062749002E+03  0.75769194761E+03  0.10055569695E+03 0.  0.
         23    2    4    4    0    0 -0.34638802748E+02 -0.27944424728E+03 -0.37166944411E+03  0.47585566973E+03  0.94928966778E+02 0.  0.
          2    1    3    3  502    0  0.12419010127E+03 -0.36747571438E+03 -0.12359671568E+03  0.40710899037E+03  0.00000000000E+00 0. -1.
         -1    1    3    3    0  502 -0.39900193757E+01 -0.11658256953E+02  0.76066920625E+01  0.14480917579E+02  0.00000000000E+00 0.  1.
         13    1    5    5    0    0  0.15172519200E+02  0.17996495461E+03 -0.12085205392E+03  0.21730809732E+03  0.00000000000E+00 0. -1.
        -13    1    5    5    0    0 -0.10073379834E+03  0.47861326401E+03 -0.22977543610E+03  0.54038385029E+03  0.00000000000E+00 0.  1.
          1    1    6    6  503    0 -0.64143296693E+01 -0.85667827787E+02 -0.50369842536E+02  0.99585347215E+02  0.00000000000E+00 0. -1.
         -1    1    6    6    0  503 -0.28224473078E+02 -0.19377641949E+03 -0.32129960158E+03  0.37627032252E+03  0.00000000000E+00 0.  1.
<mgrwt>
<rscale>  0 0.14271493E+04</rscale>
<asrwt>0</asrwt>
<pdfrwt beam="1">  1        2 0.62834659E-01 0.14271493E+04</pdfrwt>
<pdfrwt beam="2">  1       -1 0.19180188E+00 0.14271493E+04</pdfrwt>
<totfact> 0.14812827E+01</totfact>
</mgrwt>
</event>
<event>
12    7  0.1675873E-007  0.1056400E+04  0.7818608E-02  0.9248761E-01
          2   -1    0    0  501    0  0.00000000000E+00  0.00000000000E+00  0.19476132408E+04  0.19476132408E+04  0.00000000000E+00 0. -1.
         -1   -1    0    0    0  501 -0.00000000000E+00 -0.00000000000E+00 -0.14324987549E+03  0.14324987549E+03  0.00000000000E+00 0.  1.
         24    2    1    2    0    0 -0.42019881980E+01  0.21836847358E+02  0.27591035916E+02  0.94416095636E+02  0.87513594629E+02 0.  0.
        254    2    1    2    0    0  0.42019881980E+01 -0.21836847358E+02  0.17767723294E+04  0.19964470206E+04  0.91015728923E+03 0.  0.
         23    2    4    4    0    0  0.38940621566E+02 -0.45031221351E+03  0.75949858965E+03  0.88846449307E+03  0.90739110204E+02 0.  0.
         23    2    4    4    0    0 -0.34738633368E+02  0.42847536615E+03  0.10172737397E+04  0.11079825275E+04  0.89339284813E+02 0.  0.
          4    1    3    3  502    0 -0.14044426676E+02  0.53710689374E+02  0.90452854460E+01  0.56248566760E+02  0.00000000000E+00 0. -1.
         -3    1    3    3    0  502  0.98424384779E+01 -0.31873842016E+02  0.18545750470E+02  0.38167528877E+02  0.00000000000E+00 0.  1.
         13    1    5    5    0    0 -0.24940369605E+02 -0.22105169550E+03  0.38889266487E+03  0.44802162772E+03  0.00000000000E+00 0. -1.
        -13    1    5    5    0    0  0.63880991171E+02 -0.22926051801E+03  0.37060592479E+03  0.44044286535E+03  0.00000000000E+00 0.  1.
          3    1    6    6  503    0  0.68981880440E+01  0.33170173744E+03  0.81437354177E+03  0.87936220817E+03  0.00000000000E+00 0. -1.
         -3    1    6    6    0  503 -0.41636821412E+02  0.96773628709E+02  0.20290019793E+03  0.22862031937E+03  0.00000000000E+00 0.  1.
<mgrwt>
<rscale>  0 0.10564002E+04</rscale>
<asrwt>0</asrwt>
<pdfrwt beam="1">  1        2 0.29963279E+00 0.10564002E+04</pdfrwt>
<pdfrwt beam="2">  1       -1 0.22038444E-01 0.10564002E+04</pdfrwt>
<totfact> 0.14101444E+02</totfact>
</mgrwt>
</event>
<event>
12    7  0.1675873E-007  0.1688742E+04  0.7818608E-02  0.8767812E-01
         -1   -1    0    0    0  501 -0.00000000000E+00  0.00000000000E+00  0.16346707697E+04  0.16346707697E+04  0.00000000000E+00 0.  1.
          2   -1    0    0  501    0  0.00000000000E+00 -0.00000000000E+00 -0.43615025012E+03  0.43615025012E+03  0.00000000000E+00 0. -1.
         24    2    1    2    0    0 -0.33449912468E+03 -0.13174475219E+02  0.10432873695E+04  0.10985571630E+04  0.79473730559E+02 0.  0.
        254    2    1    2    0    0  0.33449912468E+03  0.13174475219E+02  0.15523315002E+03  0.97226385675E+03  0.89952011932E+03 0.  0.
         23    2    4    4    0    0  0.45300695635E+03 -0.20624853080E+03 -0.18620055323E+03  0.53944578166E+03  0.92613964248E+02 0.  0.
         23    2    4    4    0    0 -0.11850783167E+03  0.21942300602E+03  0.34143370325E+03  0.43281807508E+03  0.92541615842E+02 0.  0.
          4    1    3    3  502    0 -0.30905978645E+02 -0.12881729857E+02  0.18865401913E+03  0.19160234188E+03  0.00000000000E+00 0. -1.
         -3    1    3    3    0  502 -0.30359314603E+03 -0.29274536273E+00  0.85463335039E+03  0.90695482116E+03  0.00000000000E+00 0.  1.
         13    1    5    5    0    0  0.28679620008E+03 -0.17840971522E+03 -0.12536272647E+03  0.36027475634E+03  0.00000000000E+00 0.  1.
        -13    1    5    5    0    0  0.16621075627E+03 -0.27838815586E+02 -0.60837826756E+02  0.17917102533E+03  0.00000000000E+00 0. -1.
          3    1    6    6  503    0 -0.26269645942E+02  0.16998226622E+02  0.98841298251E+02  0.10367562995E+03  0.00000000000E+00 0. -1.
         -3    1    6    6    0  503 -0.92238185728E+02  0.20242477940E+03  0.24259240500E+03  0.32914244513E+03  0.00000000000E+00 0.  1.
<mgrwt>
<rscale>  0 0.16887416E+04</rscale>
<asrwt>0</asrwt>
<pdfrwt beam="1">  1        2 0.67100039E-01 0.16887416E+04</pdfrwt>
<pdfrwt beam="2">  1       -1 0.25148781E+00 0.16887416E+04</pdfrwt>
<totfact> 0.53525797E+00</totfact>
</mgrwt>
</event>
<event>
12    7  0.1675873E-007  0.2677546E+04  0.7818608E-02  0.8342328E-01
          4   -1    0    0  501    0  0.00000000000E+00  0.00000000000E+00  0.96844801514E+03  0.96844801514E+03  0.00000000000E+00 0. -1.
         -3   -1    0    0    0  501 -0.00000000000E+00 -0.00000000000E+00 -0.18507062832E+04  0.18507062832E+04  0.00000000000E+00 0.  1.
         24    2    1    2    0    0 -0.12662790107E+03 -0.66046800147E+03 -0.13725056101E+04  0.15304363420E+04  0.78810792199E+02 0.  0.
        254    2    1    2    0    0  0.12662790107E+03  0.66046800147E+03  0.49024734198E+03  0.12887179564E+04  0.98397098961E+03 0.  0.
         23    2    4    4    0    0  0.21485488930E+02  0.29979060149E+03  0.75689013937E+03  0.81884865907E+03  0.85407332345E+02 0.  0.
         23    2    4    4    0    0  0.10514241214E+03  0.36067739998E+03 -0.26664279738E+03  0.46986929728E+03  0.92388643452E+02 0.  0.
          2    1    3    3  502    0 -0.13174550575E+03 -0.51641192770E+03 -0.10808638313E+04  0.12051160854E+04  0.00000000000E+00 0. -1.
         -3    1    3    3    0  502  0.51176046766E+01 -0.14405607377E+03 -0.29164177873E+03  0.32532025662E+03  0.00000000000E+00 0.  1.
         13    1    5    5    0    0  0.38626820948E+02  0.27504257986E+03  0.71669260481E+03  0.76862783050E+03  0.00000000000E+00 0. -1.
        -13    1    5    5    0    0 -0.17141332018E+02  0.24748021627E+02  0.40197534559E+02  0.50220828571E+02  0.00000000000E+00 0.  1.
          3    1    6    6  503    0  0.48265883587E+02  0.26306253819E+03 -0.22484479695E+03  0.34940904000E+03  0.00000000000E+00 0. -1.
         -3    1    6    6    0  503  0.56876528557E+02  0.97614861791E+02 -0.41798000431E+02  0.12046025728E+03  0.00000000000E+00 0.  1.
<mgrwt>
<rscale>  0 0.26775458E+04</rscale>
<asrwt>0</asrwt>
<pdfrwt beam="1">  1        4 0.14899200E+00 0.26775458E+04</pdfrwt>
<pdfrwt beam="2">  1       -3 0.28472404E+00 0.26775458E+04</pdfrwt>
<totfact> 0.28133500E-02</totfact>
</mgrwt>
</event>
<event>
12    7  0.1675873E-007  0.9929742E+03  0.7818608E-02  0.9316284E-01
         -1   -1    0    0    0  501 -0.00000000000E+00  0.00000000000E+00  0.19928040305E+03  0.19928040305E+03  0.00000000000E+00 0.  1.
          2   -1    0    0  501    0  0.00000000000E+00 -0.00000000000E+00 -0.12369477525E+04  0.12369477525E+04  0.00000000000E+00 0. -1.
         24    2    1    2    0    0  0.48335015633E+02  0.63371058967E+02 -0.19442532033E+03  0.22477270565E+03  0.79808515619E+02 0.  0.
        254    2    1    2    0    0 -0.48335015633E+02 -0.63371058967E+02 -0.84324202914E+03  0.12114554499E+04  0.86614953823E+03 0.  0.
         23    2    4    4    0    0  0.19409215445E+03 -0.16039939205E+03  0.53170640491E+02  0.27321944335E+03  0.91771552382E+02 0.  0.
         23    2    4    4    0    0 -0.24242717008E+03  0.97028333087E+02 -0.89641266963E+03  0.93823600657E+03  0.92442952853E+02 0.  0.
          2    1    3    3  502    0  0.68456632994E+02  0.45206327959E+02 -0.16778015986E+03  0.18676216086E+03  0.00000000000E+00 0. -1.
         -1    1    3    3    0  502 -0.20121617362E+02  0.18164731009E+02 -0.26645160479E+02  0.38010544784E+02  0.00000000000E+00 0.  1.
         13    1    5    5    0    0  0.18853900487E+03 -0.16982303801E+03  0.59436519167E+02  0.26061373794E+03  0.00000000000E+00 0.  1.
        -13    1    5    5    0    0  0.55531495815E+01  0.94236459527E+01 -0.62658786758E+01  0.12605705410E+02  0.00000000000E+00 0. -1.
          1    1    6    6  503    0 -0.32851101939E+02 -0.25131711791E+01 -0.44969065800E+02  0.55746998188E+02  0.00000000000E+00 0. -1.
         -1    1    6    6    0  503 -0.20957606814E+03  0.99541504266E+02 -0.85144360383E+03  0.88248900838E+03  0.00000000000E+00 0.  1.
<mgrwt>
<rscale>  0 0.99297421E+03</rscale>
<asrwt>0</asrwt>
<pdfrwt beam="1">  1        2 0.19029965E+00 0.99297421E+03</pdfrwt>
<pdfrwt beam="2">  1       -1 0.30658523E-01 0.99297421E+03</pdfrwt>
<totfact> 0.20097943E+02</totfact>
</mgrwt>
</event>
<event>
12    7  0.1675873E-007  0.2416438E+04  0.7818608E-02  0.8433375E-01
         -1   -1    0    0    0  501 -0.00000000000E+00  0.00000000000E+00  0.87508772624E+03  0.87508772624E+03  0.00000000000E+00 0.  1.
          2   -1    0    0  501    0  0.00000000000E+00 -0.00000000000E+00 -0.16681683896E+04  0.16681683896E+04  0.00000000000E+00 0. -1.
         24    2    1    2    0    0 -0.88504846753E+03 -0.38312631514E+03  0.57027343337E+02  0.96931973993E+03  0.78943505791E+02 0.  0.
        254    2    1    2    0    0  0.88504846753E+03  0.38312631514E+03 -0.85010800667E+03  0.15739363759E+04  0.90801736167E+03 0.  0.
         23    2    4    4    0    0  0.99351991790E+03  0.11995646465E+03 -0.53089057660E+03  0.11365177732E+04  0.91413695550E+02 0.  0.
         23    2    4    4    0    0 -0.10847145036E+03  0.26316985049E+03 -0.31921743007E+03  0.43741860272E+03  0.91710635114E+02 0.  0.
          4    1    3    3  502    0 -0.31455844224E+03 -0.15965622799E+03 -0.10499687912E+02  0.35291269199E+03  0.00000000000E+00 0. -1.
         -3    1    3    3    0  502 -0.57049002529E+03 -0.22347008714E+03  0.67527031248E+02  0.61640704795E+03  0.00000000000E+00 0.  1.
         13    1    5    5    0    0  0.24780209372E+03  0.56057904896E+02 -0.10107853611E+03  0.27343232585E+03  0.00000000000E+00 0.  1.
        -13    1    5    5    0    0  0.74571782417E+03  0.63898559752E+02 -0.42981204050E+03  0.86308544732E+03  0.00000000000E+00 0. -1.
          2    1    6    6  503    0 -0.84318019821E+02  0.17468814135E+03 -0.15098716596E+03  0.24581008823E+03  0.00000000000E+00 0. -1.
         -2    1    6    6    0  503 -0.24153430542E+02  0.88481709144E+02 -0.16823026411E+03  0.19160851448E+03  0.00000000000E+00 0.  1.
<mgrwt>
<rscale>  0 0.24164384E+04</rscale>
<asrwt>0</asrwt>
<pdfrwt beam="1">  1        2 0.25664129E+00 0.24164384E+04</pdfrwt>
<pdfrwt beam="2">  1       -1 0.13462888E+00 0.24164384E+04</pdfrwt>
<totfact> 0.48459933E+00</totfact>
</mgrwt>
</event>
<event>
12    7  0.1675873E-007  0.1458404E+04  0.7818608E-02  0.8912595E-01
         -1   -1    0    0    0  501 -0.00000000000E+00  0.00000000000E+00  0.91110282079E+03  0.91110282079E+03  0.00000000000E+00 0.  1.
          2   -1    0    0  501    0  0.00000000000E+00 -0.00000000000E+00 -0.58361774396E+03  0.58361774396E+03  0.00000000000E+00 0. -1.
         24    2    1    2    0    0 -0.20390064711E+03 -0.31159685071E+03 -0.15485629715E+03  0.41202425165E+03  0.84353066996E+02 0.  0.
        254    2    1    2    0    0  0.20390064711E+03  0.31159685071E+03  0.48234137397E+03  0.10826963131E+04  0.89493577093E+03 0.  0.
         23    2    4    4    0    0 -0.27306262625E+03  0.11330680401E+03 -0.73464263757E+02  0.31832642594E+03  0.92374702784E+02 0.  0.
         23    2    4    4    0    0  0.47696327336E+03  0.19829004671E+03  0.55580563773E+03  0.76436988716E+03  0.92349936139E+02 0.  0.
          4    1    3    3  502    0 -0.18405963132E+03 -0.31063696711E+03 -0.14019067605E+03  0.38733280118E+03  0.00000000000E+00 0. -1.
         -3    1    3    3    0  502 -0.19841015786E+02 -0.95988360329E+00 -0.14665621095E+02  0.24691450465E+02  0.00000000000E+00 0.  1.
         13    1    5    5    0    0 -0.67229999939E+02 -0.74885155949E+01 -0.36362992849E+02  0.76799856813E+02  0.00000000000E+00 0.  1.
        -13    1    5    5    0    0 -0.20583262632E+03  0.12079531960E+03 -0.37101270908E+02  0.24152656913E+03  0.00000000000E+00 0. -1.
          2    1    6    6  503    0  0.31540221562E+03  0.82724680367E+02  0.34868441150E+03  0.47739160988E+03  0.00000000000E+00 0. -1.
         -2    1    6    6    0  503  0.16156105774E+03  0.11556536634E+03  0.20712122623E+03  0.28697827728E+03  0.00000000000E+00 0.  1.
<mgrwt>
<rscale>  0 0.14584043E+04</rscale>
<asrwt>0</asrwt>
<pdfrwt beam="1">  1        2 0.89787345E-01 0.14584043E+04</pdfrwt>
<pdfrwt beam="2">  1       -1 0.14016966E+00 0.14584043E+04</pdfrwt>
<totfact> 0.23736922E+01</totfact>
</mgrwt>
</event>
<event>
12    7  0.1675873E-007  0.1298246E+04  0.7818608E-02  0.9030957E-01
          2   -1    0    0  501    0  0.00000000000E+00  0.00000000000E+00  0.58754145956E+03  0.58754145956E+03  0.00000000000E+00 0. -1.
         -1   -1    0    0    0  501 -0.00000000000E+00 -0.00000000000E+00 -0.71715920329E+03  0.71715920329E+03  0.00000000000E+00 0.  1.
         24    2    1    2    0    0 -0.29173364693E+03 -0.35356391606E+02 -0.18496512410E+03  0.35633618293E+03  0.80029887850E+02 0.  0.
        254    2    1    2    0    0  0.29173364693E+03  0.35356391606E+02  0.55347380376E+02  0.94836447992E+03  0.89998514381E+03 0.  0.
         23    2    4    4    0    0 -0.23534872703E+03 -0.19543477274E+03 -0.11789717639E+03  0.34055007571E+03  0.92145733226E+02 0.  0.
         23    2    4    4    0    0  0.52708237396E+03  0.23079116435E+03  0.17324455677E+03  0.60781440422E+03  0.91347047243E+02 0.  0.
          2    1    3    3  502    0 -0.80512547764E+02 -0.44741553622E+02 -0.42889020443E+02  0.10160484753E+03  0.00000000000E+00 0. -1.
         -1    1    3    3    0  502 -0.21122109917E+03  0.93851620158E+01 -0.14207610366E+03  0.25473133539E+03  0.00000000000E+00 0.  1.
         13    1    5    5    0    0 -0.14762962562E+03 -0.11840399524E+03 -0.11946518053E+03  0.22379888697E+03  0.00000000000E+00 0.  1.
        -13    1    5    5    0    0 -0.87719101411E+02 -0.77030777497E+02  0.15680041398E+01  0.11675118873E+03  0.00000000000E+00 0. -1.
          1    1    6    6  503    0  0.18532424248E+03  0.74271736745E+02  0.15797074064E+02  0.20027709125E+03  0.00000000000E+00 0. -1.
         -1    1    6    6    0  503  0.34175813149E+03  0.15651942760E+03  0.15744748270E+03  0.40753731297E+03  0.00000000000E+00 0.  1.
<mgrwt>
<rscale>  0 0.12982461E+04</rscale>
<asrwt>0</asrwt>
<pdfrwt beam="1">  1        2 0.90390994E-01 0.12982461E+04</pdfrwt>
<pdfrwt beam="2">  1       -1 0.11033219E+00 0.12982461E+04</pdfrwt>
<totfact> 0.43207876E+01</totfact>
</mgrwt>
</event>
<event>
12    7  0.1675873E-007  0.2472545E+04  0.7818608E-02  0.8412832E-01
         -1   -1    0    0    0  501 -0.00000000000E+00  0.00000000000E+00  0.16046596627E+04  0.16046596627E+04  0.00000000000E+00 0.  1.
          2   -1    0    0  501    0  0.00000000000E+00 -0.00000000000E+00 -0.95245695703E+03  0.95245695703E+03  0.00000000000E+00 0. -1.
         24    2    1    2    0    0  0.69173747891E+03  0.42278500136E+03 -0.43947110614E+03  0.92566033996E+03  0.80400962334E+02 0.  0.
        254    2    1    2    0    0 -0.69173747891E+03 -0.42278500136E+03  0.10916738118E+04  0.16314562798E+04  0.90147101137E+03 0.  0.
         23    2    4    4    0    0 -0.35752998876E+03 -0.27159088861E+03 -0.18682236293E+02  0.45850540663E+03  0.91043277155E+02 0.  0.
         23    2    4    4    0    0 -0.33420749015E+03 -0.15119411274E+03  0.11103560481E+04  0.11729508732E+04  0.91481643325E+02 0.  0.
          2    1    3    3  502    0  0.58464413647E+03  0.38610019826E+03 -0.39268280295E+03  0.80316991549E+03  0.00000000000E+00 0. -1.
         -1    1    3    3    0  502  0.10709334244E+03  0.36684803096E+02 -0.46788303182E+02  0.12249042447E+03  0.00000000000E+00 0.  1.
         13    1    5    5    0    0 -0.35674841309E+03 -0.25190569331E+03 -0.96386357303E+01  0.43682812622E+03  0.00000000000E+00 0.  1.
        -13    1    5    5    0    0 -0.78157567511E+00 -0.19685195306E+02 -0.90436005624E+01  0.21677280408E+02  0.00000000000E+00 0. -1.
          4    1    6    6  503    0 -0.22514121461E+03 -0.10422873747E+03  0.60631840507E+03  0.65511388671E+03  0.00000000000E+00 0. -1.
         -4    1    6    6    0  503 -0.10906627554E+03 -0.46965375277E+02  0.50403764304E+03  0.51783698645E+03  0.00000000000E+00 0.  1.
<mgrwt>
<rscale>  0 0.24725446E+04</rscale>
<asrwt>0</asrwt>
<pdfrwt beam="1">  1        2 0.14653184E+00 0.24725446E+04</pdfrwt>
<pdfrwt beam="2">  1       -1 0.24687072E+00 0.24725446E+04</pdfrwt>
<totfact> 0.20148364E+00</totfact>
</mgrwt>
</event>
<event>
12    7  0.1675873E-007  0.2116843E+04  0.7818608E-02  0.8553860E-01
         -1   -1    0    0    0  501 -0.00000000000E+00  0.00000000000E+00  0.12221950142E+04  0.12221950142E+04  0.00000000000E+00 0.  1.
          2   -1    0    0  501    0  0.00000000000E+00 -0.00000000000E+00 -0.91659368044E+03  0.91659368044E+03  0.00000000000E+00 0. -1.
         24    2    1    2    0    0  0.11834257242E+03 -0.85209865225E+03  0.56840558814E+02  0.86588645069E+03  0.80320724306E+02 0.  0.
        254    2    1    2    0    0 -0.11834257242E+03  0.85209865225E+03  0.24876077493E+03  0.12729022439E+04  0.90461103347E+03 0.  0.
         23    2    4    4    0    0  0.37709172670E+03  0.30515443552E+03  0.16768941519E+02  0.49387305911E+03  0.91170177428E+02 0.  0.
         23    2    4    4    0    0 -0.49543429912E+03  0.54694421672E+03  0.23199183341E+03  0.77902918483E+03  0.91995321045E+02 0.  0.
          4    1    3    3  502    0  0.11967579804E+02 -0.81130345681E+02  0.29438267217E+02  0.87131897336E+02  0.00000000000E+00 0. -1.
         -3    1    3    3    0  502  0.10637499262E+03 -0.77096830656E+03  0.27402291597E+02  0.77875455335E+03  0.00000000000E+00 0.  1.
         13    1    5    5    0    0  0.69665536492E+02  0.40025564187E+02 -0.28826327403E+02  0.85359767542E+02  0.00000000000E+00 0.  1.
        -13    1    5    5    0    0  0.30742619021E+03  0.26512887134E+03  0.45595268922E+02  0.40851329157E+03  0.00000000000E+00 0. -1.
          1    1    6    6  503    0 -0.37412336005E+03  0.34971153063E+03  0.16172500079E+03  0.53704880511E+03  0.00000000000E+00 0. -1.
         -1    1    6    6    0  503 -0.12131093907E+03  0.19723268609E+03  0.70266832623E+02  0.24198037972E+03  0.00000000000E+00 0.  1.
<mgrwt>
<rscale>  0 0.21168431E+04</rscale>
<asrwt>0</asrwt>
<pdfrwt beam="1">  1        2 0.14101441E+00 0.21168431E+04</pdfrwt>
<pdfrwt beam="2">  1       -1 0.18803000E+00 0.21168431E+04</pdfrwt>
<totfact> 0.54727388E+00</totfact>
</mgrwt>
</event>
<event>
12    7  0.1675873E-007  0.1510363E+04  0.7818608E-02  0.8877591E-01
          2   -1    0    0  501    0  0.00000000000E+00  0.00000000000E+00  0.23036343387E+04  0.23036343387E+04  0.00000000000E+00 0. -1.
         -1   -1    0    0    0  501 -0.00000000000E+00 -0.00000000000E+00 -0.24756485148E+03  0.24756485148E+03  0.00000000000E+00 0.  1.
         24    2    1    2    0    0  0.30931736190E+03  0.32366301823E+03  0.97310533986E+03  0.10742257666E+04  0.81191227524E+02 0.  0.
        254    2    1    2    0    0 -0.30931736190E+03 -0.32366301823E+03  0.10829641473E+04  0.14769734236E+04  0.89900176290E+03 0.  0.
         23    2    4    4    0    0 -0.20303731095E+03 -0.61689125402E+03  0.86508861528E+03  0.10855843926E+04  0.91302750653E+02 0.  0.
         23    2    4    4    0    0 -0.10628005095E+03  0.29322823579E+03  0.21787553206E+03  0.39138903093E+03  0.91855204374E+02 0.  0.
          2    1    3    3  502    0  0.72798819899E+02  0.79140827350E+02  0.32395675791E+03  0.34133695922E+03  0.00000000000E+00 0. -1.
         -1    1    3    3    0  502  0.23651854200E+03  0.24452219088E+03  0.64914858196E+03  0.73288880739E+03  0.00000000000E+00 0.  1.
         13    1    5    5    0    0 -0.17123572589E+03 -0.44055281611E+03  0.67837319667E+03  0.82680024889E+03  0.00000000000E+00 0. -1.
        -13    1    5    5    0    0 -0.31801585067E+02 -0.17633843791E+03  0.18671541861E+03  0.25878414373E+03  0.00000000000E+00 0.  1.
          2    1    6    6  503    0 -0.73801725425E+02  0.23214249674E+03  0.12003788807E+03  0.27156201509E+03  0.00000000000E+00 0. -1.
         -2    1    6    6    0  503 -0.32478325522E+02  0.61085739053E+02  0.97837643992E+02  0.11982701584E+03  0.00000000000E+00 0.  1.
<mgrwt>
<rscale>  0 0.15103627E+04</rscale>
<asrwt>0</asrwt>
<pdfrwt beam="1">  1        2 0.35440527E+00 0.15103627E+04</pdfrwt>
<pdfrwt beam="2">  1       -1 0.38086902E-01 0.15103627E+04</pdfrwt>
<totfact> 0.33098197E+01</totfact>
</mgrwt>
</event>
<event>
12    7  0.1675873E-007  0.2184273E+04  0.7818608E-02  0.8525003E-01
          2   -1    0    0  501    0  0.00000000000E+00  0.00000000000E+00  0.98718029571E+03  0.98718029571E+03  0.00000000000E+00 0. -1.
         -1   -1    0    0    0  501 -0.00000000000E+00 -0.00000000000E+00 -0.12082516662E+04  0.12082516662E+04  0.00000000000E+00 0.  1.
         24    2    1    2    0    0 -0.24063332665E+03  0.13502555234E+03 -0.92995438495E+03  0.97332898979E+03  0.80111588437E+02 0.  0.
        254    2    1    2    0    0  0.24063332665E+03 -0.13502555234E+03  0.70888301448E+03  0.12221029721E+04  0.95649581731E+03 0.  0.
         23    2    4    4    0    0 -0.16815525408E+03  0.21136417468E+03 -0.48878428193E+02  0.28965461503E+03  0.92518600566E+02 0.  0.
         23    2    4    4    0    0  0.40878858074E+03 -0.34638972701E+03  0.75776144268E+03  0.93244835708E+03  0.90352575451E+02 0.  0.
          2    1    3    3  502    0 -0.31045164678E+02 -0.47053810056E+01 -0.16519514549E+03  0.16815284402E+03  0.00000000000E+00 0. -1.
         -1    1    3    3    0  502 -0.20958816198E+03  0.13973093334E+03 -0.76475923946E+03  0.80517614577E+03  0.00000000000E+00 0.  1.
         13    1    5    5    0    0 -0.15061143067E+03  0.21201162783E+03 -0.62460235140E+02  0.26745843482E+03  0.00000000000E+00 0. -1.
        -13    1    5    5    0    0 -0.17543823416E+02 -0.64745315707E+00  0.13581806947E+02  0.22196180203E+02  0.00000000000E+00 0.  1.
          4    1    6    6  503    0  0.35927002714E+03 -0.26324903865E+03  0.64530324189E+03  0.78408627252E+03  0.00000000000E+00 0. -1.
         -4    1    6    6    0  503  0.49518553594E+02 -0.83140688367E+02  0.11245820078E+03  0.14836208456E+03  0.00000000000E+00 0.  1.
<mgrwt>
<rscale>  0 0.21842731E+04</rscale>
<asrwt>0</asrwt>
<pdfrwt beam="1">  1        2 0.15187389E+00 0.21842731E+04</pdfrwt>
<pdfrwt beam="2">  1       -1 0.18588487E+00 0.21842731E+04</pdfrwt>
<totfact> 0.50626052E+00</totfact>
</mgrwt>
</event>
<event>
12    7  0.1675873E-007  0.1802159E+04  0.7818608E-02  0.8705152E-01
          2   -1    0    0  501    0  0.00000000000E+00  0.00000000000E+00  0.13244797610E+04  0.13244797610E+04  0.00000000000E+00 0. -1.
         -1   -1    0    0    0  501 -0.00000000000E+00 -0.00000000000E+00 -0.61302907903E+03  0.61302907903E+03  0.00000000000E+00 0.  1.
         24    2    1    2    0    0 -0.25068148517E+03  0.48848810401E+03 -0.14219425345E+02  0.55496334092E+03  0.79500207205E+02 0.  0.
        254    2    1    2    0    0  0.25068148517E+03 -0.48848810401E+03  0.72567010735E+03  0.13825454991E+04  0.10408521114E+04 0.  0.
         23    2    4    4    0    0 -0.75277028415E+02 -0.73939469566E+03  0.53052004878E+03  0.91777868876E+03  0.92168608617E+02 0.  0.
         23    2    4    4    0    0  0.32595851359E+03  0.25090659165E+03  0.19515005857E+03  0.46476681037E+03  0.93389358882E+02 0.  0.
          4    1    3    3  502    0 -0.13741467772E+03  0.23864947136E+03 -0.44595861986E+02  0.27897160203E+03  0.00000000000E+00 0. -1.
         -3    1    3    3    0  502 -0.11326680746E+03  0.24983863265E+03  0.30376436641E+02  0.27599173889E+03  0.00000000000E+00 0.  1.
         13    1    5    5    0    0 -0.38953411689E+02 -0.31904266849E+03  0.17452074725E+03  0.36573635835E+03  0.00000000000E+00 0. -1.
        -13    1    5    5    0    0 -0.36323616726E+02 -0.42035202717E+03  0.35599930152E+03  0.55204233041E+03  0.00000000000E+00 0.  1.
          2    1    6    6  503    0  0.34317689531E+02  0.26005559549E+02  0.56969954589E+02  0.71411264294E+02  0.00000000000E+00 0. -1.
         -2    1    6    6    0  503  0.29164082405E+03  0.22490103210E+03  0.13818010398E+03  0.39335554608E+03  0.00000000000E+00 0.  1.
<mgrwt>
<rscale>  0 0.18021594E+04</rscale>
<asrwt>0</asrwt>
<pdfrwt beam="1">  1        2 0.20376612E+00 0.18021594E+04</pdfrwt>
<pdfrwt beam="2">  1       -1 0.94312166E-01 0.18021594E+04</pdfrwt>
<totfact> 0.18735215E+01</totfact>
</mgrwt>
</event>
<event>
12    7  0.1675873E-007  0.1933613E+04  0.7818608E-02  0.8638303E-01
          2   -1    0    0  501    0  0.00000000000E+00  0.00000000000E+00  0.84472150889E+03  0.84472150889E+03  0.00000000000E+00 0. -1.
         -1   -1    0    0    0  501 -0.00000000000E+00 -0.00000000000E+00 -0.11065365543E+04  0.11065365543E+04  0.00000000000E+00 0.  1.
         24    2    1    2    0    0 -0.69155969351E+03  0.20006104313E+03  0.13342444231E+03  0.73619547301E+03  0.76827482145E+02 0.  0.
        254    2    1    2    0    0  0.69155969351E+03 -0.20006104313E+03 -0.39523948771E+03  0.12150625902E+04  0.89547954456E+03 0.  0.
         23    2    4    4    0    0  0.11802684479E+03  0.24960314040E+03  0.12392144761E+03  0.31586188346E+03  0.90444128926E+02 0.  0.
         23    2    4    4    0    0  0.57353284872E+03 -0.44966418353E+03 -0.51916093532E+03  0.89920070671E+03  0.88859595294E+02 0.  0.
          2    1    3    3  502    0 -0.68743824683E+02  0.44881608120E+02  0.12418679923E+02  0.83031896224E+02  0.00000000000E+00 0. -1.
         -3    1    3    3    0  502 -0.62281586883E+03  0.15517943501E+03  0.12100576238E+03  0.65316357679E+03  0.00000000000E+00 0.  1.
         13    1    5    5    0    0  0.11100486014E+02  0.55318995042E+02  0.65660205118E+02  0.86571788351E+02  0.00000000000E+00 0.  1.
        -13    1    5    5    0    0  0.10692635878E+03  0.19428414536E+03  0.58261242492E+02  0.22929009511E+03  0.00000000000E+00 0. -1.
          3    1    6    6  503    0  0.42649698171E+03 -0.37322077633E+03 -0.37519343847E+03  0.67967899744E+03  0.00000000000E+00 0. -1.
         -3    1    6    6    0  503  0.14703586701E+03 -0.76443407205E+02 -0.14396749685E+03  0.21952170927E+03  0.00000000000E+00 0.  1.
<mgrwt>
<rscale>  0 0.19336134E+04</rscale>
<asrwt>0</asrwt>
<pdfrwt beam="1">  1        2 0.12995716E+00 0.19336134E+04</pdfrwt>
<pdfrwt beam="2">  1       -1 0.17023639E+00 0.19336134E+04</pdfrwt>
<totfact> 0.83621360E+00</totfact>
</mgrwt>
</event>
<event>
12    7  0.1675873E-007  0.2053311E+04  0.7818608E-02  0.8582094E-01
         -1   -1    0    0    0  501 -0.00000000000E+00  0.00000000000E+00  0.80175776449E+03  0.80175776449E+03  0.00000000000E+00 0.  1.
          2   -1    0    0  501    0  0.00000000000E+00 -0.00000000000E+00 -0.13146381009E+04  0.13146381009E+04  0.00000000000E+00 0. -1.
         24    2    1    2    0    0 -0.76160071093E+03  0.13405266424E+03 -0.50855579876E+03  0.92897024385E+03  0.79692871855E+02 0.  0.
        254    2    1    2    0    0  0.76160071093E+03 -0.13405266424E+03 -0.43245377013E+01  0.11874256216E+04  0.90108553728E+03 0.  0.
         23    2    4    4    0    0 -0.76024762632E+02  0.23516896473E+03  0.31743470257E+02  0.26664312092E+03  0.94903632827E+02 0.  0.
         23    2    4    4    0    0  0.83762547356E+03 -0.36922162897E+03 -0.36068007959E+02  0.92078250067E+03  0.92727919593E+02 0.  0.
          4    1    3    3  502    0 -0.31548612974E+03  0.48347319486E+02 -0.25643469863E+03  0.40942363882E+03  0.00000000000E+00 0. -1.
         -3    1    3    3    0  502 -0.44611458119E+03  0.85705344757E+02 -0.25212110013E+03  0.51954660503E+03  0.00000000000E+00 0.  1.
         13    1    5    5    0    0 -0.34019041577E+02  0.21409732641E+03  0.34757623557E+02  0.21955193636E+03  0.00000000000E+00 0. -1.
        -13    1    5    5    0    0 -0.42005721055E+02  0.21071638323E+02 -0.30141532998E+01  0.47091184558E+02  0.00000000000E+00 0.  1.
          2    1    6    6  503    0  0.78840991079E+03 -0.32154672392E+03 -0.36875574973E+02  0.85225717429E+03  0.00000000000E+00 0. -1.
         -2    1    6    6    0  503  0.49215562770E+02 -0.47674905049E+02  0.80756701377E+00  0.68525326374E+02  0.00000000000E+00 0.  1.
<mgrwt>
<rscale>  0 0.20533108E+04</rscale>
<asrwt>0</asrwt>
<pdfrwt beam="1">  1        2 0.20225202E+00 0.20533108E+04</pdfrwt>
<pdfrwt beam="2">  1       -1 0.12334735E+00 0.20533108E+04</pdfrwt>
<totfact> 0.98872964E+00</totfact>
</mgrwt>
</event>
<event>
12    7  0.1675873E-007  0.1971830E+04  0.7818608E-02  0.8619905E-01
         -1   -1    0    0    0  501 -0.00000000000E+00  0.00000000000E+00  0.38090811238E+03  0.38090811238E+03  0.00000000000E+00 0.  1.
          2   -1    0    0  501    0  0.00000000000E+00 -0.00000000000E+00 -0.25518708709E+04  0.25518708709E+04  0.00000000000E+00 0. -1.
         24    2    1    2    0    0  0.50944841812E+03 -0.57994535617E+03 -0.51160684945E+03  0.92918595685E+03  0.75964907280E+02 0.  0.
        254    2    1    2    0    0 -0.50944841812E+03  0.57994535617E+03 -0.16593559091E+04  0.20035930264E+04  0.81550516599E+03 0.  0.
         23    2    4    4    0    0 -0.28503675092E+03  0.22717540370E+02 -0.79367028047E+02  0.31069636508E+03  0.92038416534E+02 0.  0.
         23    2    4    4    0    0 -0.22441166720E+03  0.55722781580E+03 -0.15799888810E+04  0.16928966613E+04  0.93117167069E+02 0.  0.
          2    1    3    3  502    0  0.25227938024E+02 -0.35744730002E+02 -0.10390091776E+02  0.44967639331E+02  0.00000000000E+00 0. -1.
         -1    1    3    3    0  502  0.48422048009E+03 -0.54420062617E+03 -0.50121675768E+03  0.88421831752E+03  0.00000000000E+00 0.  1.
         13    1    5    5    0    0  0.35041428155E-01 -0.62097130313E+01  0.89189977238E+01  0.10867855549E+02  0.00000000000E+00 0. -1.
        -13    1    5    5    0    0 -0.28507179235E+03  0.28927253401E+02 -0.88286025771E+02  0.29982850953E+03  0.00000000000E+00 0.  1.
          4    1    6    6  503    0 -0.18338423533E+03  0.35796901078E+03 -0.97865190233E+03  0.10580789840E+04  0.00000000000E+00 0.  1.
         -4    1    6    6    0  503 -0.41027431870E+02  0.19925880502E+03 -0.60133697868E+03  0.63481767734E+03  0.00000000000E+00 0. -1.
<mgrwt>
<rscale>  0 0.19718299E+04</rscale>
<asrwt>0</asrwt>
<pdfrwt beam="1">  1        2 0.39259552E+00 0.19718299E+04</pdfrwt>
<pdfrwt beam="2">  1       -1 0.58601248E-01 0.19718299E+04</pdfrwt>
<totfact> 0.10165821E+01</totfact>
</mgrwt>
</event>
<event>
12    7  0.1675873E-007  0.2525086E+04  0.7818608E-02  0.8394103E-01
         -1   -1    0    0    0  501 -0.00000000000E+00  0.00000000000E+00  0.26270876353E+04  0.26270876353E+04  0.00000000000E+00 0.  1.
          2   -1    0    0  501    0  0.00000000000E+00 -0.00000000000E+00 -0.60676124505E+03  0.60676124505E+03  0.00000000000E+00 0. -1.
         24    2    1    2    0    0 -0.66817570477E+03  0.85509240800E+03  0.63378564270E+03  0.12592078618E+04  0.79236352422E+02 0.  0.
        254    2    1    2    0    0  0.66817570477E+03 -0.85509240800E+03  0.13865407475E+04  0.19746410186E+04  0.89390721497E+03 0.  0.
         23    2    4    4    0    0  0.50621980826E+03 -0.55725195118E+03  0.27105267341E+03  0.80528572038E+03  0.90704511039E+02 0.  0.
         23    2    4    4    0    0  0.16195589652E+03 -0.29784045683E+03  0.11154880741E+04  0.11693552982E+04  0.90219287173E+02 0.  0.
          2    1    3    3  502    0 -0.45891753286E+03  0.61479329967E+03  0.41037073951E+03  0.87004611782E+03  0.00000000000E+00 0. -1.
         -1    1    3    3    0  502 -0.20925817192E+03  0.24029910833E+03  0.22341490319E+03  0.38916174394E+03  0.00000000000E+00 0.  1.
         13    1    5    5    0    0  0.39526873807E+03 -0.40252860822E+03  0.23681050025E+03  0.61183810666E+03  0.00000000000E+00 0. -1.
        -13    1    5    5    0    0  0.11095107018E+03 -0.15472334296E+03  0.34242173161E+02  0.19344761372E+03  0.00000000000E+00 0.  1.
          4    1    6    6  503    0  0.11475130714E+02 -0.10618956084E+03  0.31639356801E+03  0.33393531011E+03  0.00000000000E+00 0. -1.
         -4    1    6    6    0  503  0.15048076580E+03 -0.19165089598E+03  0.79909450608E+03  0.83541998806E+03  0.00000000000E+00 0.  1.
<mgrwt>
<rscale>  0 0.25250861E+04</rscale>
<asrwt>0</asrwt>
<pdfrwt beam="1">  1        2 0.93347885E-01 0.25250861E+04</pdfrwt>
<pdfrwt beam="2">  1       -1 0.40416732E+00 0.25250861E+04</pdfrwt>
<totfact> 0.33282220E-01</totfact>
</mgrwt>
</event>
<event>
12    7  0.1675873E-007  0.1916911E+04  0.7818608E-02  0.8646484E-01
          2   -1    0    0  501    0  0.00000000000E+00  0.00000000000E+00  0.52817802692E+03  0.52817802692E+03  0.00000000000E+00 0. -1.
         -1   -1    0    0    0  501 -0.00000000000E+00 -0.00000000000E+00 -0.17392553700E+04  0.17392553700E+04  0.00000000000E+00 0.  1.
         24    2    1    2    0    0  0.26587590349E+03 -0.19971957871E+03 -0.12637983182E+04  0.13091135296E+04  0.77550874661E+02 0.  0.
        254    2    1    2    0    0 -0.26587590349E+03  0.19971957871E+03  0.52720975141E+02  0.95831986729E+03  0.89722882290E+03 0.  0.
         23    2    4    4    0    0 -0.42436840015E+03 -0.20457576505E+03 -0.98100027609E+02  0.48971443192E+03  0.90867082684E+02 0.  0.
         23    2    4    4    0    0  0.15849249666E+03  0.40429534377E+03  0.15082100275E+03  0.46860543537E+03  0.90936696102E+02 0.  0.
          4    1    3    3  502    0  0.55887557112E+01 -0.35742144805E+01 -0.37986724642E+01  0.76445478638E+01  0.00000000000E+00 0. -1.
         -3    1    3    3    0  502  0.26028714778E+03 -0.19614536423E+03 -0.12599996457E+04  0.13014689818E+04  0.00000000000E+00 0.  1.
         13    1    5    5    0    0 -0.81538640829E+02 -0.67615887463E+02  0.61414645314E+01  0.10610455114E+03  0.00000000000E+00 0. -1.
        -13    1    5    5    0    0 -0.34282975932E+03 -0.13695987759E+03 -0.10424149214E+03  0.38360988078E+03  0.00000000000E+00 0.  1.
          4    1    6    6  503    0 -0.88798946916E+01  0.11358468779E+02  0.14077847905E+02  0.20150760392E+02  0.00000000000E+00 0. -1.
         -4    1    6    6    0  503  0.16737239136E+03  0.39293687499E+03  0.13674315485E+03  0.44845467498E+03  0.00000000000E+00 0.  1.
<mgrwt>
<rscale>  0 0.19169105E+04</rscale>
<asrwt>0</asrwt>
<pdfrwt beam="1">  1        2 0.81258157E-01 0.19169105E+04</pdfrwt>
<pdfrwt beam="2">  1       -1 0.26757775E+00 0.19169105E+04</pdfrwt>
<totfact> 0.33066391E+00</totfact>
</mgrwt>
</event>
<event>
12    7  0.1675873E-007  0.1362982E+04  0.7818608E-02  0.8981059E-01
         -1   -1    0    0    0  501 -0.00000000000E+00  0.00000000000E+00  0.19603407922E+03  0.19603407922E+03  0.00000000000E+00 0.  1.
          2   -1    0    0  501    0  0.00000000000E+00 -0.00000000000E+00 -0.23691284856E+04  0.23691284856E+04  0.00000000000E+00 0. -1.
         24    2    1    2    0    0  0.30566792484E+03  0.16114144067E+02 -0.10221052958E+04  0.10699938001E+04  0.80591257500E+02 0.  0.
        254    2    1    2    0    0 -0.30566792484E+03 -0.16114144067E+02 -0.11509891106E+04  0.14951687647E+04  0.90391435224E+03 0.  0.
         23    2    4    4    0    0 -0.51945676584E+03  0.16231580214E+03 -0.37700340937E+03  0.66773561614E+03  0.86934062267E+02 0.  0.
         23    2    4    4    0    0  0.21378884100E+03 -0.17842994621E+03 -0.77398570124E+03  0.82743314852E+03  0.89715301466E+02 0.  0.
          2    1    3    3  502    0  0.19616743610E+03 -0.81899573606E+00 -0.77033630860E+03  0.79492160751E+03  0.00000000000E+00 0. -1.
         -1    1    3    3    0  502  0.10950048874E+03  0.16933139803E+02 -0.25176898717E+03  0.27507219263E+03  0.00000000000E+00 0.  1.
         13    1    5    5    0    0 -0.77133174324E+02  0.28927221209E+02 -0.22491258051E+02  0.85394188309E+02  0.00000000000E+00 0. -1.
        -13    1    5    5    0    0 -0.44232359152E+03  0.13338858093E+03 -0.35451215132E+03  0.58234142783E+03  0.00000000000E+00 0.  1.
          1    1    6    6  503    0 -0.62539996946E+01 -0.13211539142E+02 -0.71489214466E+02  0.72968246955E+02  0.00000000000E+00 0. -1.
         -1    1    6    6    0  503  0.22004284069E+03 -0.16521840707E+03 -0.70249648677E+03  0.75446490157E+03  0.00000000000E+00 0.  1.
<mgrwt>
<rscale>  0 0.13629819E+04</rscale>
<asrwt>0</asrwt>
<pdfrwt beam="1">  1        2 0.36448132E+00 0.13629819E+04</pdfrwt>
<pdfrwt beam="2">  1       -1 0.30159088E-01 0.13629819E+04</pdfrwt>
<totfact> 0.46662895E+01</totfact>
</mgrwt>
</event>
<event>
12    7  0.1675873E-007  0.1405598E+04  0.7818608E-02  0.8949776E-01
         -1   -1    0    0    0  501 -0.00000000000E+00  0.00000000000E+00  0.11962793345E+04  0.11962793345E+04  0.00000000000E+00 0.  1.
          2   -1    0    0  501    0  0.00000000000E+00 -0.00000000000E+00 -0.41288570981E+03  0.41288570981E+03  0.00000000000E+00 0. -1.
         24    2    1    2    0    0  0.18909127661E+03  0.15108533781E+03 -0.14870619330E+03  0.29378230431E+03  0.74914752927E+02 0.  0.
        254    2    1    2    0    0 -0.18909127661E+03 -0.15108533781E+03  0.93209981799E+03  0.13153827400E+04  0.89601305338E+03 0.  0.
         23    2    4    4    0    0 -0.51933043561E+03 -0.14787614079E+03  0.74605043877E+03  0.92547841171E+03  0.91365086238E+02 0.  0.
         23    2    4    4    0    0  0.33023915900E+03 -0.32091970220E+01  0.18604937923E+03  0.38990432831E+03  0.91338998466E+02 0.  0.
          2    1    3    3  502    0  0.58839164441E+02  0.32392592613E+02 -0.80456116339E+02  0.10480703213E+03  0.00000000000E+00 0. -1.
         -3    1    3    3    0  502  0.13025211217E+03  0.11869274520E+03 -0.68250076959E+02  0.18897527218E+03  0.00000000000E+00 0.  1.
         13    1    5    5    0    0 -0.45088030963E+03 -0.12229931896E+03  0.69048808926E+03  0.83368098122E+03  0.00000000000E+00 0.  1.
        -13    1    5    5    0    0 -0.68450125986E+02 -0.25576821829E+02  0.55562349504E+02  0.91797430492E+02  0.00000000000E+00 0. -1.
          2    1    6    6  503    0  0.10561901861E+03  0.36217708913E+01  0.11030103941E+03  0.15275736844E+03  0.00000000000E+00 0. -1.
         -2    1    6    6    0  503  0.22462014039E+03 -0.68309679132E+01  0.75748339816E+02  0.23714695987E+03  0.00000000000E+00 0.  1.
<mgrwt>
<rscale>  0 0.14055983E+04</rscale>
<asrwt>0</asrwt>
<pdfrwt beam="1">  1        2 0.63520879E-01 0.14055983E+04</pdfrwt>
<pdfrwt beam="2">  1       -1 0.18404297E+00 0.14055983E+04</pdfrwt>
<totfact> 0.16624236E+01</totfact>
</mgrwt>
</event>
<event>
12    7  0.1675873E-007  0.1577875E+04  0.7818608E-02  0.8834256E-01
         -1   -1    0    0    0  501 -0.00000000000E+00  0.00000000000E+00  0.60600524091E+03  0.60600524091E+03  0.00000000000E+00 0.  1.
          2   -1    0    0  501    0  0.00000000000E+00 -0.00000000000E+00 -0.10270912163E+04  0.10270912163E+04  0.00000000000E+00 0. -1.
         24    2    1    2    0    0  0.19092518029E+03  0.48497707011E+03 -0.42788858378E+02  0.52864290920E+03  0.77312715922E+02 0.  0.
        254    2    1    2    0    0 -0.19092518029E+03 -0.48497707011E+03 -0.37829711696E+03  0.11044535480E+04  0.89724787429E+03 0.  0.
         23    2    4    4    0    0 -0.26848098636E+03  0.17318018998E+03 -0.26935243794E+03  0.42744763162E+03  0.89929548638E+02 0.  0.
         23    2    4    4    0    0  0.77555806068E+02 -0.65815726009E+03 -0.10894467903E+03  0.67700591635E+03  0.85335723014E+02 0.  0.
          2    1    3    3  502    0  0.91464833459E+02  0.14574573664E+03 -0.31655586225E+02  0.17495631354E+03  0.00000000000E+00 0. -1.
         -1    1    3    3    0  502  0.99460346830E+02  0.33923133346E+03 -0.11133272153E+02  0.35368659565E+03  0.00000000000E+00 0.  1.
         13    1    5    5    0    0 -0.24682540542E+03  0.14430018079E+03 -0.19891530912E+03  0.34829961691E+03  0.00000000000E+00 0. -1.
        -13    1    5    5    0    0 -0.21655580937E+02  0.28880009193E+02 -0.70437128820E+02  0.79148014714E+02  0.00000000000E+00 0.  1.
          1    1    6    6  503    0  0.51814508771E+02 -0.42867258170E+03 -0.11192460509E+03  0.44606282388E+03  0.00000000000E+00 0. -1.
         -1    1    6    6    0  503  0.25741297297E+02 -0.22948467839E+03  0.29799260628E+01  0.23094309247E+03  0.00000000000E+00 0.  1.
<mgrwt>
<rscale>  0 0.15778754E+04</rscale>
<asrwt>0</asrwt>
<pdfrwt beam="1">  1        2 0.15801403E+00 0.15778754E+04</pdfrwt>
<pdfrwt beam="2">  1       -1 0.93231576E-01 0.15778754E+04</pdfrwt>
<totfact> 0.29627613E+01</totfact>
</mgrwt>
</event>
<event>
12    7  0.1675873E-007  0.1811630E+04  0.7818608E-02  0.8700139E-01
         -1   -1    0    0    0  501 -0.00000000000E+00  0.00000000000E+00  0.35094395600E+03  0.35094395600E+03  0.00000000000E+00 0.  1.
          2   -1    0    0  501    0  0.00000000000E+00 -0.00000000000E+00 -0.23379831669E+04  0.23379831669E+04  0.00000000000E+00 0. -1.
         24    2    1    2    0    0 -0.44015622962E+03 -0.49956899298E+03 -0.61032096831E+03  0.90690173062E+03  0.81684633982E+02 0.  0.
        254    2    1    2    0    0  0.44015622962E+03  0.49956899298E+03 -0.13767182426E+04  0.17820253923E+04  0.91485227989E+03 0.  0.
         23    2    4    4    0    0  0.62160567848E+03  0.35287621412E+03 -0.51699014931E+03  0.88671061915E+03  0.89786778680E+02 0.  0.
         23    2    4    4    0    0 -0.18144944886E+03  0.14669277886E+03 -0.85972809329E+03  0.89531477313E+03  0.89518013485E+02 0.  0.
          2    1    3    3  502    0 -0.87998320607E+02 -0.10679704459E+03 -0.17396902452E+03  0.22229380256E+03  0.00000000000E+00 0. -1.
         -1    1    3    3    0  502 -0.35215790901E+03 -0.39277194839E+03 -0.43635194379E+03  0.68460792806E+03  0.00000000000E+00 0.  1.
         13    1    5    5    0    0  0.53974150625E+03  0.31307827899E+03 -0.48476497443E+03  0.79014934207E+03  0.00000000000E+00 0. -1.
        -13    1    5    5    0    0  0.81864172225E+02  0.39797935136E+02 -0.32225174881E+02  0.96561277080E+02  0.00000000000E+00 0.  1.
          4    1    6    6  503    0 -0.16958806137E+03  0.93152920640E+02 -0.62493861196E+03  0.65420627167E+03  0.00000000000E+00 0. -1.
         -4    1    6    6    0  503 -0.11861387488E+02  0.53539858219E+02 -0.23478948133E+03  0.24110850145E+03  0.00000000000E+00 0.  1.
<mgrwt>
<rscale>  0 0.18116303E+04</rscale>
<asrwt>0</asrwt>
<pdfrwt beam="1">  1        2 0.35968972E+00 0.18116303E+04</pdfrwt>
<pdfrwt beam="2">  1       -1 0.53991377E-01 0.18116303E+04</pdfrwt>
<totfact> 0.16053538E+01</totfact>
</mgrwt>
</event>
<event>
12    7  0.1675873E-007  0.1960517E+04  0.7818608E-02  0.8625306E-01
          2   -1    0    0  501    0  0.00000000000E+00  0.00000000000E+00  0.14470608656E+04  0.14470608656E+04  0.00000000000E+00 0. -1.
         -1   -1    0    0    0  501 -0.00000000000E+00 -0.00000000000E+00 -0.66404026673E+03  0.66404026673E+03  0.00000000000E+00 0.  1.
         24    2    1    2    0    0 -0.12843059490E+03 -0.23538685341E+01 -0.50707058727E+03  0.52937523073E+03  0.81348608056E+02 0.  0.
        254    2    1    2    0    0  0.12843059490E+03  0.23538685341E+01  0.12900911861E+04  0.15817259016E+04  0.90610242293E+03 0.  0.
         23    2    4    4    0    0  0.44775374400E+02  0.39949811861E+03  0.30814484016E+03  0.51467033371E+03  0.91261870272E+02 0.  0.
         23    2    4    4    0    0  0.83655220495E+02 -0.39714425007E+03  0.98194634593E+03  0.10670555679E+04  0.98321957430E+02 0.  0.
          4    1    3    3  502    0 -0.26341982515E+02 -0.15219579619E+02 -0.25943948614E+03  0.26121711777E+03  0.00000000000E+00 0. -1.
         -3    1    3    3    0  502 -0.10208861238E+03  0.12865711085E+02 -0.24763110112E+03  0.26815811295E+03  0.00000000000E+00 0.  1.
         13    1    5    5    0    0 -0.10896434512E+02  0.18822515802E+03  0.10237151013E+03  0.21453989951E+03  0.00000000000E+00 0. -1.
        -13    1    5    5    0    0  0.55671808912E+02  0.21127296059E+03  0.20577333003E+03  0.30013043420E+03  0.00000000000E+00 0.  1.
          3    1    6    6  503    0  0.20391526732E+02 -0.10113701411E+03  0.37331617963E+03  0.38731057301E+03  0.00000000000E+00 0. -1.
         -3    1    6    6    0  503  0.63263693763E+02 -0.29600723596E+03  0.60863016630E+03  0.67974499485E+03  0.00000000000E+00 0.  1.
<mgrwt>
<rscale>  0 0.19605170E+04</rscale>
<asrwt>0</asrwt>
<pdfrwt beam="1">  1        2 0.22262475E+00 0.19605170E+04</pdfrwt>
<pdfrwt beam="2">  1       -1 0.10216004E+00 0.19605170E+04</pdfrwt>
<totfact> 0.13108390E+01</totfact>
</mgrwt>
</event>
<event>
12    7  0.1675873E-007  0.2201740E+04  0.7818608E-02  0.8517704E-01
         -1   -1    0    0    0  501 -0.00000000000E+00  0.00000000000E+00  0.83695226155E+03  0.83695226155E+03  0.00000000000E+00 0.  1.
          2   -1    0    0  501    0  0.00000000000E+00 -0.00000000000E+00 -0.14480089684E+04  0.14480089684E+04  0.00000000000E+00 0. -1.
         24    2    1    2    0    0 -0.45830432338E+03 -0.76805764397E+03 -0.49513700018E+03  0.10258803347E+04  0.85524352034E+02 0.  0.
        254    2    1    2    0    0  0.45830432338E+03  0.76805764397E+03 -0.11591970667E+03  0.12590808953E+04  0.87857380179E+03 0.  0.
         23    2    4    4    0    0  0.73458029594E+02  0.79392415366E+03 -0.25070662600E+03  0.84069399662E+03  0.90559040161E+02 0.  0.
         23    2    4    4    0    0  0.38484629379E+03 -0.25866509688E+02  0.13478691932E+03  0.41838689867E+03  0.90024092294E+02 0.  0.
          2    1    3    3  502    0 -0.87581012357E+02 -0.14230028641E+03 -0.55816752338E+02  0.17616842816E+03  0.00000000000E+00 0. -1.
         -3    1    3    3    0  502 -0.37072331102E+03 -0.62575735756E+03 -0.43932024784E+03  0.84971190649E+03  0.00000000000E+00 0.  1.
         13    1    5    5    0    0  0.25300816899E+02  0.61237805213E+03 -0.16830747393E+03  0.63558981730E+03  0.00000000000E+00 0.  1.
        -13    1    5    5    0    0  0.48157212695E+02  0.18154610153E+03 -0.82399152066E+02  0.20510417932E+03  0.00000000000E+00 0. -1.
          3    1    6    6  503    0  0.13509349771E+03 -0.25625152553E+02  0.90833865816E+02  0.16479591241E+03  0.00000000000E+00 0. -1.
         -3    1    6    6    0  503  0.24975279608E+03 -0.24135713458E+00  0.43953053508E+02  0.25359098626E+03  0.00000000000E+00 0.  1.
<mgrwt>
<rscale>  0 0.22017397E+04</rscale>
<asrwt>0</asrwt>
<pdfrwt beam="1">  1        2 0.22277061E+00 0.22017397E+04</pdfrwt>
<pdfrwt beam="2">  1       -1 0.12876189E+00 0.22017397E+04</pdfrwt>
<totfact> 0.73498969E+00</totfact>
</mgrwt>
</event>
<event>
12    7  0.1675873E-007  0.1730458E+04  0.7818608E-02  0.8744181E-01
          2   -1    0    0  501    0  0.00000000000E+00  0.00000000000E+00  0.23859660459E+04  0.23859660459E+04  0.00000000000E+00 0. -1.
         -1   -1    0    0    0  501 -0.00000000000E+00 -0.00000000000E+00 -0.31376005700E+03  0.31376005700E+03  0.00000000000E+00 0.  1.
         24    2    1    2    0    0 -0.29462020281E+03 -0.52117193798E+03  0.43475986191E+03  0.74440687897E+03  0.81879246943E+02 0.  0.
        254    2    1    2    0    0  0.29462020281E+03  0.52117193798E+03  0.16374461270E+04  0.19553192240E+04  0.88522437602E+03 0.  0.
         23    2    4    4    0    0  0.33114706807E+03  0.39410117562E+03  0.17045068376E+04  0.17829143828E+04  0.92010975338E+02 0.  0.
         23    2    4    4    0    0 -0.36526865256E+02  0.12707076236E+03 -0.67060710624E+02  0.17240484115E+03  0.88006248705E+02 0.  0.
          4    1    3    3  502    0 -0.12519413932E+03 -0.30348420925E+03  0.24342488001E+03  0.40869537555E+03  0.00000000000E+00 0. -1.
         -3    1    3    3    0  502 -0.16942606349E+03 -0.21768772873E+03  0.19133498190E+03  0.33571150342E+03  0.00000000000E+00 0.  1.
         13    1    5    5    0    0  0.31389311574E+03  0.38786616462E+03  0.15759194901E+04  0.16530248906E+04  0.00000000000E+00 0. -1.
        -13    1    5    5    0    0  0.17253952324E+02  0.62350109999E+01  0.12858734756E+03  0.12988949221E+03  0.00000000000E+00 0.  1.
          1    1    6    6  503    0  0.16690342444E+02  0.18347126580E+01 -0.24743236471E+02  0.29902532543E+02  0.00000000000E+00 0. -1.
         -1    1    6    6    0  503 -0.53217207700E+02  0.12523604970E+03 -0.42317474153E+02  0.14250230861E+03  0.00000000000E+00 0.  1.
<mgrwt>
<rscale>  0 0.17304576E+04</rscale>
<asrwt>0</asrwt>
<pdfrwt beam="1">  1        2 0.36707169E+00 0.17304576E+04</pdfrwt>
<pdfrwt beam="2">  1       -1 0.48270780E-01 0.17304576E+04</pdfrwt>
<totfact> 0.18806367E+01</totfact>
</mgrwt>
</event>
<event>
12    7  0.1675873E-007  0.2496187E+04  0.7818608E-02  0.8404345E-01
         -1   -1    0    0    0  501 -0.00000000000E+00  0.00000000000E+00  0.72175603743E+03  0.72175603743E+03  0.00000000000E+00 0.  1.
          2   -1    0    0  501    0  0.00000000000E+00 -0.00000000000E+00 -0.21582594669E+04  0.21582594669E+04  0.00000000000E+00 0. -1.
         24    2    1    2    0    0 -0.70235138536E+03 -0.53596466476E+03 -0.11894109838E+04  0.14838223724E+04  0.80465857283E+02 0.  0.
        254    2    1    2    0    0  0.70235138536E+03  0.53596466476E+03 -0.24709244566E+03  0.13961931319E+04  0.10524946529E+04 0.  0.
         23    2    4    4    0    0  0.45890528719E+03 -0.79660598721E+02  0.27477039107E+03  0.54830039147E+03  0.90524460117E+02 0.  0.
         23    2    4    4    0    0  0.24344609817E+03  0.61562526349E+03 -0.52186283673E+03  0.84789274041E+03  0.91218480135E+02 0.  0.
          4    1    3    3  502    0 -0.57330658411E+03 -0.45126880712E+03 -0.93112367398E+03  0.11829265708E+04  0.00000000000E+00 0. -1.
         -3    1    3    3    0  502 -0.12904480125E+03 -0.84695857646E+02 -0.25828730982E+03  0.30089580164E+03  0.00000000000E+00 0.  1.
         13    1    5    5    0    0  0.43128092382E+03 -0.64700099027E+02  0.27726931303E+03  0.51678584540E+03  0.00000000000E+00 0.  1.
        -13    1    5    5    0    0  0.27624363372E+02 -0.14960499694E+02 -0.24989219595E+01  0.31514546066E+02  0.00000000000E+00 0. -1.
          4    1    6    6  503    0  0.16989771794E+03  0.35497559566E+03 -0.26360380011E+03  0.47366641374E+03  0.00000000000E+00 0. -1.
         -4    1    6    6    0  503  0.73548380230E+02  0.26064966783E+03 -0.25825903663E+03  0.37422632667E+03  0.00000000000E+00 0.  1.
<mgrwt>
<rscale>  0 0.24961865E+04</rscale>
<asrwt>0</asrwt>
<pdfrwt beam="1">  1        2 0.33203992E+00 0.24961865E+04</pdfrwt>
<pdfrwt beam="2">  1       -1 0.11103939E+00 0.24961865E+04</pdfrwt>
<totfact> 0.41283341E+00</totfact>
</mgrwt>
</event>
<event>
12    7  0.1675873E-007  0.1995497E+04  0.7818608E-02  0.8608729E-01
          2   -1    0    0  501    0  0.00000000000E+00  0.00000000000E+00  0.12110616217E+04  0.12110616217E+04  0.00000000000E+00 0. -1.
         -1   -1    0    0    0  501 -0.00000000000E+00 -0.00000000000E+00 -0.82200784251E+03  0.82200784251E+03  0.00000000000E+00 0.  1.
         24    2    1    2    0    0  0.14668942161E+03 -0.54666946977E+03 -0.41497301150E+03  0.70619091572E+03  0.78343561203E+02 0.  0.
        254    2    1    2    0    0 -0.14668942161E+03  0.54666946977E+03  0.80402679071E+03  0.13268785485E+04  0.89094461486E+03 0.  0.
         23    2    4    4    0    0  0.30877202465E+03 -0.22196721419E+02  0.22194918517E+03  0.38981191782E+03  0.82819278089E+02 0.  0.
         23    2    4    4    0    0 -0.45546144627E+03  0.56886619119E+03  0.58207760554E+03  0.93706663070E+03  0.90695418801E+02 0.  0.
          4    1    3    3  502    0 -0.79011876568E+01 -0.30871534306E+02 -0.13878209715E+02  0.34757518635E+02  0.00000000000E+00 0. -1.
         -3    1    3    3    0  502  0.15459060927E+03 -0.51579793547E+03 -0.40109480178E+03  0.67143339709E+03  0.00000000000E+00 0.  1.
         13    1    5    5    0    0  0.58933935791E+02  0.28380906598E+02  0.49991140287E+02  0.82327387632E+02  0.00000000000E+00 0.  1.
        -13    1    5    5    0    0  0.24983808886E+03 -0.50577628016E+02  0.17195804489E+03  0.30748453019E+03  0.00000000000E+00 0. -1.
          1    1    6    6  503    0 -0.28874318970E+03  0.40571056473E+03  0.43572504500E+03  0.66168724241E+03  0.00000000000E+00 0. -1.
         -1    1    6    6    0  503 -0.16671825657E+03  0.16315562646E+03  0.14635256054E+03  0.27537938830E+03  0.00000000000E+00 0.  1.
<mgrwt>
<rscale>  0 0.19954971E+04</rscale>
<asrwt>0</asrwt>
<pdfrwt beam="1">  1        2 0.18631717E+00 0.19954971E+04</pdfrwt>
<pdfrwt beam="2">  1       -1 0.12646275E+00 0.19954971E+04</pdfrwt>
<totfact> 0.10746378E+01</totfact>
</mgrwt>
</event>
<event>
12    7  0.1675873E-007  0.2275963E+04  0.7818608E-02  0.8487459E-01
          2   -1    0    0  501    0  0.00000000000E+00  0.00000000000E+00  0.24567924892E+04  0.24567924892E+04  0.00000000000E+00 0. -1.
         -1   -1    0    0    0  501 -0.00000000000E+00 -0.00000000000E+00 -0.52711065023E+03  0.52711065023E+03  0.00000000000E+00 0.  1.
         24    2    1    2    0    0  0.42803189174E+03  0.15969307158E+03  0.19231098199E+04  0.19786177235E+04  0.88676597610E+02 0.  0.
        254    2    1    2    0    0 -0.42803189174E+03 -0.15969307158E+03  0.65720190725E+01  0.10052854159E+04  0.89545653080E+03 0.  0.
         23    2    4    4    0    0 -0.63225718291E+03  0.11594060275E+03 -0.31158353964E+01  0.64915768290E+03  0.90579358160E+02 0.  0.
         23    2    4    4    0    0  0.20422529117E+03 -0.27563367432E+03  0.96878544689E+01  0.35612773301E+03  0.95137877414E+02 0.  0.
          2    1    3    3  502    0  0.19451318283E+03  0.44530529217E+02  0.98716884866E+03  0.10071348877E+04  0.00000000000E+00 0. -1.
         -1    1    3    3    0  502  0.23351870891E+03  0.11516254236E+03  0.93594097121E+03  0.97148283576E+03  0.00000000000E+00 0.  1.
         13    1    5    5    0    0 -0.58517858539E+03  0.82882490439E+02  0.51464816087E+01  0.59104142858E+03  0.00000000000E+00 0. -1.
        -13    1    5    5    0    0 -0.47078597520E+02  0.33058112306E+02 -0.82623170051E+01  0.58116254318E+02  0.00000000000E+00 0.  1.
          4    1    6    6  503    0  0.11991676043E+02 -0.69280999673E+01  0.21447417347E+02  0.25530189469E+02  0.00000000000E+00 0.  1.
         -4    1    6    6    0  503  0.19223361513E+03 -0.26870557436E+03 -0.11759562878E+02  0.33059754354E+03  0.00000000000E+00 0. -1.
<mgrwt>
<rscale>  0 0.22759626E+04</rscale>
<asrwt>0</asrwt>
<pdfrwt beam="1">  1        2 0.37796807E+00 0.22759626E+04</pdfrwt>
<pdfrwt beam="2">  1       -1 0.81093948E-01 0.22759626E+04</pdfrwt>
<totfact> 0.57749209E+00</totfact>
</mgrwt>
</event>
<event>
12    7  0.1675873E-007  0.1348973E+04  0.7818608E-02  0.8991606E-01
          2   -1    0    0  501    0  0.00000000000E+00  0.00000000000E+00  0.28715072737E+04  0.28715072737E+04  0.00000000000E+00 0. -1.
         -1   -1    0    0    0  501 -0.00000000000E+00 -0.00000000000E+00 -0.15842971989E+03  0.15842971989E+03  0.00000000000E+00 0.  1.
         24    2    1    2    0    0 -0.67080578194E+02 -0.27652679417E+03  0.20364851258E+03  0.35935219163E+03  0.81819368679E+02 0.  0.
        254    2    1    2    0    0  0.67080578194E+02  0.27652679417E+03  0.25094290412E+04  0.26705848019E+04  0.86822934734E+03 0.  0.
         23    2    4    4    0    0 -0.10576129418E+03 -0.23721290273E+03  0.14550303315E+04  0.14808226334E+04  0.90923009548E+02 0.  0.
         23    2    4    4    0    0  0.17284187237E+03  0.51373969690E+03  0.10543987097E+04  0.11897621685E+04  0.99872866348E+02 0.  0.
          2    1    3    3  502    0 -0.50548375907E+02 -0.60337593390E+02  0.64034883822E+02  0.10147033965E+03  0.00000000000E+00 0. -1.
         -1    1    3    3    0  502 -0.16532202286E+02 -0.21618920078E+03  0.13961362876E+03  0.25788185198E+03  0.00000000000E+00 0.  1.
         13    1    5    5    0    0 -0.58503085592E+02 -0.12982189097E+03  0.10336704259E+04  0.10434322612E+04  0.00000000000E+00 0. -1.
        -13    1    5    5    0    0 -0.47258208590E+02 -0.10739101176E+03  0.42135990559E+03  0.43739037224E+03  0.00000000000E+00 0.  1.
          1    1    6    6  503    0  0.11165804507E+03  0.43862123533E+03  0.90174769893E+03  0.10089623480E+04  0.00000000000E+00 0. -1.
         -1    1    6    6    0  503  0.61183827310E+02  0.75118461571E+02  0.15265101079E+03  0.18079982049E+03  0.00000000000E+00 0.  1.
<mgrwt>
<rscale>  0 0.13489731E+04</rscale>
<asrwt>0</asrwt>
<pdfrwt beam="1">  1        2 0.44177031E+00 0.13489731E+04</pdfrwt>
<pdfrwt beam="2">  1       -1 0.24373805E-01 0.13489731E+04</pdfrwt>
<totfact> 0.34333879E+01</totfact>
</mgrwt>
</event>
<event>
12    7  0.1675873E-007  0.1903615E+04  0.7818608E-02  0.8653059E-01
         -1   -1    0    0    0  501 -0.00000000000E+00  0.00000000000E+00  0.33872151270E+03  0.33872151270E+03  0.00000000000E+00 0.  1.
          2   -1    0    0  501    0  0.00000000000E+00 -0.00000000000E+00 -0.26745796138E+04  0.26745796138E+04  0.00000000000E+00 0. -1.
         24    2    1    2    0    0  0.27718307361E+02 -0.19518289069E+02  0.25422256790E+03  0.26916985942E+03  0.81694742909E+02 0.  0.
        254    2    1    2    0    0 -0.27718307361E+02  0.19518289069E+02 -0.25900806690E+04  0.27441312671E+04  0.90586382577E+03 0.  0.
         23    2    4    4    0    0  0.43455289443E+02  0.22151158054E+03 -0.13765647449E+03  0.28063879620E+03  0.94090841591E+02 0.  0.
         23    2    4    4    0    0 -0.71173596804E+02 -0.20199329147E+03 -0.24524241945E+04  0.24634924709E+04  0.92432426993E+02 0.  0.
          4    1    3    3  502    0 -0.92354544379E+01  0.23812993902E+02  0.39616316535E+02  0.47136024791E+02  0.00000000000E+00 0. -1.
         -3    1    3    3    0  502  0.36953761799E+02 -0.43331282971E+02  0.21460625136E+03  0.22203383463E+03  0.00000000000E+00 0.  1.
         13    1    5    5    0    0 -0.12500874648E+02  0.58823673754E+02 -0.78120728211E+02  0.98586736619E+02  0.00000000000E+00 0.  1.
        -13    1    5    5    0    0  0.55956164091E+02  0.16268790678E+03 -0.59535746282E+02  0.18205205958E+03  0.00000000000E+00 0. -1.
          1    1    6    6  503    0 -0.90611671489E+02 -0.17738879480E+03 -0.19681385450E+04  0.19781927590E+04  0.00000000000E+00 0. -1.
         -1    1    6    6    0  503  0.19438074686E+02 -0.24604496668E+02 -0.48428564950E+03  0.48529971184E+03  0.00000000000E+00 0.  1.
<mgrwt>
<rscale>  0 0.19036151E+04</rscale>
<asrwt>0</asrwt>
<pdfrwt beam="1">  1        2 0.41147377E+00 0.19036151E+04</pdfrwt>
<pdfrwt beam="2">  1       -1 0.52111004E-01 0.19036151E+04</pdfrwt>
<totfact> 0.10884069E+01</totfact>
</mgrwt>
</event>
<event>
12    7  0.1675873E-007  0.1578879E+04  0.7818608E-02  0.8833629E-01
         -1   -1    0    0    0  501 -0.00000000000E+00  0.00000000000E+00  0.32290487884E+03  0.32290487884E+03  0.00000000000E+00 0.  1.
          2   -1    0    0  501    0  0.00000000000E+00 -0.00000000000E+00 -0.19300266847E+04  0.19300266847E+04  0.00000000000E+00 0. -1.
         24    2    1    2    0    0 -0.23111706026E+03  0.10675881566E+03  0.11452965292E+03  0.29566052143E+03  0.97393851292E+02 0.  0.
        254    2    1    2    0    0  0.23111706026E+03 -0.10675881566E+03 -0.17216514587E+04  0.19572710421E+04  0.89555214617E+03 0.  0.
         23    2    4    4    0    0  0.22250478420E+03  0.35481096747E+03 -0.56810794043E+03  0.71162292832E+03  0.90892015573E+02 0.  0.
         23    2    4    4    0    0  0.86122760562E+01 -0.46156978314E+03 -0.11535435183E+04  0.12456481138E+04  0.88632605019E+02 0.  0.
          2    1    3    3  502    0 -0.11835262642E+03  0.20293255844E+01  0.42816700212E+02  0.12587586012E+03  0.00000000000E+00 0. -1.
         -1    1    3    3    0  502 -0.11276443383E+03  0.10472949008E+03  0.71712952708E+02  0.16978466131E+03  0.00000000000E+00 0.  1.
         13    1    5    5    0    0  0.47273007679E+02  0.29372943596E+02 -0.47621780450E+02  0.73248488338E+02  0.00000000000E+00 0.  1.
        -13    1    5    5    0    0  0.17523177652E+03  0.32543802388E+03 -0.52048615998E+03  0.63837443998E+03  0.00000000000E+00 0. -1.
          4    1    6    6  503    0  0.15723966767E+02 -0.45818140240E+03 -0.11475858853E+04  0.12357713400E+04  0.00000000000E+00 0. -1.
         -4    1    6    6    0  503 -0.71116907105E+01 -0.33883807338E+01 -0.59576330195E+01  0.98767737624E+01  0.00000000000E+00 0.  1.
<mgrwt>
<rscale>  0 0.15788794E+04</rscale>
<asrwt>0</asrwt>
<pdfrwt beam="1">  1        2 0.29692718E+00 0.15788794E+04</pdfrwt>
<pdfrwt beam="2">  1       -1 0.49677674E-01 0.15788794E+04</pdfrwt>
<totfact> 0.32492114E+01</totfact>
</mgrwt>
</event>
<event>
12    7  0.1675873E-007  0.1173890E+04  0.7818608E-02  0.9136023E-01
         -3   -1    0    0    0  501 -0.00000000000E+00  0.00000000000E+00  0.76585684511E+03  0.76585684511E+03  0.00000000000E+00 0.  1.
          2   -1    0    0  501    0  0.00000000000E+00 -0.00000000000E+00 -0.44982862500E+03  0.44982862500E+03  0.00000000000E+00 0. -1.
         24    2    1    2    0    0  0.13766306117E+03 -0.15235042059E+03 -0.39999598028E+02  0.22438743017E+03  0.81166384140E+02 0.  0.
        254    2    1    2    0    0 -0.13766306117E+03  0.15235042059E+03  0.35602781814E+03  0.99129803993E+03  0.90208327089E+03 0.  0.
         23    2    4    4    0    0 -0.46792265756E+03 -0.10881913948E+03  0.13530100090E+03  0.50709315556E+03  0.89687730439E+02 0.  0.
         23    2    4    4    0    0  0.33025959640E+03  0.26116956007E+03  0.22072681724E+03  0.48420488437E+03  0.91940753097E+02 0.  0.
          2    1    3    3  502    0  0.79249910109E+02 -0.10158574418E+03 -0.63319943902E+02  0.14356053416E+03  0.00000000000E+00 0. -1.
         -1    1    3    3    0  502  0.58413151060E+02 -0.50764676406E+02  0.23320345874E+02  0.80826896013E+02  0.00000000000E+00 0.  1.
         13    1    5    5    0    0 -0.42167510613E+03 -0.11993706909E+03  0.13755736371E+03  0.45947450852E+03  0.00000000000E+00 0.  1.
        -13    1    5    5    0    0 -0.46247551439E+02  0.11117929607E+02 -0.22563628129E+01  0.47618647041E+02  0.00000000000E+00 0. -1.
          3    1    6    6  503    0  0.59923994694E+02  0.10728707978E+02  0.17372646315E+02  0.63307180911E+02  0.00000000000E+00 0. -1.
         -3    1    6    6    0  503  0.27033560170E+03  0.25044085209E+03  0.20335417092E+03  0.42089770346E+03  0.00000000000E+00 0.  1.
<mgrwt>
<rscale>  0 0.11738898E+04</rscale>
<asrwt>0</asrwt>
<pdfrwt beam="1">  1        2 0.69204404E-01 0.11738898E+04</pdfrwt>
<pdfrwt beam="2">  1       -3 0.11782413E+00 0.11738898E+04</pdfrwt>
<totfact> 0.25534992E+01</totfact>
</mgrwt>
</event>
<event>
12    7  0.1675873E-007  0.2390972E+04  0.7818608E-02  0.8442891E-01
         -1   -1    0    0    0  501 -0.00000000000E+00  0.00000000000E+00  0.82395540385E+03  0.82395540385E+03  0.00000000000E+00 0.  1.
          2   -1    0    0  501    0  0.00000000000E+00 -0.00000000000E+00 -0.17345444611E+04  0.17345444611E+04  0.00000000000E+00 0. -1.
         24    2    1    2    0    0 -0.42352305849E+03 -0.31504934509E+03  0.54817696315E+03  0.76571776540E+03  0.84840099039E+02 0.  0.
        254    2    1    2    0    0  0.42352305849E+03  0.31504934509E+03 -0.14587660204E+04  0.17927820996E+04  0.89857747765E+03 0.  0.
         23    2    4    4    0    0  0.44006326792E+03 -0.16810622908E+03 -0.10440140240E+04  0.11492530725E+04  0.94350190520E+02 0.  0.
         23    2    4    4    0    0 -0.16540209424E+02  0.48315557417E+03 -0.41475199646E+03  0.64352902706E+03  0.91637889109E+02 0.  0.
          2    1    3    3  502    0 -0.23936773706E+02 -0.41800338720E+02  0.30722863306E+02  0.57132580743E+02  0.00000000000E+00 0. -1.
         -1    1    3    3    0  502 -0.39958628479E+03 -0.27324900637E+03  0.51745409984E+03  0.70858518466E+03  0.00000000000E+00 0.  1.
         13    1    5    5    0    0  0.27031844863E+03 -0.15015107902E+03 -0.69800341430E+03  0.76343053159E+03  0.00000000000E+00 0. -1.
        -13    1    5    5    0    0  0.16974481929E+03 -0.17955150060E+02 -0.34601060967E+03  0.38582254094E+03  0.00000000000E+00 0.  1.
          4    1    6    6  503    0  0.60583326845E+00  0.47073917422E+03 -0.39370015834E+03  0.61367381552E+03  0.00000000000E+00 0. -1.
         -4    1    6    6    0  503 -0.17146042692E+02  0.12416399951E+02 -0.21051838123E+02  0.29855211540E+02  0.00000000000E+00 0.  1.
<mgrwt>
<rscale>  0 0.23909724E+04</rscale>
<asrwt>0</asrwt>
<pdfrwt beam="1">  1        2 0.26685299E+00 0.23909724E+04</pdfrwt>
<pdfrwt beam="2">  1       -1 0.12676237E+00 0.23909724E+04</pdfrwt>
<totfact> 0.51946096E+00</totfact>
</mgrwt>
</event>
<event>
12    7  0.1675873E-007  0.1664991E+04  0.7818608E-02  0.8781587E-01
          2   -1    0    0  501    0  0.00000000000E+00  0.00000000000E+00  0.16596669795E+04  0.16596669795E+04  0.00000000000E+00 0. -1.
         -1   -1    0    0    0  501 -0.00000000000E+00 -0.00000000000E+00 -0.41758321434E+03  0.41758321434E+03  0.00000000000E+00 0.  1.
         24    2    1    2    0    0  0.51085084231E+03  0.12253205308E+03  0.72185965667E+03  0.89616196360E+03  0.77731679252E+02 0.  0.
        254    2    1    2    0    0 -0.51085084231E+03 -0.12253205308E+03  0.52022410850E+03  0.11810882302E+04  0.92106112580E+03 0.  0.
         23    2    4    4    0    0 -0.59853244761E+03 -0.12480320719E+03 -0.25917041858E+02  0.61879457879E+03  0.91750238804E+02 0.  0.
         23    2    4    4    0    0  0.87681605304E+02  0.22711541029E+01  0.54614115036E+03  0.56229365145E+03  0.10104836616E+03 0.  0.
          2    1    3    3  502    0  0.28181567819E+03  0.33943770535E+02  0.42193008034E+03  0.50852458026E+03  0.00000000000E+00 0. -1.
         -1    1    3    3    0  502  0.22903516411E+03  0.88588282547E+02  0.29992957632E+03  0.38763738334E+03  0.00000000000E+00 0.  1.
         13    1    5    5    0    0 -0.29584381025E+03 -0.83318734850E+02 -0.53727753514E+02  0.31201320988E+03  0.00000000000E+00 0.  1.
        -13    1    5    5    0    0 -0.30268863736E+03 -0.41484472336E+02  0.27810711656E+02  0.30678136892E+03  0.00000000000E+00 0. -1.
          1    1    6    6  503    0 -0.29505222861E+01 -0.35371142031E+02  0.15804005464E+03  0.16197679507E+03  0.00000000000E+00 0. -1.
         -1    1    6    6    0  503  0.90632127590E+02  0.37642296134E+02  0.38810109571E+03  0.40031685638E+03  0.00000000000E+00 0.  1.
<mgrwt>
<rscale>  0 0.16649914E+04</rscale>
<asrwt>0</asrwt>
<pdfrwt beam="1">  1        2 0.25533338E+00 0.16649914E+04</pdfrwt>
<pdfrwt beam="2">  1       -1 0.64243573E-01 0.16649914E+04</pdfrwt>
<totfact> 0.27582153E+01</totfact>
</mgrwt>
</event>
<event>
12    7  0.1675873E-007  0.1548749E+04  0.7818608E-02  0.8852667E-01
          2   -1    0    0  501    0  0.00000000000E+00  0.00000000000E+00  0.13888548235E+04  0.13888548235E+04  0.00000000000E+00 0. -1.
         -1   -1    0    0    0  501 -0.00000000000E+00 -0.00000000000E+00 -0.43176278468E+03  0.43176278468E+03  0.00000000000E+00 0.  1.
         24    2    1    2    0    0  0.35631820789E+03  0.28443415958E+03  0.19609912223E+02  0.46382917804E+03  0.82990971432E+02 0.  0.
        254    2    1    2    0    0 -0.35631820789E+03 -0.28443415958E+03  0.93748212660E+03  0.13567884301E+04  0.86841041566E+03 0.  0.
         23    2    4    4    0    0 -0.35226274059E+03  0.12539092845E+03  0.84314123085E+03  0.92679139705E+03  0.90792263605E+02 0.  0.
         23    2    4    4    0    0 -0.40554672988E+01 -0.40982508803E+03  0.94340895742E+02  0.42999703308E+03  0.89577866976E+02 0.  0.
          4    1    3    3  502    0  0.71976267975E+02  0.19107932409E+02  0.95893436128E+00  0.74475605319E+02  0.00000000000E+00 0. -1.
         -3    1    3    3    0  502  0.28434193991E+03  0.26532622717E+03  0.18650977861E+02  0.38935357272E+03  0.00000000000E+00 0.  1.
         13    1    5    5    0    0 -0.30489049735E+03  0.13287341643E+03  0.77611133045E+03  0.84437098329E+03  0.00000000000E+00 0.  1.
        -13    1    5    5    0    0 -0.47372243239E+02 -0.74824879803E+01  0.67029900402E+02  0.82420413756E+02  0.00000000000E+00 0. -1.
          3    1    6    6  503    0 -0.20865832547E+02 -0.10612668231E+03 -0.95528347634E+01  0.10857952072E+03  0.00000000000E+00 0. -1.
         -3    1    6    6    0  503  0.16810365248E+02 -0.30369840572E+03  0.10389373051E+03  0.32141751236E+03  0.00000000000E+00 0.  1.
<mgrwt>
<rscale>  0 0.15487489E+04</rscale>
<asrwt>0</asrwt>
<pdfrwt beam="1">  1        2 0.21366997E+00 0.15487489E+04</pdfrwt>
<pdfrwt beam="2">  1       -1 0.66425045E-01 0.15487489E+04</pdfrwt>
<totfact> 0.37003294E+01</totfact>
</mgrwt>
</event>
<event>
12    7  0.1675873E-007  0.1527286E+04  0.7818608E-02  0.8866508E-01
          2   -1    0    0  501    0  0.00000000000E+00  0.00000000000E+00  0.10879860583E+04  0.10879860583E+04  0.00000000000E+00 0. -1.
         -1   -1    0    0    0  501 -0.00000000000E+00 -0.00000000000E+00 -0.53599071566E+03  0.53599071566E+03  0.00000000000E+00 0.  1.
         24    2    1    2    0    0  0.12041163707E+03  0.88380950965E+02 -0.32123392445E+03  0.36278210267E+03  0.78163066496E+02 0.  0.
        254    2    1    2    0    0 -0.12041163707E+03 -0.88380950965E+02  0.87322926704E+03  0.12611946712E+04  0.89764831149E+03 0.  0.
         23    2    4    4    0    0 -0.30042819467E+03  0.27713238818E+03  0.18907239342E+03  0.45979129807E+03  0.92737301555E+02 0.  0.
         23    2    4    4    0    0  0.18001655760E+03 -0.36551333914E+03  0.68415687362E+03  0.80140337318E+03  0.90392348784E+02 0.  0.
          4    1    3    3  502    0  0.36144774978E+02  0.16710413359E+02 -0.26138214883E+02  0.47632855783E+02  0.00000000000E+00 0. -1.
         -3    1    3    3    0  502  0.84266862092E+02  0.71670537606E+02 -0.29509570957E+03  0.31514924688E+03  0.00000000000E+00 0.  1.
         13    1    5    5    0    0 -0.21056868138E+02 -0.45402633153E+01  0.16627509733E+02  0.27211757875E+02  0.00000000000E+00 0. -1.
        -13    1    5    5    0    0 -0.27937132653E+03  0.28167265149E+03  0.17244488369E+03  0.43257954019E+03  0.00000000000E+00 0.  1.
          2    1    6    6  503    0  0.25219040526E+02 -0.14117906498E+03  0.26744958918E+03  0.30347456425E+03  0.00000000000E+00 0.  1.
         -2    1    6    6    0  503  0.15479751707E+03 -0.22433427416E+03  0.41670728444E+03  0.49792880892E+03  0.00000000000E+00 0. -1.
<mgrwt>
<rscale>  0 0.15272857E+04</rscale>
<asrwt>0</asrwt>
<pdfrwt beam="1">  1        2 0.16738247E+00 0.15272857E+04</pdfrwt>
<pdfrwt beam="2">  1       -1 0.82460110E-01 0.15272857E+04</pdfrwt>
<totfact> 0.35639299E+01</totfact>
</mgrwt>
</event>
<event>
12    7  0.1675873E-007  0.1886455E+04  0.7818608E-02  0.8661628E-01
          2   -1    0    0  501    0  0.00000000000E+00  0.00000000000E+00  0.17544088962E+04  0.17544088962E+04  0.00000000000E+00 0. -1.
         -1   -1    0    0    0  501 -0.00000000000E+00 -0.00000000000E+00 -0.50711003189E+03  0.50711003189E+03  0.00000000000E+00 0.  1.
         24    2    1    2    0    0 -0.32218151993E+03  0.54705488993E+03  0.90037948182E+03  0.11046372003E+04  0.80437233449E+02 0.  0.
        254    2    1    2    0    0  0.32218151993E+03 -0.54705488993E+03  0.34691938247E+03  0.11568817278E+04  0.90274707966E+03 0.  0.
         23    2    4    4    0    0  0.50888906574E+03 -0.67986875733E+03  0.30308905865E+03  0.90615222319E+03  0.89773413110E+02 0.  0.
         23    2    4    4    0    0 -0.18670754580E+03  0.13281386740E+03  0.43830323828E+02  0.25072950463E+03  0.91896442650E+02 0.  0.
          4    1    3    3  502    0 -0.26648655235E+03  0.49754242893E+03  0.81430154336E+03  0.99078279895E+03  0.00000000000E+00 0. -1.
         -3    1    3    3    0  502 -0.55694967580E+02  0.49512460998E+02  0.86077938461E+02  0.11385440131E+03  0.00000000000E+00 0.  1.
         13    1    5    5    0    0  0.33783645939E+02 -0.49776399997E+02  0.47511736193E+02  0.76657614140E+02  0.00000000000E+00 0. -1.
        -13    1    5    5    0    0  0.47510541980E+03 -0.63009235733E+03  0.25557732245E+03  0.82949460905E+03  0.00000000000E+00 0.  1.
          3    1    6    6  503    0 -0.70858417710E+00 -0.99123519526E+01 -0.51887426866E+01  0.11210703075E+02  0.00000000000E+00 0. -1.
         -3    1    6    6    0  503 -0.18599896163E+03  0.14272621935E+03  0.49019066514E+02  0.23951880155E+03  0.00000000000E+00 0.  1.
<mgrwt>
<rscale>  0 0.18864552E+04</rscale>
<asrwt>0</asrwt>
<pdfrwt beam="1">  1        2 0.26990906E+00 0.18864552E+04</pdfrwt>
<pdfrwt beam="2">  1       -1 0.78016929E-01 0.18864552E+04</pdfrwt>
<totfact> 0.16070563E+01</totfact>
</mgrwt>
</event>
<event>
12    7  0.1675873E-007  0.2431940E+04  0.7818608E-02  0.8427642E-01
         -1   -1    0    0    0  501 -0.00000000000E+00  0.00000000000E+00  0.80245933190E+03  0.80245933190E+03  0.00000000000E+00 0.  1.
          2   -1    0    0  501    0  0.00000000000E+00 -0.00000000000E+00 -0.18425647164E+04  0.18425647164E+04  0.00000000000E+00 0. -1.
         24    2    1    2    0    0  0.17639983971E+03  0.50583063791E+03  0.52784080366E+03  0.75632091927E+03  0.80149118648E+02 0.  0.
        254    2    1    2    0    0 -0.17639983971E+03 -0.50583063791E+03 -0.15679461882E+04  0.18887031290E+04  0.90651129221E+03 0.  0.
         23    2    4    4    0    0 -0.38054057958E+03 -0.36861645233E+03 -0.15317751982E+04  0.16237623485E+04  0.97875865753E+02 0.  0.
         23    2    4    4    0    0  0.20414073986E+03 -0.13721418558E+03 -0.36170989977E+02  0.26494078049E+03  0.91564743532E+02 0.  0.
          4    1    3    3  502    0  0.94137511711E+02  0.33900243304E+03  0.30140014021E+03  0.46327806471E+03  0.00000000000E+00 0. -1.
         -3    1    3    3    0  502  0.82262328003E+02  0.16682820487E+03  0.22644066345E+03  0.29304285456E+03  0.00000000000E+00 0.  1.
         13    1    5    5    0    0 -0.75415649901E+02 -0.13400626937E+03 -0.42309362572E+03  0.45017043063E+03  0.00000000000E+00 0.  1.
        -13    1    5    5    0    0 -0.30512492967E+03 -0.23461018296E+03 -0.11086815725E+04  0.11735919179E+04  0.00000000000E+00 0. -1.
          1    1    6    6  503    0  0.21339703232E+03 -0.12720298736E+03 -0.37477015696E+02  0.25124374640E+03  0.00000000000E+00 0. -1.
         -1    1    6    6    0  503 -0.92562924622E+01 -0.10011198218E+02  0.13060257193E+01  0.13697034098E+02  0.00000000000E+00 0.  1.
<mgrwt>
<rscale>  0 0.24319402E+04</rscale>
<asrwt>0</asrwt>
<pdfrwt beam="1">  1        2 0.28347149E+00 0.24319402E+04</pdfrwt>
<pdfrwt beam="2">  1       -1 0.12345528E+00 0.24319402E+04</pdfrwt>
<totfact> 0.48152017E+00</totfact>
</mgrwt>
</event>
<event>
12    7  0.1675873E-007  0.1856449E+04  0.7818608E-02  0.8676844E-01
          2   -1    0    0  501    0  0.00000000000E+00  0.00000000000E+00  0.22010585409E+04  0.22010585409E+04  0.00000000000E+00 0. -1.
         -1   -1    0    0    0  501 -0.00000000000E+00 -0.00000000000E+00 -0.39144817811E+03  0.39144817811E+03  0.00000000000E+00 0.  1.
         24    2    1    2    0    0  0.57181125382E+03 -0.36607410722E+03  0.99162070746E+03  0.12044610847E+04  0.80227895041E+02 0.  0.
        254    2    1    2    0    0 -0.57181125382E+03  0.36607410722E+03  0.81798965529E+03  0.13880456343E+04  0.89251624335E+03 0.  0.
         23    2    4    4    0    0 -0.25040632441E+03  0.25653468893E+03 -0.11840512376E+03  0.38850605226E+03  0.91672271618E+02 0.  0.
         23    2    4    4    0    0 -0.32140492941E+03  0.10953941829E+03  0.93639477904E+03  0.99953958199E+03  0.83331752311E+02 0.  0.
          2    1    3    3  502    0  0.52320165331E+03 -0.35867509106E+03  0.91318475141E+03  0.11118876657E+04  0.00000000000E+00 0. -1.
         -1    1    3    3    0  502  0.48609600510E+02 -0.73990161617E+01  0.78435956046E+02  0.92573418986E+02  0.00000000000E+00 0.  1.
         13    1    5    5    0    0 -0.11055518549E+03  0.15380987354E+03 -0.99476992974E+02  0.21395232733E+03  0.00000000000E+00 0. -1.
        -13    1    5    5    0    0 -0.13985113892E+03  0.10272481539E+03 -0.18928130781E+02  0.17455372493E+03  0.00000000000E+00 0.  1.
          1    1    6    6  503    0 -0.21249387873E+03  0.45101434911E+02  0.49958799547E+03  0.54477146873E+03  0.00000000000E+00 0. -1.
         -1    1    6    6    0  503 -0.10891105068E+03  0.64437983375E+02  0.43680678358E+03  0.45476811326E+03  0.00000000000E+00 0.  1.
<mgrwt>
<rscale>  0 0.18564486E+04</rscale>
<asrwt>0</asrwt>
<pdfrwt beam="1">  1        2 0.33862438E+00 0.18564486E+04</pdfrwt>
<pdfrwt beam="2">  1       -1 0.60222798E-01 0.18564486E+04</pdfrwt>
<totfact> 0.15431903E+01</totfact>
</mgrwt>
</event>
<event>
12    7  0.1675873E-007  0.2317364E+04  0.7818608E-02  0.8471106E-01
          2   -1    0    0  501    0  0.00000000000E+00  0.00000000000E+00  0.15122116347E+04  0.15122116347E+04  0.00000000000E+00 0. -1.
         -1   -1    0    0    0  501 -0.00000000000E+00 -0.00000000000E+00 -0.88780150765E+03  0.88780150765E+03  0.00000000000E+00 0.  1.
         24    2    1    2    0    0  0.19401339166E+03  0.87874501642E+03 -0.12190776852E+03  0.91148022327E+03  0.78106935405E+02 0.  0.
        254    2    1    2    0    0 -0.19401339166E+03 -0.87874501642E+03  0.74631789562E+03  0.14885329191E+04  0.92136086848E+03 0.  0.
         23    2    4    4    0    0  0.28459757314E+03 -0.71197036679E+03  0.41066506106E+03  0.87450660895E+03  0.90655583890E+02 0.  0.
         23    2    4    4    0    0 -0.47861096480E+03 -0.16677464963E+03  0.33565283456E+03  0.61402631018E+03  0.86505750424E+02 0.  0.
          4    1    3    3  502    0  0.15244907904E+02  0.22032609620E+03 -0.21963109664E+02  0.22194227643E+03  0.00000000000E+00 0. -1.
         -3    1    3    3    0  502  0.17876848376E+03  0.65841892023E+03 -0.99944658853E+02  0.68953794684E+03  0.00000000000E+00 0.  1.
         13    1    5    5    0    0  0.25144955573E+03 -0.61652105189E+03  0.31991836760E+03  0.73869672290E+03  0.00000000000E+00 0. -1.
        -13    1    5    5    0    0  0.33148017409E+02 -0.95449314905E+02  0.90746693460E+02  0.13580988605E+03  0.00000000000E+00 0.  1.
          2    1    6    6  503    0 -0.46374858702E+03 -0.17442430795E+03  0.33331581199E+03  0.59714824097E+03  0.00000000000E+00 0. -1.
         -2    1    6    6    0  503 -0.14862377782E+02  0.76496583221E+01  0.23370225655E+01  0.16878069209E+02  0.00000000000E+00 0.  1.
<mgrwt>
<rscale>  0 0.23173638E+04</rscale>
<asrwt>0</asrwt>
<pdfrwt beam="1">  1        2 0.23264794E+00 0.23173638E+04</pdfrwt>
<pdfrwt beam="2">  1       -1 0.13658485E+00 0.23173638E+04</pdfrwt>
<totfact> 0.57596936E+00</totfact>
</mgrwt>
</event>
<event>
12    7  0.1675873E-007  0.2049770E+04  0.7818608E-02  0.8583699E-01
         -1   -1    0    0    0  501 -0.00000000000E+00  0.00000000000E+00  0.18972378571E+04  0.18972378571E+04  0.00000000000E+00 0.  1.
          2   -1    0    0  501    0  0.00000000000E+00 -0.00000000000E+00 -0.55364132850E+03  0.55364132850E+03  0.00000000000E+00 0. -1.
         24    2    1    2    0    0  0.61236207340E+03 -0.54611901132E+03  0.76530446025E+03  0.11251372780E+04  0.83723914688E+02 0.  0.
        254    2    1    2    0    0 -0.61236207340E+03  0.54611901132E+03  0.57829206835E+03  0.13257419076E+04  0.86598880240E+03 0.  0.
         23    2    4    4    0    0 -0.71836202208E+03  0.14733865455E+03  0.50948208853E+03  0.89755661332E+03  0.91012096443E+02 0.  0.
         23    2    4    4    0    0  0.10599994867E+03  0.39878035678E+03  0.68809979813E+02  0.42818529431E+03  0.91356832653E+02 0.  0.
          4    1    3    3  502    0  0.76689939080E+02 -0.38896792166E+02  0.98202020997E+02  0.13052947608E+03  0.00000000000E+00 0. -1.
         -3    1    3    3    0  502  0.53567213432E+03 -0.50722221916E+03  0.66710243925E+03  0.99460780187E+03  0.00000000000E+00 0.  1.
         13    1    5    5    0    0 -0.66516493710E+03  0.11072565888E+03  0.46774420121E+03  0.82066387933E+03  0.00000000000E+00 0.  1.
        -13    1    5    5    0    0 -0.53197084980E+02  0.36612995670E+02  0.41737887324E+02  0.76892733991E+02  0.00000000000E+00 0. -1.
          4    1    6    6  503    0 -0.17775157685E+00  0.16667361229E+03  0.15104109048E+02  0.16735668120E+03  0.00000000000E+00 0. -1.
         -4    1    6    6    0  503  0.10617770025E+03  0.23210674448E+03  0.53705870764E+02  0.26082861312E+03  0.00000000000E+00 0.  1.
<mgrwt>
<rscale>  0 0.20497700E+04</rscale>
<asrwt>0</asrwt>
<pdfrwt beam="1">  1        2 0.85175590E-01 0.20497700E+04</pdfrwt>
<pdfrwt beam="2">  1       -1 0.29188274E+00 0.20497700E+04</pdfrwt>
<totfact> 0.21528056E+00</totfact>
</mgrwt>
</event>
<event>
12    7  0.1675873E-007  0.2594813E+04  0.7818608E-02  0.8369965E-01
         -1   -1    0    0    0  501 -0.00000000000E+00  0.00000000000E+00  0.90480544182E+03  0.90480544182E+03  0.00000000000E+00 0.  1.
          2   -1    0    0  501    0  0.00000000000E+00 -0.00000000000E+00 -0.18603594709E+04  0.18603594709E+04  0.00000000000E+00 0. -1.
         24    2    1    2    0    0  0.77570421341E+03  0.33752609922E+02  0.46854841750E+03  0.91021899469E+03  0.78132793202E+02 0.  0.
        254    2    1    2    0    0 -0.77570421341E+03 -0.33752609922E+02 -0.14241024466E+04  0.18549459180E+04  0.89994461782E+03 0.  0.
         23    2    4    4    0    0 -0.16414487554E+03  0.24490813526E+03 -0.40068367318E+02  0.31369046203E+03  0.99361446383E+02 0.  0.
         23    2    4    4    0    0 -0.61155933787E+03 -0.27866074518E+03 -0.13840340793E+04  0.15412554560E+04  0.90892318065E+02 0.  0.
          4    1    3    3  502    0  0.35807140200E+03  0.53977340556E+02  0.22543527855E+03  0.42655567871E+03  0.00000000000E+00 0. -1.
         -3    1    3    3    0  502  0.41763281141E+03 -0.20224730634E+02  0.24311313894E+03  0.48366331598E+03  0.00000000000E+00 0.  1.
         13    1    5    5    0    0 -0.15227639223E+03  0.18022937212E+03  0.13959116587E+01  0.23595057698E+03  0.00000000000E+00 0. -1.
        -13    1    5    5    0    0 -0.11868483308E+02  0.64678763137E+02 -0.41464278976E+02  0.77739885053E+02  0.00000000000E+00 0.  1.
          2    1    6    6  503    0 -0.32866849770E+03 -0.15994767887E+03 -0.85214516089E+03  0.92723115596E+03  0.00000000000E+00 0. -1.
         -2    1    6    6    0  503 -0.28289084017E+03 -0.11871306631E+03 -0.53188891838E+03  0.61402430006E+03  0.00000000000E+00 0.  1.
<mgrwt>
<rscale>  0 0.25948128E+04</rscale>
<asrwt>0</asrwt>
<pdfrwt beam="1">  1        2 0.28620915E+00 0.25948128E+04</pdfrwt>
<pdfrwt beam="2">  1       -1 0.13920084E+00 0.25948128E+04</pdfrwt>
<totfact> 0.34230536E+00</totfact>
</mgrwt>
</event>
<event>
12    7  0.1675873E-007  0.2208139E+04  0.7818608E-02  0.8515048E-01
          2   -1    0    0  501    0  0.00000000000E+00  0.00000000000E+00  0.10543527770E+04  0.10543527770E+04  0.00000000000E+00 0. -1.
         -1   -1    0    0    0  501 -0.00000000000E+00 -0.00000000000E+00 -0.11561301167E+04  0.11561301167E+04  0.00000000000E+00 0.  1.
         24    2    1    2    0    0  0.18261150989E+03 -0.83594330167E+03 -0.35991526948E+03  0.93323436355E+03  0.96120803911E+02 0.  0.
        254    2    1    2    0    0 -0.18261150989E+03  0.83594330167E+03  0.25813792978E+03  0.12772485302E+04  0.91245846481E+03 0.  0.
         23    2    4    4    0    0 -0.48069255552E+03  0.54001293674E+03 -0.76723154414E+02  0.73234872061E+03  0.88141371497E+02 0.  0.
         23    2    4    4    0    0  0.29808104563E+03  0.29593036493E+03  0.33486108420E+03  0.54489980962E+03  0.91415349664E+02 0.  0.
          4    1    3    3  502    0  0.31858314454E+02 -0.32976200011E+03 -0.11131631716E+03  0.34949857136E+03  0.00000000000E+00 0. -1.
         -3    1    3    3    0  502  0.15075319543E+03 -0.50618130156E+03 -0.24859895232E+03  0.58373579218E+03  0.00000000000E+00 0.  1.
         13    1    5    5    0    0 -0.46128278117E+03  0.51145387434E+03 -0.91490362148E+02  0.69479303116E+03  0.00000000000E+00 0. -1.
        -13    1    5    5    0    0 -0.19409774351E+02  0.28559062398E+02  0.14767207734E+02  0.37555689445E+02  0.00000000000E+00 0.  1.
          3    1    6    6  503    0  0.19066164357E+03  0.12777465734E+03  0.19576150298E+03  0.30166337437E+03  0.00000000000E+00 0. -1.
         -3    1    6    6    0  503  0.10741940206E+03  0.16815570760E+03  0.13909958122E+03  0.24323643525E+03  0.00000000000E+00 0.  1.
<mgrwt>
<rscale>  0 0.22081386E+04</rscale>
<asrwt>0</asrwt>
<pdfrwt beam="1">  1        2 0.16220812E+00 0.22081386E+04</pdfrwt>
<pdfrwt beam="2">  1       -1 0.17786617E+00 0.22081386E+04</pdfrwt>
<totfact> 0.52241735E+00</totfact>
</mgrwt>
</event>
<event>
12    7  0.1675873E-007  0.1123355E+04  0.7818608E-02  0.9182723E-01
         -1   -1    0    0    0  501 -0.00000000000E+00  0.00000000000E+00  0.27106430564E+03  0.27106430564E+03  0.00000000000E+00 0.  1.
          2   -1    0    0  501    0  0.00000000000E+00 -0.00000000000E+00 -0.11638620225E+04  0.11638620225E+04  0.00000000000E+00 0. -1.
         24    2    1    2    0    0 -0.13154084395E+02 -0.25807404678E+02 -0.36433160511E+03  0.37360831269E+03  0.77502262895E+02 0.  0.
        254    2    1    2    0    0  0.13154084395E+02  0.25807404678E+02 -0.52846611171E+03  0.10613180154E+04  0.91993502300E+03 0.  0.
         23    2    4    4    0    0 -0.85984507024E+02 -0.42907239910E+03 -0.25218430762E+03  0.51303734025E+03  0.90077346571E+02 0.  0.
         23    2    4    4    0    0  0.99138591419E+02  0.45487980378E+03 -0.27628180409E+03  0.54828067516E+03  0.86809949221E+02 0.  0.
          4    1    3    3  502    0 -0.25426016262E+02 -0.25701837591E+01 -0.32676453455E+03  0.32776233644E+03  0.00000000000E+00 0. -1.
         -3    1    3    3    0  502  0.12271931867E+02 -0.23237220919E+02 -0.37567070564E+02  0.45845976252E+02  0.00000000000E+00 0.  1.
         13    1    5    5    0    0 -0.24945616128E+02 -0.25302690604E+02 -0.37599350221E+02  0.51732205180E+02  0.00000000000E+00 0.  1.
        -13    1    5    5    0    0 -0.61038890896E+02 -0.40376970850E+03 -0.21458495740E+03  0.46130513507E+03  0.00000000000E+00 0. -1.
          3    1    6    6  503    0  0.90635104535E+02  0.42806835571E+03 -0.28063181040E+03  0.51981867256E+03  0.00000000000E+00 0. -1.
         -3    1    6    6    0  503  0.85034868844E+01  0.26811448073E+02  0.43500063118E+01  0.28462002598E+02  0.00000000000E+00 0.  1.
<mgrwt>
<rscale>  0 0.11233547E+04</rscale>
<asrwt>0</asrwt>
<pdfrwt beam="1">  1        2 0.17905570E+00 0.11233547E+04</pdfrwt>
<pdfrwt beam="2">  1       -1 0.41702200E-01 0.11233547E+04</pdfrwt>
<totfact> 0.12688582E+02</totfact>
</mgrwt>
</event>
<event>
12    7  0.1675873E-007  0.2541027E+04  0.7818608E-02  0.8388514E-01
         -1   -1    0    0    0  501 -0.00000000000E+00  0.00000000000E+00  0.10590714364E+04  0.10590714364E+04  0.00000000000E+00 0.  1.
          2   -1    0    0  501    0  0.00000000000E+00 -0.00000000000E+00 -0.15241696309E+04  0.15241696309E+04  0.00000000000E+00 0. -1.
         24    2    1    2    0    0 -0.74586551802E+03  0.49865704002E+03  0.36410778433E+03  0.97146872322E+03  0.78757774628E+02 0.  0.
        254    2    1    2    0    0  0.74586551802E+03 -0.49865704002E+03 -0.82920597884E+03  0.16117723441E+04  0.10513102869E+04 0.  0.
         23    2    4    4    0    0  0.67464244055E+03 -0.40427871615E+03 -0.23119413825E+02  0.79190530248E+03  0.89419225438E+02 0.  0.
         23    2    4    4    0    0  0.71223077463E+02 -0.94378323870E+02 -0.80608656501E+03  0.81986704165E+03  0.91795538623E+02 0.  0.
          4    1    3    3  502    0 -0.51618699390E+02  0.15101970703E+02  0.12204006024E+02  0.55149772519E+02  0.00000000000E+00 0. -1.
         -3    1    3    3    0  502 -0.69424681863E+03  0.48355506931E+03  0.35190377830E+03  0.91631895070E+03  0.00000000000E+00 0.  1.
         13    1    5    5    0    0  0.35434653634E+03 -0.23934114956E+03 -0.50608245038E+02  0.43058895498E+03  0.00000000000E+00 0. -1.
        -13    1    5    5    0    0  0.32029590421E+03 -0.16493756659E+03  0.27488831213E+02  0.36131634750E+03  0.00000000000E+00 0.  1.
          1    1    6    6  503    0  0.15406111446E+02 -0.31829635354E+02 -0.53373625561E+03  0.53490640724E+03  0.00000000000E+00 0. -1.
         -1    1    6    6    0  503  0.55816966017E+02 -0.62548688517E+02 -0.27235030941E+03  0.28496063441E+03  0.00000000000E+00 0.  1.
<mgrwt>
<rscale>  0 0.25410270E+04</rscale>
<asrwt>0</asrwt>
<pdfrwt beam="1">  1        2 0.23448764E+00 0.25410270E+04</pdfrwt>
<pdfrwt beam="2">  1       -1 0.16293407E+00 0.25410270E+04</pdfrwt>
<totfact> 0.34584618E+00</totfact>
</mgrwt>
</event>
<event>
12    7  0.1675873E-007  0.1189782E+04  0.7818608E-02  0.9121848E-01
          2   -1    0    0  501    0  0.00000000000E+00  0.00000000000E+00  0.80715796387E+03  0.80715796387E+03  0.00000000000E+00 0. -1.
         -1   -1    0    0    0  501 -0.00000000000E+00 -0.00000000000E+00 -0.43844623049E+03  0.43844623049E+03  0.00000000000E+00 0.  1.
         24    2    1    2    0    0 -0.85608778483E+02  0.22536524785E+03  0.12479611774E+03  0.28261246833E+03  0.78596299917E+02 0.  0.
        254    2    1    2    0    0  0.85608778483E+02 -0.22536524785E+03  0.24391561565E+03  0.96299172604E+03  0.89985547671E+03 0.  0.
         23    2    4    4    0    0 -0.91801223068E+02 -0.25835361630E+03 -0.27985213239E+03  0.40138013798E+03  0.87262497929E+02 0.  0.
         23    2    4    4    0    0  0.17741000155E+03  0.32988368450E+02  0.52376774804E+03  0.56161158806E+03  0.92262564749E+02 0.  0.
          2    1    3    3  502    0 -0.79390026573E+02  0.17265044058E+03  0.12850884821E+03  0.22940243029E+03  0.00000000000E+00 0. -1.
         -1    1    3    3    0  502 -0.62187519101E+01  0.52714807271E+02 -0.37127304784E+01  0.53210038043E+02  0.00000000000E+00 0.  1.
         13    1    5    5    0    0 -0.77803597140E+01 -0.39934978703E+02 -0.59504666329E+01  0.41118664551E+02  0.00000000000E+00 0.  1.
        -13    1    5    5    0    0 -0.84020863354E+02 -0.21841863760E+03 -0.27390166576E+03  0.36026147343E+03  0.00000000000E+00 0. -1.
          4    1    6    6  503    0  0.17837119682E+03  0.17560795240E+02  0.51113372336E+03  0.54164780858E+03  0.00000000000E+00 0. -1.
         -4    1    6    6    0  503 -0.96119527262E+00  0.15427573210E+02  0.12634024683E+02  0.19963779482E+02  0.00000000000E+00 0.  1.
<mgrwt>
<rscale>  0 0.11897821E+04</rscale>
<asrwt>0</asrwt>
<pdfrwt beam="1">  1        2 0.12417815E+00 0.11897821E+04</pdfrwt>
<pdfrwt beam="2">  1       -1 0.67453267E-01 0.11897821E+04</pdfrwt>
<totfact> 0.85425851E+01</totfact>
</mgrwt>
</event>
<event>
12    7  0.1675873E-007  0.2703736E+04  0.7818608E-02  0.8333794E-01
          2   -1    0    0  501    0  0.00000000000E+00  0.00000000000E+00  0.35509371266E+04  0.35509371266E+04  0.00000000000E+00 0. -1.
         -1   -1    0    0    0  501 -0.00000000000E+00 -0.00000000000E+00 -0.51466603653E+03  0.51466603653E+03  0.00000000000E+00 0.  1.
         24    2    1    2    0    0 -0.52863658121E+03  0.51742135050E+02 -0.26854720499E+03  0.60043366847E+03  0.79177682378E+02 0.  0.
        254    2    1    2    0    0  0.52863658121E+03 -0.51742135050E+02  0.33048182951E+04  0.34651694947E+04  0.89634913946E+03 0.  0.
         23    2    4    4    0    0  0.76183024035E+03  0.71407930207E+01  0.21712553257E+04  0.23028804774E+04  0.92046172063E+02 0.  0.
         23    2    4    4    0    0 -0.23319365914E+03 -0.58882928071E+02  0.11335629694E+04  0.11622890173E+04  0.90023731541E+02 0.  0.
          4    1    3    3  502    0 -0.65215552263E+01  0.11627544648E+02 -0.79169862123E+01  0.15505132950E+02  0.00000000000E+00 0. -1.
         -3    1    3    3    0  502 -0.52211502598E+03  0.40114590402E+02 -0.26063021878E+03  0.58492853552E+03  0.00000000000E+00 0.  1.
         13    1    5    5    0    0  0.46741916266E+03  0.46696113450E+02  0.12853191136E+04  0.13684686421E+04  0.00000000000E+00 0.  1.
        -13    1    5    5    0    0  0.29441107769E+03 -0.39555320430E+02  0.88593621213E+03  0.93441183533E+03  0.00000000000E+00 0. -1.
          2    1    6    6  503    0 -0.43063390434E+02  0.12575785156E+02  0.34851917343E+03  0.35139467870E+03  0.00000000000E+00 0. -1.
         -2    1    6    6    0  503 -0.19013026871E+03 -0.71458713227E+02  0.78504379597E+03  0.81089433859E+03  0.00000000000E+00 0.  1.
<mgrwt>
<rscale>  0 0.27037357E+04</rscale>
<asrwt>0</asrwt>
<pdfrwt beam="1">  1        2 0.54629800E+00 0.27037357E+04</pdfrwt>
<pdfrwt beam="2">  1       -1 0.79179393E-01 0.27037357E+04</pdfrwt>
<totfact> 0.11901139E+00</totfact>
</mgrwt>
</event>
<event>
12    7  0.1675873E-007  0.3358459E+04  0.7818608E-02  0.8148178E-01
         -1   -1    0    0    0  501 -0.00000000000E+00  0.00000000000E+00  0.12818518387E+04  0.12818518387E+04  0.00000000000E+00 0.  1.
          2   -1    0    0  501    0  0.00000000000E+00 -0.00000000000E+00 -0.21997959617E+04  0.21997959617E+04  0.00000000000E+00 0. -1.
         24    2    1    2    0    0 -0.12716828107E+04  0.75362516277E+03  0.81027008519E+02  0.14831010413E+04  0.88855307421E+02 0.  0.
        254    2    1    2    0    0  0.12716828107E+04 -0.75362516277E+03 -0.99897113153E+03  0.19985467591E+04  0.90062076916E+03 0.  0.
         23    2    4    4    0    0  0.27297521976E+03 -0.21262178288E+03  0.14395631810E+03  0.38461623139E+03  0.86502778959E+02 0.  0.
         23    2    4    4    0    0  0.99870759091E+03 -0.54100337989E+03 -0.11429274496E+04  0.16139305277E+04  0.91581024387E+02 0.  0.
          4    1    3    3  502    0 -0.10140789419E+04  0.58066922631E+03  0.95717442717E+02  0.11724737437E+04  0.00000000000E+00 0. -1.
         -3    1    3    3    0  502 -0.25760386878E+03  0.17295593646E+03 -0.14690434198E+02  0.31062729762E+03  0.00000000000E+00 0.  1.
         13    1    5    5    0    0  0.15170948918E+03 -0.15642628661E+03  0.57264603760E+02  0.22530909235E+03  0.00000000000E+00 0.  1.
        -13    1    5    5    0    0  0.12126573058E+03 -0.56195496267E+02  0.86691714340E+02  0.15930713904E+03  0.00000000000E+00 0. -1.
          1    1    6    6  503    0  0.25206163631E+03 -0.17803590365E+03 -0.28455134060E+03  0.41976340589E+03  0.00000000000E+00 0. -1.
         -1    1    6    6    0  503  0.74664595460E+03 -0.36296747624E+03 -0.85837610903E+03  0.11941671218E+04  0.00000000000E+00 0.  1.
<mgrwt>
<rscale>  0 0.33584595E+04</rscale>
<asrwt>0</asrwt>
<pdfrwt beam="1">  1        2 0.33843015E+00 0.33584595E+04</pdfrwt>
<pdfrwt beam="2">  1       -1 0.19720797E+00 0.33584595E+04</pdfrwt>
<totfact> 0.76815447E-01</totfact>
</mgrwt>
</event>
<event>
12    7  0.1675873E-007  0.2758485E+04  0.7818608E-02  0.8316274E-01
          2   -1    0    0  501    0  0.00000000000E+00  0.00000000000E+00  0.38894447867E+04  0.38894447867E+04  0.00000000000E+00 0. -1.
         -1   -1    0    0    0  501 -0.00000000000E+00 -0.00000000000E+00 -0.48909537092E+03  0.48909537092E+03  0.00000000000E+00 0.  1.
         24    2    1    2    0    0 -0.21588109852E+03  0.17520538625E+03  0.34257522184E+04  0.34379401557E+04  0.79703679285E+02 0.  0.
        254    2    1    2    0    0  0.21588109852E+03 -0.17520538625E+03 -0.25402802636E+02  0.94060000186E+03  0.89821015639E+03 0.  0.
         23    2    4    4    0    0  0.55226441426E+03 -0.54248689056E+02 -0.80476173769E+02  0.56795965855E+03  0.90348523331E+02 0.  0.
         23    2    4    4    0    0 -0.33638331574E+03 -0.12095669720E+03  0.55073371133E+02  0.37264034331E+03  0.89685514722E+02 0.  0.
          4    1    3    3  502    0 -0.19786858880E+03  0.17907641907E+03  0.33088942233E+04  0.33196387338E+04  0.00000000000E+00 0. -1.
         -3    1    3    3    0  502 -0.18012509717E+02 -0.38710328235E+01  0.11685799514E+03  0.11830142193E+03  0.00000000000E+00 0.  1.
         13    1    5    5    0    0  0.33784323375E+03 -0.11281308743E+02 -0.87465744513E+02  0.34916410896E+03  0.00000000000E+00 0. -1.
        -13    1    5    5    0    0  0.21442118051E+03 -0.42967380312E+02  0.69895707440E+01  0.21879554959E+03  0.00000000000E+00 0.  1.
          4    1    6    6  503    0 -0.15738203775E+03 -0.10422114835E+03  0.27330121726E+02  0.19073040954E+03  0.00000000000E+00 0. -1.
         -4    1    6    6    0  503 -0.17900127799E+03 -0.16735548846E+02  0.27743249407E+02  0.18190993378E+03  0.00000000000E+00 0.  1.
<mgrwt>
<rscale>  0 0.27584847E+04</rscale>
<asrwt>0</asrwt>
<pdfrwt beam="1">  1        2 0.59837610E+00 0.27584847E+04</pdfrwt>
<pdfrwt beam="2">  1       -1 0.75245444E-01 0.27584847E+04</pdfrwt>
<totfact> 0.73887816E-01</totfact>
</mgrwt>
</event>
<event>
12    7  0.1675873E-007  0.1451925E+04  0.7818608E-02  0.8917067E-01
          2   -1    0    0  501    0  0.00000000000E+00  0.00000000000E+00  0.75214728605E+03  0.75214728605E+03  0.00000000000E+00 0. -1.
         -1   -1    0    0    0  501 -0.00000000000E+00 -0.00000000000E+00 -0.70068941292E+03  0.70068941292E+03  0.00000000000E+00 0.  1.
         24    2    1    2    0    0  0.49746837873E+02 -0.21342541704E+03 -0.37369414392E+03  0.44141511146E+03  0.84704373630E+02 0.  0.
        254    2    1    2    0    0 -0.49746837873E+02  0.21342541704E+03  0.42515201705E+03  0.10114215875E+04  0.89117575907E+03 0.  0.
         23    2    4    4    0    0  0.20410921727E+03 -0.36718249352E+02 -0.18944626094E+03  0.29529186796E+03  0.91096646970E+02 0.  0.
         23    2    4    4    0    0 -0.25385605514E+03  0.25014366639E+03  0.61459827798E+03  0.71612971955E+03  0.89977671432E+02 0.  0.
          4    1    3    3  502    0  0.64037154311E+01  0.11503217902E+01  0.18162616940E+01  0.67549698804E+01  0.00000000000E+00 0. -1.
         -3    1    3    3    0  502  0.43343122442E+02 -0.21457573883E+03 -0.37551040561E+03  0.43466014158E+03  0.00000000000E+00 0.  1.
         13    1    5    5    0    0  0.68273907354E+02  0.24508793374E+02 -0.92421016185E+02  0.11748894250E+03  0.00000000000E+00 0. -1.
        -13    1    5    5    0    0  0.13583530991E+03 -0.61227042726E+02 -0.97025244751E+02  0.17780292545E+03  0.00000000000E+00 0.  1.
          1    1    6    6  503    0 -0.34687659246E+01  0.38096908269E+02  0.47935975062E+02  0.61329148550E+02  0.00000000000E+00 0. -1.
         -1    1    6    6    0  503 -0.25038728922E+03  0.21204675812E+03  0.56666230292E+03  0.65480057100E+03  0.00000000000E+00 0.  1.
<mgrwt>
<rscale>  0 0.14519251E+04</rscale>
<asrwt>0</asrwt>
<pdfrwt beam="1">  1        2 0.11571497E+00 0.14519251E+04</pdfrwt>
<pdfrwt beam="2">  1       -1 0.10779837E+00 0.14519251E+04</pdfrwt>
<totfact> 0.33127596E+01</totfact>
</mgrwt>
</event>
<event>
12    7  0.1675873E-007  0.1750660E+04  0.7818608E-02  0.8732987E-01
         -1   -1    0    0    0  501 -0.00000000000E+00  0.00000000000E+00  0.24248277648E+03  0.24248277648E+03  0.00000000000E+00 0.  1.
          2   -1    0    0  501    0  0.00000000000E+00 -0.00000000000E+00 -0.31598241872E+04  0.31598241872E+04  0.00000000000E+00 0. -1.
         24    2    1    2    0    0  0.32799571118E+03 -0.12996585846E+03 -0.21413335825E+04  0.21716974190E+04  0.80547234195E+02 0.  0.
        254    2    1    2    0    0 -0.32799571118E+03  0.12996585846E+03 -0.77600782821E+03  0.12306095447E+04  0.88754683889E+03 0.  0.
         23    2    4    4    0    0  0.19515687726E+03  0.10226173860E+03 -0.63936278778E+03  0.68166013049E+03  0.85627619209E+02 0.  0.
         23    2    4    4    0    0 -0.52315258844E+03  0.27704119864E+02 -0.13664504042E+03  0.54894941424E+03  0.90650114589E+02 0.  0.
          4    1    3    3  502    0  0.19051823199E+03 -0.32533166493E+02 -0.11700871042E+04  0.11859424249E+04  0.00000000000E+00 0. -1.
         -3    1    3    3    0  502  0.13747747919E+03 -0.97432691971E+02 -0.97124647829E+03  0.98575499408E+03  0.00000000000E+00 0.  1.
         13    1    5    5    0    0  0.15246545635E+03  0.89429892720E+02 -0.38787001357E+03  0.42624707450E+03  0.00000000000E+00 0. -1.
        -13    1    5    5    0    0  0.42691420909E+02  0.12831845880E+02 -0.25149277421E+03  0.25541305599E+03  0.00000000000E+00 0.  1.
          3    1    6    6  503    0 -0.32808824678E+03  0.50674908806E+02 -0.56202487944E+02  0.33670248545E+03  0.00000000000E+00 0. -1.
         -3    1    6    6    0  503 -0.19506434167E+03 -0.22970788942E+02 -0.80442552478E+02  0.21224692880E+03  0.00000000000E+00 0.  1.
<mgrwt>
<rscale>  0 0.17506604E+04</rscale>
<asrwt>0</asrwt>
<pdfrwt beam="1">  1        2 0.48612676E+00 0.17506604E+04</pdfrwt>
<pdfrwt beam="2">  1       -1 0.37305046E-01 0.17506604E+04</pdfrwt>
<totfact> 0.10336421E+01</totfact>
</mgrwt>
</event>
<event>
12    7  0.1675873E-007  0.2960700E+04  0.7818608E-02  0.8255043E-01
          2   -1    0    0  501    0  0.00000000000E+00  0.00000000000E+00  0.14249448744E+04  0.14249448744E+04  0.00000000000E+00 0. -1.
         -1   -1    0    0    0  501 -0.00000000000E+00 -0.00000000000E+00 -0.15379092681E+04  0.15379092681E+04  0.00000000000E+00 0.  1.
         24    2    1    2    0    0  0.36038264130E+03  0.12860571508E+04 -0.17222302322E+03  0.13489807654E+04  0.79181389839E+02 0.  0.
        254    2    1    2    0    0 -0.36038264130E+03 -0.12860571508E+04  0.59258629542E+02  0.16138733770E+04  0.90402270365E+03 0.  0.
         23    2    4    4    0    0 -0.41916757246E+03 -0.85542371620E+03  0.41597487191E+03  0.10440488224E+04  0.97732601778E+02 0.  0.
         23    2    4    4    0    0  0.58784931161E+02 -0.43063343457E+03 -0.35671624236E+03  0.56982455463E+03  0.92480929897E+02 0.  0.
          4    1    3    3  502    0  0.27203426910E+03  0.88891436251E+03 -0.90499406697E+02  0.93400296041E+03  0.00000000000E+00 0. -1.
         -3    1    3    3    0  502  0.88348372197E+02  0.39714278825E+03 -0.81723616527E+02  0.41497780498E+03  0.00000000000E+00 0.  1.
         13    1    5    5    0    0 -0.20742690901E+03 -0.52197211641E+03  0.26676811213E+03  0.62180868323E+03  0.00000000000E+00 0. -1.
        -13    1    5    5    0    0 -0.21174066344E+03 -0.33345159979E+03  0.14920675977E+03  0.42224013916E+03  0.00000000000E+00 0.  1.
          2    1    6    6  503    0  0.16192978447E+02 -0.34698108624E+03 -0.30710294091E+03  0.46364890065E+03  0.00000000000E+00 0. -1.
         -2    1    6    6    0  503  0.42591952714E+02 -0.83652348328E+02 -0.49613301451E+02  0.10617565398E+03  0.00000000000E+00 0.  1.
<mgrwt>
<rscale>  0 0.29606999E+04</rscale>
<asrwt>0</asrwt>
<pdfrwt beam="1">  1        2 0.21922229E+00 0.29606999E+04</pdfrwt>
<pdfrwt beam="2">  1       -1 0.23660143E+00 0.29606999E+04</pdfrwt>
<totfact> 0.11690187E+00</totfact>
</mgrwt>
</event>
<event>
12    7  0.1675873E-007  0.2545775E+04  0.7818608E-02  0.8386857E-01
          2   -1    0    0  501    0  0.00000000000E+00  0.00000000000E+00  0.28716362956E+04  0.28716362956E+04  0.00000000000E+00 0. -1.
         -1   -1    0    0    0  501 -0.00000000000E+00 -0.00000000000E+00 -0.56422272162E+03  0.56422272162E+03  0.00000000000E+00 0.  1.
         24    2    1    2    0    0 -0.35948846967E+03  0.11145279537E+03  0.24236349082E+04  0.24539848201E+04  0.79885192209E+02 0.  0.
        254    2    1    2    0    0  0.35948846967E+03 -0.11145279537E+03 -0.11622133415E+03  0.98187419711E+03  0.89939749557E+03 0.  0.
         23    2    4    4    0    0 -0.21745414197E+03 -0.25892652471E+03  0.55425796953E+02  0.35538784191E+03  0.94335837048E+02 0.  0.
         23    2    4    4    0    0  0.57694261164E+03  0.14747372934E+03 -0.17164713111E+03  0.62648635520E+03  0.91712254703E+02 0.  0.
          4    1    3    3  502    0 -0.28194378150E+03  0.11257082840E+03  0.20528307085E+04  0.20751574410E+04  0.00000000000E+00 0. -1.
         -3    1    3    3    0  502 -0.77544688170E+02 -0.11180330298E+01  0.37080419966E+03  0.37882737909E+03  0.00000000000E+00 0.  1.
         13    1    5    5    0    0 -0.39465678802E+02 -0.11486404426E+03  0.93543795814E+01  0.12181458404E+03  0.00000000000E+00 0.  1.
        -13    1    5    5    0    0 -0.17798846317E+03 -0.14406248045E+03  0.46071417371E+02  0.23357325788E+03  0.00000000000E+00 0. -1.
          3    1    6    6  503    0  0.57466941513E+03  0.14928972306E+03 -0.17770396982E+03  0.61976693925E+03  0.00000000000E+00 0. -1.
         -3    1    6    6    0  503  0.22731965148E+01 -0.18159937222E+01  0.60568387113E+01  0.67194159544E+01  0.00000000000E+00 0.  1.
<mgrwt>
<rscale>  0 0.25457749E+04</rscale>
<asrwt>0</asrwt>
<pdfrwt beam="1">  1        2 0.44179019E+00 0.25457749E+04</pdfrwt>
<pdfrwt beam="2">  1       -1 0.86803498E-01 0.25457749E+04</pdfrwt>
<totfact> 0.27633886E+00</totfact>
</mgrwt>
</event>
<event>
12    7  0.1675873E-007  0.3515035E+04  0.7818608E-02  0.8110236E-01
          2   -1    0    0  501    0  0.00000000000E+00  0.00000000000E+00  0.32973915127E+04  0.32973915127E+04  0.00000000000E+00 0. -1.
         -1   -1    0    0    0  501 -0.00000000000E+00 -0.00000000000E+00 -0.93676117619E+03  0.93676117619E+03  0.00000000000E+00 0.  1.
         24    2    1    2    0    0  0.14353828449E+04  0.21484046503E+03  0.20353677761E+04  0.25011119703E+04  0.79741877770E+02 0.  0.
        254    2    1    2    0    0 -0.14353828449E+04 -0.21484046503E+03  0.32526256041E+03  0.17330407186E+04  0.88946841567E+03 0.  0.
         23    2    4    4    0    0 -0.17015421453E+02 -0.22069182564E+03  0.18789781708E+03  0.30515996418E+03  0.93928736853E+02 0.  0.
         23    2    4    4    0    0 -0.14183674234E+04  0.58513606092E+01  0.13736474333E+03  0.14278807544E+04  0.90410121005E+02 0.  0.
          2    1    3    3  502    0  0.13879053953E+04  0.19449856023E+03  0.19738818518E+04  0.24208099143E+04  0.00000000000E+00 0. -1.
         -1    1    3    3    0  502  0.47477449551E+02  0.20341904805E+02  0.61485924371E+02  0.80302056030E+02  0.00000000000E+00 0.  1.
         13    1    5    5    0    0 -0.53536854424E+01 -0.67760822342E+02  0.75150385866E+01  0.68386159399E+02  0.00000000000E+00 0. -1.
        -13    1    5    5    0    0 -0.11661736011E+02 -0.15293100330E+03  0.18038277849E+03  0.23677380479E+03  0.00000000000E+00 0.  1.
          3    1    6    6  503    0 -0.80481684945E+03  0.40264316977E+02  0.10336777109E+03  0.81242616433E+03  0.00000000000E+00 0. -1.
         -3    1    6    6    0  503 -0.61355057396E+03 -0.34412956368E+02  0.33996972240E+02  0.61545459011E+03  0.00000000000E+00 0.  1.
<mgrwt>
<rscale>  0 0.35150353E+04</rscale>
<asrwt>0</asrwt>
<pdfrwt beam="1">  1        2 0.50729100E+00 0.35150353E+04</pdfrwt>
<pdfrwt beam="2">  1       -1 0.14411711E+00 0.35150353E+04</pdfrwt>
<totfact> 0.40414500E-01</totfact>
</mgrwt>
</event>
<event>
12    7  0.1675873E-007  0.1302820E+04  0.7818608E-02  0.9027332E-01
         -1   -1    0    0    0  501 -0.00000000000E+00  0.00000000000E+00  0.22779341427E+03  0.22779341427E+03  0.00000000000E+00 0.  1.
          2   -1    0    0  501    0  0.00000000000E+00 -0.00000000000E+00 -0.18628065082E+04  0.18628065082E+04  0.00000000000E+00 0. -1.
         24    2    1    2    0    0 -0.13443770096E+03  0.10548319226E+03  0.22286815281E+02  0.18978725588E+03  0.79512898774E+02 0.  0.
        254    2    1    2    0    0  0.13443770096E+03 -0.10548319226E+03 -0.16572999092E+04  0.19008126666E+04  0.91501125955E+03 0.  0.
         23    2    4    4    0    0  0.23071900817E+03  0.24705709800E+03 -0.21541985153E+03  0.41031315862E+03  0.87651042752E+02 0.  0.
         23    2    4    4    0    0 -0.96281307217E+02 -0.35254029026E+03 -0.14418800576E+04  0.14904995079E+04  0.94952283547E+02 0.  0.
          2    1    3    3  502    0 -0.33973431290E+02  0.37713864240E+02 -0.28702132897E+02  0.58312451692E+02  0.00000000000E+00 0. -1.
         -1    1    3    3    0  502 -0.10046426967E+03  0.67769328015E+02  0.50988948178E+02  0.13147480419E+03  0.00000000000E+00 0.  1.
         13    1    5    5    0    0  0.32557029623E+02  0.51907363077E+02 -0.48382759911E+01  0.61463350332E+02  0.00000000000E+00 0. -1.
        -13    1    5    5    0    0  0.19816197855E+03  0.19514973493E+03 -0.21058157554E+03  0.34884980829E+03  0.00000000000E+00 0.  1.
          1    1    6    6  503    0  0.87967246793E+01 -0.18099956693E+00 -0.20061427916E+02  0.21906072582E+02  0.00000000000E+00 0. -1.
         -1    1    6    6    0  503 -0.10507803190E+03 -0.35235929069E+03 -0.14218186297E+04  0.14685934354E+04  0.00000000000E+00 0.  1.
<mgrwt>
<rscale>  0 0.13028201E+04</rscale>
<asrwt>0</asrwt>
<pdfrwt beam="1">  1        2 0.28658561E+00 0.13028201E+04</pdfrwt>
<pdfrwt beam="2">  1       -1 0.35045141E-01 0.13028201E+04</pdfrwt>
<totfact> 0.68847099E+01</totfact>
</mgrwt>
</event>
<event>
12    7  0.1675873E-007  0.2878136E+04  0.7818608E-02  0.8279412E-01
         -1   -1    0    0    0  501 -0.00000000000E+00  0.00000000000E+00  0.12557375699E+04  0.12557375699E+04  0.00000000000E+00 0.  1.
          2   -1    0    0  501    0  0.00000000000E+00 -0.00000000000E+00 -0.16491639986E+04  0.16491639986E+04  0.00000000000E+00 0. -1.
         24    2    1    2    0    0  0.26109392146E+03  0.10189164546E+04 -0.93219297246E+03  0.14077286559E+04  0.79721098036E+02 0.  0.
        254    2    1    2    0    0 -0.26109392146E+03 -0.10189164546E+04  0.53876654381E+03  0.14971729126E+04  0.91918255217E+03 0.  0.
         23    2    4    4    0    0 -0.22665226800E+03 -0.75463139256E+03  0.78965219906E+03  0.11197981788E+04  0.97762858569E+02 0.  0.
         23    2    4    4    0    0 -0.34441653459E+02 -0.26428506204E+03 -0.25088565525E+03  0.37737473381E+03  0.91843650806E+02 0.  0.
          4    1    3    3  502    0  0.24234041572E+03  0.99163793285E+03 -0.91251718337E+03  0.13692195868E+04  0.00000000000E+00 0. -1.
         -3    1    3    3    0  502  0.18753505736E+02  0.27278521754E+02 -0.19675789099E+02  0.38509069102E+02  0.00000000000E+00 0.  1.
         13    1    5    5    0    0 -0.99712882137E+02 -0.19280159290E+03  0.24063133064E+03  0.32406565751E+03  0.00000000000E+00 0. -1.
        -13    1    5    5    0    0 -0.12693938586E+03 -0.56182979966E+03  0.54902086842E+03  0.79573252129E+03  0.00000000000E+00 0.  1.
          3    1    6    6  503    0 -0.53575606629E+02 -0.79527624883E+02 -0.93245112898E+02  0.13375215821E+03  0.00000000000E+00 0. -1.
         -3    1    6    6    0  503  0.19133953170E+02 -0.18475743716E+03 -0.15764054235E+03  0.24362257560E+03  0.00000000000E+00 0.  1.
<mgrwt>
<rscale>  0 0.28781363E+04</rscale>
<asrwt>0</asrwt>
<pdfrwt beam="1">  1        2 0.25371754E+00 0.28781363E+04</pdfrwt>
<pdfrwt beam="2">  1       -1 0.19319040E+00 0.28781363E+04</pdfrwt>
<totfact> 0.17292820E+00</totfact>
</mgrwt>
</event>
<event>
12    7  0.1675873E-007  0.1816567E+04  0.7818608E-02  0.8697539E-01
         -1   -1    0    0    0  501 -0.00000000000E+00  0.00000000000E+00  0.73576444293E+03  0.73576444293E+03  0.00000000000E+00 0.  1.
          2   -1    0    0  501    0  0.00000000000E+00 -0.00000000000E+00 -0.11212541363E+04  0.11212541363E+04  0.00000000000E+00 0. -1.
         24    2    1    2    0    0  0.36009084440E+03 -0.25963517961E+03 -0.67961272514E+03  0.81537625554E+03  0.76740727243E+02 0.  0.
        254    2    1    2    0    0 -0.36009084440E+03  0.25963517961E+03  0.29412303177E+03  0.10416423237E+04  0.89522875846E+03 0.  0.
         23    2    4    4    0    0 -0.45598284767E+03 -0.21013567294E+03  0.17472588210E+03  0.53945687392E+03  0.91690929427E+02 0.  0.
         23    2    4    4    0    0  0.95892003266E+02  0.46977085255E+03  0.11939714968E+03  0.50218544977E+03  0.89747514820E+02 0.  0.
          2    1    3    3  502    0  0.26969177683E+03 -0.17332425106E+03 -0.43145588761E+03  0.53752128650E+03  0.00000000000E+00 0. -1.
         -1    1    3    3    0  502  0.90399067574E+02 -0.86310928553E+02 -0.24815683753E+03  0.27785496904E+03  0.00000000000E+00 0.  1.
         13    1    5    5    0    0 -0.71635600169E+02  0.14007155836E+01  0.25873862097E+02  0.76177936146E+02  0.00000000000E+00 0.  1.
        -13    1    5    5    0    0 -0.38434724750E+03 -0.21153638852E+03  0.14885202000E+03  0.46327893777E+03  0.00000000000E+00 0. -1.
          2    1    6    6  503    0  0.96829137841E+02  0.45093914098E+03  0.13172284240E+03  0.47965914774E+03  0.00000000000E+00 0. -1.
         -2    1    6    6    0  503 -0.93713457480E+00  0.18831711568E+02 -0.12325692728E+02  0.22526302027E+02  0.00000000000E+00 0.  1.
<mgrwt>
<rscale>  0 0.18165670E+04</rscale>
<asrwt>0</asrwt>
<pdfrwt beam="1">  1        2 0.17250064E+00 0.18165670E+04</pdfrwt>
<pdfrwt beam="2">  1       -1 0.11319453E+00 0.18165670E+04</pdfrwt>
<totfact> 0.16207496E+01</totfact>
</mgrwt>
</event>
<event>
12    7  0.1675873E-007  0.3241415E+04  0.7818608E-02  0.8177965E-01
         -1   -1    0    0    0  501 -0.00000000000E+00  0.00000000000E+00  0.16142370265E+04  0.16142370265E+04  0.00000000000E+00 0.  1.
          2   -1    0    0  501    0  0.00000000000E+00 -0.00000000000E+00 -0.16272034077E+04  0.16272034077E+04  0.00000000000E+00 0. -1.
         24    2    1    2    0    0 -0.68370743811E+03  0.57451928529E+03  0.11954694542E+04  0.14946458706E+04  0.85386137368E+02 0.  0.
        254    2    1    2    0    0  0.68370743811E+03 -0.57451928529E+03 -0.12084358354E+04  0.17467945636E+04  0.89075575156E+03 0.  0.
         23    2    4    4    0    0 -0.14476300977E+03  0.20094210649E+02 -0.42290642164E+03  0.45635122999E+03  0.89702270599E+02 0.  0.
         23    2    4    4    0    0  0.82847044789E+03 -0.59461349593E+03 -0.78552941377E+03  0.12904433336E+04  0.90879286581E+02 0.  0.
          2    1    3    3  502    0 -0.46229947619E+03  0.33620185322E+03  0.77698162747E+03  0.96459988660E+03  0.00000000000E+00 0. -1.
         -1    1    3    3    0  502 -0.22140796192E+03  0.23831743207E+03  0.41848782674E+03  0.53004598400E+03  0.00000000000E+00 0.  1.
         13    1    5    5    0    0 -0.94100498817E+02  0.89612762378E+01 -0.37144281196E+03  0.38328184265E+03  0.00000000000E+00 0. -1.
        -13    1    5    5    0    0 -0.50662510958E+02  0.11132934411E+02 -0.51463609680E+02  0.73069387342E+02  0.00000000000E+00 0.  1.
          3    1    6    6  503    0  0.59412211844E+03 -0.42885155667E+03 -0.51156756589E+03  0.89364205572E+03  0.00000000000E+00 0. -1.
         -3    1    6    6    0  503  0.23434832944E+03 -0.16576193926E+03 -0.27396184788E+03  0.39680127786E+03  0.00000000000E+00 0.  1.
<mgrwt>
<rscale>  0 0.32414145E+04</rscale>
<asrwt>0</asrwt>
<pdfrwt beam="1">  1        2 0.25033899E+00 0.32414145E+04</pdfrwt>
<pdfrwt beam="2">  1       -1 0.24834416E+00 0.32414145E+04</pdfrwt>
<totfact> 0.73522633E-01</totfact>
</mgrwt>
</event>
<event>
12    7  0.1675873E-007  0.1652199E+04  0.7818608E-02  0.8789107E-01
         -1   -1    0    0    0  501 -0.00000000000E+00  0.00000000000E+00  0.11155999977E+04  0.11155999977E+04  0.00000000000E+00 0.  1.
          2   -1    0    0  501    0  0.00000000000E+00 -0.00000000000E+00 -0.61172511702E+03  0.61172511702E+03  0.00000000000E+00 0. -1.
         24    2    1    2    0    0 -0.28736260338E+02 -0.36014639547E+03  0.65328969460E+03  0.75032708228E+03  0.75313388656E+02 0.  0.
        254    2    1    2    0    0  0.28736260338E+02  0.36014639547E+03 -0.14941481393E+03  0.97699803243E+03  0.89535979915E+03 0.  0.
         23    2    4    4    0    0  0.20798329012E+03  0.58205422390E+03  0.34136518928E+02  0.62605897389E+03  0.93489937047E+02 0.  0.
         23    2    4    4    0    0 -0.17924702979E+03 -0.22190782843E+03 -0.18355133285E+03  0.35093905854E+03  0.89969711651E+02 0.  0.
          2    1    3    3  502    0 -0.45205337983E+02 -0.11888446089E+03  0.23076206709E+03  0.26349225649E+03  0.00000000000E+00 0. -1.
         -1    1    3    3    0  502  0.16469077645E+02 -0.24126193458E+03  0.42252762751E+03  0.48683482579E+03  0.00000000000E+00 0.  1.
         13    1    5    5    0    0  0.80739021655E+02  0.14873834979E+03  0.42020486385E+02  0.17437777264E+03  0.00000000000E+00 0. -1.
        -13    1    5    5    0    0  0.12724426847E+03  0.43331587411E+03 -0.78839674570E+01  0.45168120124E+03  0.00000000000E+00 0.  1.
          1    1    6    6  503    0 -0.39807656150E+02 -0.52079210435E+01 -0.14194953107E+02  0.42582491983E+02  0.00000000000E+00 0. -1.
         -1    1    6    6    0  503 -0.13943937364E+03 -0.21669990739E+03 -0.16935637975E+03  0.30835656656E+03  0.00000000000E+00 0.  1.
<mgrwt>
<rscale>  0 0.16521992E+04</rscale>
<asrwt>0</asrwt>
<pdfrwt beam="1">  1        2 0.94111556E-01 0.16521992E+04</pdfrwt>
<pdfrwt beam="2">  1       -1 0.17163077E+00 0.16521992E+04</pdfrwt>
<totfact> 0.12651631E+01</totfact>
</mgrwt>
</event>
<event>
12    7  0.1675873E-007  0.1566359E+04  0.7818608E-02  0.8841486E-01
         -1   -1    0    0    0  501 -0.00000000000E+00  0.00000000000E+00  0.17076247357E+03  0.17076247357E+03  0.00000000000E+00 0.  1.
          2   -1    0    0  501    0  0.00000000000E+00 -0.00000000000E+00 -0.35919493007E+04  0.35919493007E+04  0.00000000000E+00 0. -1.
         24    2    1    2    0    0  0.46339762060E+02  0.30160653654E+03 -0.22625194825E+04  0.22843813407E+04  0.79308414806E+02 0.  0.
        254    2    1    2    0    0 -0.46339762060E+02 -0.30160653654E+03 -0.11586673446E+04  0.14783304336E+04  0.86593127836E+03 0.  0.
         23    2    4    4    0    0  0.27602368681E+03 -0.32263250988E+03 -0.23185874197E+03  0.49219025967E+03  0.90619883986E+02 0.  0.
         23    2    4    4    0    0 -0.32236344887E+03  0.21025973342E+02 -0.92680860267E+03  0.98614017389E+03  0.95592739528E+02 0.  0.
          2    1    3    3  502    0  0.67923057330E+02  0.23485645903E+03 -0.18165296493E+04  0.18329078168E+04  0.00000000000E+00 0. -1.
         -1    1    3    3    0  502 -0.21583295270E+02  0.66750077512E+02 -0.44598983318E+03  0.45147352390E+03  0.00000000000E+00 0.  1.
         13    1    5    5    0    0  0.16570321908E+03 -0.21098728391E+03 -0.19302176162E+03  0.33050051625E+03  0.00000000000E+00 0.  1.
        -13    1    5    5    0    0  0.11032046774E+03 -0.11164522597E+03 -0.38836980344E+02  0.16168974342E+03  0.00000000000E+00 0. -1.
          1    1    6    6  503    0 -0.17190492171E+03 -0.11353952386E+02 -0.61104292501E+03  0.63486508059E+03  0.00000000000E+00 0. -1.
         -1    1    6    6    0  503 -0.15045852717E+03  0.32379925728E+02 -0.31576567766E+03  0.35127509330E+03  0.00000000000E+00 0.  1.
<mgrwt>
<rscale>  0 0.15663590E+04</rscale>
<asrwt>0</asrwt>
<pdfrwt beam="1">  1        2 0.55260748E+00 0.15663590E+04</pdfrwt>
<pdfrwt beam="2">  1       -1 0.26271155E-01 0.15663590E+04</pdfrwt>
<totfact> 0.99884043E+00</totfact>
</mgrwt>
</event>
<event>
12    7  0.1675873E-007  0.1408011E+04  0.7818608E-02  0.8948040E-01
          2   -1    0    0  501    0  0.00000000000E+00  0.00000000000E+00  0.17160058689E+04  0.17160058689E+04  0.00000000000E+00 0. -1.
         -1   -1    0    0    0  501 -0.00000000000E+00 -0.00000000000E+00 -0.28882412323E+03  0.28882412323E+03  0.00000000000E+00 0.  1.
         24    2    1    2    0    0 -0.21157242450E+01  0.19316871679E+03 -0.92014647380E+02  0.22837647181E+03  0.79815337541E+02 0.  0.
        254    2    1    2    0    0  0.21157242450E+01 -0.19316871679E+03  0.15191963930E+04  0.17764535203E+04  0.90028373290E+03 0.  0.
         23    2    4    4    0    0 -0.39055685487E+02 -0.11443996043E+03 -0.81166466604E+02  0.17114109783E+03  0.89885643769E+02 0.  0.
         23    2    4    4    0    0  0.41171409732E+02 -0.78728756366E+02  0.16003628596E+04  0.16053124224E+04  0.89293836058E+02 0.  0.
          4    1    3    3  502    0 -0.19226045809E+02  0.16581169065E+02  0.54298480018E+01  0.25962651142E+02  0.00000000000E+00 0. -1.
         -3    1    3    3    0  502  0.17110321564E+02  0.17658754773E+03 -0.97444495382E+02  0.20241382066E+03  0.00000000000E+00 0.  1.
         13    1    5    5    0    0 -0.35478387532E+02 -0.12092304599E+03 -0.93387928468E+02  0.15685153559E+03  0.00000000000E+00 0. -1.
        -13    1    5    5    0    0 -0.35772979550E+01  0.64830855631E+01  0.12221461864E+02  0.14289562245E+02  0.00000000000E+00 0.  1.
          2    1    6    6  503    0  0.63287743035E+02 -0.81465913987E+02  0.12560932762E+04  0.12603223207E+04  0.00000000000E+00 0. -1.
         -2    1    6    6    0  503 -0.22116333303E+02  0.27371576211E+01  0.34426958343E+03  0.34499010175E+03  0.00000000000E+00 0.  1.
<mgrwt>
<rscale>  0 0.14080112E+04</rscale>
<asrwt>0</asrwt>
<pdfrwt beam="1">  1        2 0.26400090E+00 0.14080112E+04</pdfrwt>
<pdfrwt beam="2">  1       -1 0.44434481E-01 0.14080112E+04</pdfrwt>
<totfact> 0.53390057E+01</totfact>
</mgrwt>
</event>
<event>
12    7  0.1675873E-007  0.3872600E+04  0.7818608E-02  0.8030752E-01
          2   -1    0    0  501    0  0.00000000000E+00  0.00000000000E+00  0.17081434481E+04  0.17081434481E+04  0.00000000000E+00 0. -1.
         -1   -1    0    0    0  501 -0.00000000000E+00 -0.00000000000E+00 -0.21949312411E+04  0.21949312411E+04  0.00000000000E+00 0.  1.
         24    2    1    2    0    0 -0.77405500771E+03  0.72149117758E+03  0.12750298494E+04  0.16588924106E+04  0.80698444092E+02 0.  0.
        254    2    1    2    0    0  0.77405500771E+03 -0.72149117758E+03 -0.17618176424E+04  0.22441822786E+04  0.90146659425E+03 0.  0.
         23    2    4    4    0    0  0.22214618451E+03 -0.33369796244E+03 -0.65740764142E+02  0.41667079841E+03  0.92679278939E+02 0.  0.
         23    2    4    4    0    0  0.55190882320E+03 -0.38779321514E+03 -0.16960768782E+04  0.18275114802E+04  0.90191500296E+02 0.  0.
          4    1    3    3  502    0 -0.67056065254E+03  0.63311271107E+03  0.11498001649E+04  0.14739483413E+04  0.00000000000E+00 0. -1.
         -3    1    3    3    0  502 -0.10349435517E+03  0.88378466514E+02  0.12522968452E+03  0.18494406933E+03  0.00000000000E+00 0.  1.
         13    1    5    5    0    0  0.13810754026E+03 -0.22008781758E+03 -0.86474758433E+02  0.27384342966E+03  0.00000000000E+00 0.  1.
        -13    1    5    5    0    0  0.84038644252E+02 -0.11361014486E+03  0.20733994291E+02  0.14282736874E+03  0.00000000000E+00 0. -1.
          4    1    6    6  503    0  0.32026930355E+03 -0.24062520781E+03 -0.89001237991E+03  0.97600970990E+03  0.00000000000E+00 0. -1.
         -4    1    6    6    0  503  0.23163951964E+03 -0.14716800733E+03 -0.80606449832E+03  0.85150177034E+03  0.00000000000E+00 0.  1.
<mgrwt>
<rscale>  0 0.38725999E+04</rscale>
<asrwt>0</asrwt>
<pdfrwt beam="1">  1        2 0.26279130E+00 0.38725999E+04</pdfrwt>
<pdfrwt beam="2">  1       -1 0.33768173E+00 0.38725999E+04</pdfrwt>
<totfact> 0.16498252E-01</totfact>
</mgrwt>
</event>
<event>
12    7  0.1675873E-007  0.1658652E+04  0.7818608E-02  0.8785305E-01
         -1   -1    0    0    0  501 -0.00000000000E+00  0.00000000000E+00  0.14320128608E+04  0.14320128608E+04  0.00000000000E+00 0.  1.
          2   -1    0    0  501    0  0.00000000000E+00 -0.00000000000E+00 -0.48028983906E+03  0.48028983906E+03  0.00000000000E+00 0. -1.
         24    2    1    2    0    0  0.57631955979E+03  0.81804278178E+02  0.33909929741E+03  0.67840713357E+03  0.80073281728E+02 0.  0.
        254    2    1    2    0    0 -0.57631955979E+03 -0.81804278178E+02  0.61262372431E+03  0.12338955663E+04  0.89908523843E+03 0.  0.
         23    2    4    4    0    0 -0.47595351547E+02 -0.26629755283E+03 -0.11835825219E+03  0.30851937719E+03  0.89419383274E+02 0.  0.
         23    2    4    4    0    0 -0.52872420824E+03  0.18449327466E+03  0.73098197650E+03  0.92537618908E+03  0.91648156461E+02 0.  0.
          4    1    3    3  502    0  0.36592923242E+03  0.64403152813E+02  0.17333817861E+03  0.40999767487E+03  0.00000000000E+00 0. -1.
         -3    1    3    3    0  502  0.21039032737E+03  0.17401125365E+02  0.16576111880E+03  0.26840945870E+03  0.00000000000E+00 0.  1.
         13    1    5    5    0    0 -0.58685643938E+02 -0.97920810051E+02 -0.65881947623E+02  0.13180637643E+03  0.00000000000E+00 0. -1.
        -13    1    5    5    0    0  0.11090292391E+02 -0.16837674278E+03 -0.52476304568E+02  0.17671300076E+03  0.00000000000E+00 0.  1.
          4    1    6    6  503    0  0.29657933339E+01 -0.15572091216E+01  0.13785661964E+01  0.36223300658E+01  0.00000000000E+00 0. -1.
         -4    1    6    6    0  503 -0.53169000158E+03  0.18605048378E+03  0.72960341030E+03  0.92175385902E+03  0.00000000000E+00 0.  1.
<mgrwt>
<rscale>  0 0.16586515E+04</rscale>
<asrwt>0</asrwt>
<pdfrwt beam="1">  1        2 0.73890745E-01 0.16586515E+04</pdfrwt>
<pdfrwt beam="2">  1       -1 0.22030967E+00 0.16586515E+04</pdfrwt>
<totfact> 0.77111362E+00</totfact>
</mgrwt>
</event>
<event>
12    7  0.1675873E-007  0.1458364E+04  0.7818608E-02  0.8912622E-01
          4   -1    0    0  501    0  0.00000000000E+00  0.00000000000E+00  0.21752635260E+04  0.21752635260E+04  0.00000000000E+00 0. -1.
         -3   -1    0    0    0  501 -0.00000000000E+00 -0.00000000000E+00 -0.24443309925E+03  0.24443309925E+03  0.00000000000E+00 0.  1.
         24    2    1    2    0    0 -0.12307681352E+03  0.28012265201E+03  0.11074479845E+04  0.11516336458E+04  0.78755404521E+02 0.  0.
        254    2    1    2    0    0  0.12307681352E+03 -0.28012265201E+03  0.82338244224E+03  0.12680629794E+04  0.91455370059E+03 0.  0.
         23    2    4    4    0    0  0.40773148399E+03 -0.26302669176E+03  0.12578319817E+03  0.50948731851E+03  0.91257389652E+02 0.  0.
         23    2    4    4    0    0 -0.28465467046E+03 -0.17095960253E+02  0.69759924407E+03  0.75857566086E+03  0.86439427630E+02 0.  0.
          2    1    3    3  502    0 -0.28153970298E+02  0.11241991965E+03  0.54198080210E+03  0.55423287003E+03  0.00000000000E+00 0. -1.
         -1    1    3    3    0  502 -0.94922843226E+02  0.16770273235E+03  0.56546718236E+03  0.59740077580E+03  0.00000000000E+00 0.  1.
         13    1    5    5    0    0  0.11897757742E+03 -0.37369588713E+02  0.54748442648E+02  0.13619670356E+03  0.00000000000E+00 0. -1.
        -13    1    5    5    0    0  0.28875390657E+03 -0.22565710304E+03  0.71034755518E+02  0.37329061494E+03  0.00000000000E+00 0.  1.
          4    1    6    6  503    0 -0.21961053834E+03 -0.25358970314E+01  0.43050930004E+03  0.48329439966E+03  0.00000000000E+00 0. -1.
         -4    1    6    6    0  503 -0.65044132124E+02 -0.14560063222E+02  0.26708994404E+03  0.27528126121E+03  0.00000000000E+00 0.  1.
<mgrwt>
<rscale>  0 0.14583640E+04</rscale>
<asrwt>0</asrwt>
<pdfrwt beam="1">  1        4 0.33465591E+00 0.14583640E+04</pdfrwt>
<pdfrwt beam="2">  1       -3 0.37605094E-01 0.14583640E+04</pdfrwt>
<totfact> 0.29274185E-01</totfact>
</mgrwt>
</event>
<event>
12    7  0.1675873E-007  0.1326718E+04  0.7818608E-02  0.9008642E-01
          2   -1    0    0  501    0  0.00000000000E+00  0.00000000000E+00  0.19601630813E+04  0.19601630813E+04  0.00000000000E+00 0. -1.
         -1   -1    0    0    0  501 -0.00000000000E+00 -0.00000000000E+00 -0.22449402917E+03  0.22449402917E+03  0.00000000000E+00 0.  1.
         24    2    1    2    0    0  0.98935216015E+02 -0.31069903593E+02 -0.80601370221E+02  0.15350487137E+03  0.79458472016E+02 0.  0.
        254    2    1    2    0    0 -0.98935216015E+02  0.31069903593E+02  0.18162704224E+04  0.20311522391E+04  0.90332035038E+03 0.  0.
         23    2    4    4    0    0 -0.43164917789E+03  0.22157259358E+03  0.78917599837E+03  0.93095104742E+03  0.91954713275E+02 0.  0.
         23    2    4    4    0    0  0.33271396188E+03 -0.19050268999E+03  0.10270944240E+04  0.11002011917E+04  0.92357192801E+02 0.  0.
          2    1    3    3  502    0  0.24529531190E+02  0.23423522436E+02 -0.50652171394E+01  0.34293085722E+02  0.00000000000E+00 0. -1.
         -1    1    3    3    0  502  0.74405684826E+02 -0.54493426028E+02 -0.75536153082E+02  0.11921178565E+03  0.00000000000E+00 0.  1.
         13    1    5    5    0    0 -0.32878527977E+03  0.16306722407E+03  0.66412471414E+03  0.75878344453E+03  0.00000000000E+00 0.  1.
        -13    1    5    5    0    0 -0.10286389812E+03  0.58505369515E+02  0.12505128423E+03  0.17216760289E+03  0.00000000000E+00 0. -1.
          1    1    6    6  503    0  0.14143286302E+03 -0.95689408426E+02  0.58235016986E+03  0.60687019861E+03  0.00000000000E+00 0. -1.
         -1    1    6    6    0  503  0.19128109886E+03 -0.94813281565E+02  0.44474425414E+03  0.49333099308E+03  0.00000000000E+00 0.  1.
<mgrwt>
<rscale>  0 0.13267176E+04</rscale>
<asrwt>0</asrwt>
<pdfrwt beam="1">  1        2 0.30156354E+00 0.13267176E+04</pdfrwt>
<pdfrwt beam="2">  1       -1 0.34537544E-01 0.13267176E+04</pdfrwt>
<totfact> 0.62313940E+01</totfact>
</mgrwt>
</event>
<event>
12    7  0.1675873E-007  0.1810221E+04  0.7818608E-02  0.8700883E-01
          2   -1    0    0  501    0  0.00000000000E+00  0.00000000000E+00  0.39584972016E+03  0.39584972016E+03  0.00000000000E+00 0. -1.
         -1   -1    0    0    0  501 -0.00000000000E+00 -0.00000000000E+00 -0.20695362427E+04  0.20695362427E+04  0.00000000000E+00 0.  1.
         24    2    1    2    0    0 -0.26433557703E+02 -0.45687743075E+03 -0.13140932033E+04  0.13939079975E+04  0.81870867728E+02 0.  0.
        254    2    1    2    0    0  0.26433557703E+02  0.45687743075E+03 -0.35959331926E+03  0.10714779653E+04  0.89962322959E+03 0.  0.
         23    2    4    4    0    0  0.13817298952E+03  0.69673957097E+03 -0.33315020385E+03  0.78982662770E+03  0.91100157574E+02 0.  0.
         23    2    4    4    0    0 -0.11173943182E+03 -0.23986214022E+03 -0.26443115414E+02  0.28165133762E+03  0.92783030212E+02 0.  0.
          4    1    3    3  502    0  0.37315673927E+01 -0.48137639206E+01 -0.31007924174E+01  0.68346054681E+01  0.00000000000E+00 0. -1.
         -3    1    3    3    0  502 -0.30165125096E+02 -0.45206366683E+03 -0.13109924109E+04  0.13870733921E+04  0.00000000000E+00 0.  1.
         13    1    5    5    0    0  0.42499030348E+02  0.69731257936E+02 -0.32148521870E+02  0.87761856022E+02  0.00000000000E+00 0.  1.
        -13    1    5    5    0    0  0.95673959176E+02  0.62700831304E+03 -0.30100168198E+03  0.70206477168E+03  0.00000000000E+00 0. -1.
          3    1    6    6  503    0 -0.98654734626E+02 -0.23379003728E+03 -0.45449364990E+02  0.25779096760E+03  0.00000000000E+00 0. -1.
         -3    1    6    6    0  503 -0.13084697195E+02 -0.60721029425E+01  0.19006249576E+02  0.23860370026E+02  0.00000000000E+00 0.  1.
<mgrwt>
<rscale>  0 0.18102214E+04</rscale>
<asrwt>0</asrwt>
<pdfrwt beam="1">  1        2 0.60899956E-01 0.18102214E+04</pdfrwt>
<pdfrwt beam="2">  1       -1 0.31839019E+00 0.18102214E+04</pdfrwt>
<totfact> 0.21795380E+00</totfact>
</mgrwt>
</event>
<event>
12    7  0.1969308E-007  0.2959785E+04  0.7818608E-02  0.8255309E-01
          2   -1    0    0  501    0  0.00000000000E+00  0.00000000000E+00  0.23364031160E+04  0.23364031160E+04  0.00000000000E+00 0. -1.
         -1   -1    0    0    0  501 -0.00000000000E+00 -0.00000000000E+00 -0.93737309505E+03  0.93737309505E+03  0.00000000000E+00 0.  1.
         24    2    1    2    0    0 -0.40430173561E+03  0.10208890463E+04  0.14887719724E+04  0.18515104983E+04  0.77296839965E+02 0.  0.
        254    2    1    2    0    0  0.40430173561E+03 -0.10208890463E+04 -0.89741951432E+02  0.14222657127E+04  0.89950642110E+03 0.  0.
         23    2    4    4    0    0  0.46652485690E+03 -0.29949130756E+03 -0.33296579012E+03  0.65294205258E+03  0.90147774374E+02 0.  0.
         23    2    4    4    0    0 -0.62223121298E+02 -0.72139773870E+03  0.24322383869E+03  0.76932366016E+03  0.91731369494E+02 0.  0.
          2    1    3    3  502    0 -0.39286719410E+03  0.96427348912E+03  0.13849214833E+04  0.17326787091E+04  0.00000000000E+00 0. -1.
         -1    1    3    3    0  502 -0.11434541510E+02  0.56615557138E+02  0.10385048914E+03  0.11883178929E+03  0.00000000000E+00 0.  1.
         13    1    5    5    0    0  0.43368597735E+03 -0.25186349156E+03 -0.27936604509E+03  0.57407676532E+03  0.00000000000E+00 0. -1.
        -13    1    5    5    0    0  0.32838879556E+02 -0.47627816007E+02 -0.53599745032E+02  0.78865287266E+02  0.00000000000E+00 0.  1.
          3    1    6    6  503    0 -0.76857030825E+02 -0.69816104535E+03  0.23287192498E+03  0.73997647387E+03  0.00000000000E+00 0. -1.
         -3    1    6    6    0  503  0.14633909526E+02 -0.23236693345E+02  0.10351913706E+02  0.29347186288E+02  0.00000000000E+00 0.  1.
<mgrwt>
<rscale>  0 0.29597847E+04</rscale>
<asrwt>0</asrwt>
<pdfrwt beam="1">  1        2 0.35944663E+00 0.29597847E+04</pdfrwt>
<pdfrwt beam="2">  1       -1 0.14421125E+00 0.29597847E+04</pdfrwt>
<totfact> 0.16359265E+00</totfact>
</mgrwt>
</event>
<event>
12    7  0.1675873E-007  0.1574830E+04  0.7818608E-02  0.8836162E-01
         -1   -1    0    0    0  501 -0.00000000000E+00  0.00000000000E+00  0.10042515580E+04  0.10042515580E+04  0.00000000000E+00 0.  1.
          2   -1    0    0  501    0  0.00000000000E+00 -0.00000000000E+00 -0.61739779476E+03  0.61739779476E+03  0.00000000000E+00 0. -1.
         24    2    1    2    0    0  0.45690341466E+03  0.25119940180E+03  0.21889564156E+03  0.57127843511E+03  0.81128778686E+02 0.  0.
        254    2    1    2    0    0 -0.45690341466E+03 -0.25119940180E+03  0.16795812164E+03  0.10503709176E+04  0.89621831278E+03 0.  0.
         23    2    4    4    0    0 -0.63297668760E+03 -0.40618411312E+03  0.19068533260E+02  0.75762005668E+03  0.89328161972E+02 0.  0.
         23    2    4    4    0    0  0.17607327294E+03  0.15498471132E+03  0.14888958838E+03  0.29275086094E+03  0.92265371985E+02 0.  0.
          4    1    3    3  502    0  0.25341707976E+03  0.17496520931E+03  0.10118890916E+03  0.32414847851E+03  0.00000000000E+00 0. -1.
         -3    1    3    3    0  502  0.20348633490E+03  0.76234192496E+02  0.11770673241E+03  0.24712995660E+03  0.00000000000E+00 0.  1.
         13    1    5    5    0    0 -0.41701324251E+03 -0.29351239599E+03 -0.22799946696E+02  0.51045999706E+03  0.00000000000E+00 0.  1.
        -13    1    5    5    0    0 -0.21596344509E+03 -0.11267171713E+03  0.41868479955E+02  0.24716005962E+03  0.00000000000E+00 0. -1.
          1    1    6    6  503    0 -0.98529457233E+01  0.10426888819E+02  0.42983592176E+00  0.14352188293E+02  0.00000000000E+00 0. -1.
         -1    1    6    6    0  503  0.18592621867E+03  0.14455782250E+03  0.14845975245E+03  0.27839867265E+03  0.00000000000E+00 0.  1.
<mgrwt>
<rscale>  0 0.15748304E+04</rscale>
<asrwt>0</asrwt>
<pdfrwt beam="1">  1        2 0.94984276E-01 0.15748304E+04</pdfrwt>
<pdfrwt beam="2">  1       -1 0.15450024E+00 0.15748304E+04</pdfrwt>
<totfact> 0.16929229E+01</totfact>
</mgrwt>
</event>
<event>
12    7  0.1675873E-007  0.1335607E+04  0.7818608E-02  0.9001796E-01
         -1   -1    0    0    0  501 -0.00000000000E+00  0.00000000000E+00  0.25552127461E+03  0.25552127461E+03  0.00000000000E+00 0.  1.
          2   -1    0    0  501    0  0.00000000000E+00 -0.00000000000E+00 -0.17453008322E+04  0.17453008322E+04  0.00000000000E+00 0. -1.
         24    2    1    2    0    0 -0.15779714216E+03 -0.29507188341E+03 -0.27444812270E+03  0.44152621811E+03  0.87500141567E+02 0.  0.
        254    2    1    2    0    0  0.15779714216E+03  0.29507188341E+03 -0.12153314349E+04  0.15592958887E+04  0.91782668158E+03 0.  0.
         23    2    4    4    0    0  0.40887222729E+03  0.49042938575E+03 -0.82488512232E+03  0.10472572319E+04  0.92815753075E+02 0.  0.
         23    2    4    4    0    0 -0.25107508513E+03 -0.19535750233E+03 -0.39044631257E+03  0.51203865683E+03  0.92368885468E+02 0.  0.
          4    1    3    3  502    0 -0.30436562812E+02 -0.14324604750E+03 -0.13532723440E+03  0.19939727894E+03  0.00000000000E+00 0. -1.
         -3    1    3    3    0  502 -0.12736057935E+03 -0.15182583592E+03 -0.13912088830E+03  0.24212893917E+03  0.00000000000E+00 0.  1.
         13    1    5    5    0    0  0.10308164990E+03  0.12473835664E+03 -0.14752301777E+03  0.21897151627E+03  0.00000000000E+00 0.  1.
        -13    1    5    5    0    0  0.30579057739E+03  0.36569102911E+03 -0.67736210455E+03  0.82828571560E+03  0.00000000000E+00 0. -1.
          1    1    6    6  503    0 -0.19928576224E+03 -0.11378989862E+03 -0.31353381083E+03  0.38854395709E+03  0.00000000000E+00 0. -1.
         -1    1    6    6    0  503 -0.51789322890E+02 -0.81567603709E+02 -0.76912501741E+02  0.12349469974E+03  0.00000000000E+00 0.  1.
<mgrwt>
<rscale>  0 0.13356070E+04</rscale>
<asrwt>0</asrwt>
<pdfrwt beam="1">  1        2 0.26850783E+00 0.13356070E+04</pdfrwt>
<pdfrwt beam="2">  1       -1 0.39310964E-01 0.13356070E+04</pdfrwt>
<totfact> 0.64816050E+01</totfact>
</mgrwt>
</event>
<event>
12    7  0.1675873E-007  0.1502493E+04  0.7818608E-02  0.8882797E-01
          2   -1    0    0  501    0  0.00000000000E+00  0.00000000000E+00  0.11193465464E+04  0.11193465464E+04  0.00000000000E+00 0. -1.
         -1   -1    0    0    0  501 -0.00000000000E+00 -0.00000000000E+00 -0.50419687343E+03  0.50419687343E+03  0.00000000000E+00 0.  1.
         24    2    1    2    0    0  0.44289907650E+03 -0.67159142812E+02  0.22635788221E+02  0.45534011919E+03  0.78436616514E+02 0.  0.
        254    2    1    2    0    0 -0.44289907650E+03  0.67159142812E+02  0.59251388474E+03  0.11682033006E+04  0.90164089612E+03 0.  0.
         23    2    4    4    0    0 -0.21252752561E+02 -0.10505213100E+03 -0.20291589719E+03  0.24754295400E+03  0.92817148326E+02 0.  0.
         23    2    4    4    0    0 -0.42164632394E+03  0.17221127381E+03  0.79542978193E+03  0.92066034663E+03  0.86397861979E+02 0.  0.
          4    1    3    3  502    0  0.50143986954E+02  0.58563575256E+01 -0.18445353000E+02  0.53748929276E+02  0.00000000000E+00 0. -1.
         -3    1    3    3    0  502  0.39275508955E+03 -0.73015500338E+02  0.41081141221E+02  0.40159118992E+03  0.00000000000E+00 0.  1.
         13    1    5    5    0    0  0.43319699179E+01 -0.11009019739E+03 -0.18685387049E+03  0.21691700358E+03  0.00000000000E+00 0. -1.
        -13    1    5    5    0    0 -0.25584722479E+02  0.50380663962E+01 -0.16062026703E+02  0.30625950420E+02  0.00000000000E+00 0.  1.
          4    1    6    6  503    0 -0.19295928330E+03  0.34196752230E+02  0.31545593245E+03  0.37136928817E+03  0.00000000000E+00 0. -1.
         -4    1    6    6    0  503 -0.22868704064E+03  0.13801452158E+03  0.47997384948E+03  0.54929105847E+03  0.00000000000E+00 0.  1.
<mgrwt>
<rscale>  0 0.15024926E+04</rscale>
<asrwt>0</asrwt>
<pdfrwt beam="1">  1        2 0.17220716E+00 0.15024926E+04</pdfrwt>
<pdfrwt beam="2">  1       -1 0.77568750E-01 0.15024926E+04</pdfrwt>
<totfact> 0.38902094E+01</totfact>
</mgrwt>
</event>
<event>
12    7  0.1675873E-007  0.1429616E+04  0.7818608E-02  0.8932656E-01
         -1   -1    0    0    0  501 -0.00000000000E+00  0.00000000000E+00  0.90338600178E+03  0.90338600178E+03  0.00000000000E+00 0.  1.
          2   -1    0    0  501    0  0.00000000000E+00 -0.00000000000E+00 -0.56559500465E+03  0.56559500465E+03  0.00000000000E+00 0. -1.
         24    2    1    2    0    0  0.39133301783E+03 -0.16858378589E+03  0.11960619856E+03  0.44968746550E+03  0.79694103842E+02 0.  0.
        254    2    1    2    0    0 -0.39133301783E+03  0.16858378589E+03  0.21818479857E+03  0.10192935409E+04  0.89988482183E+03 0.  0.
         23    2    4    4    0    0  0.24580146210E+03  0.22265699270E+03  0.12800851797E+03  0.36704053727E+03  0.91313088646E+02 0.  0.
         23    2    4    4    0    0 -0.63713447993E+03 -0.54073206813E+02  0.90176280602E+02  0.65225300366E+03  0.91858380087E+02 0.  0.
          4    1    3    3  502    0  0.13949763616E+03 -0.77148670295E+02  0.84810109267E+01  0.15963531993E+03  0.00000000000E+00 0. -1.
         -3    1    3    3    0  502  0.25183538167E+03 -0.91435115591E+02  0.11112518764E+03  0.29005214557E+03  0.00000000000E+00 0.  1.
         13    1    5    5    0    0  0.88909431707E+02  0.13964866799E+03  0.48182603447E+02  0.17241867878E+03  0.00000000000E+00 0. -1.
        -13    1    5    5    0    0  0.15689203040E+03  0.83008324709E+02  0.79825914519E+02  0.19462185849E+03  0.00000000000E+00 0.  1.
          4    1    6    6  503    0 -0.35805725611E+03 -0.38055458746E+02  0.96015173061E+02  0.37265551123E+03  0.00000000000E+00 0. -1.
         -4    1    6    6    0  503 -0.27907722382E+03 -0.16017748067E+02 -0.58388924585E+01  0.27959749243E+03  0.00000000000E+00 0.  1.
<mgrwt>
<rscale>  0 0.14296162E+04</rscale>
<asrwt>0</asrwt>
<pdfrwt beam="1">  1        2 0.87014616E-01 0.14296162E+04</pdfrwt>
<pdfrwt beam="2">  1       -1 0.13898246E+00 0.14296162E+04</pdfrwt>
<totfact> 0.25257995E+01</totfact>
</mgrwt>
</event>
<event>
12    7  0.1675873E-007  0.2123409E+04  0.7818608E-02  0.8551001E-01
         -1   -1    0    0    0  501 -0.00000000000E+00  0.00000000000E+00  0.73649519563E+03  0.73649519563E+03  0.00000000000E+00 0.  1.
          2   -1    0    0  501    0  0.00000000000E+00 -0.00000000000E+00 -0.15305144224E+04  0.15305144224E+04  0.00000000000E+00 0. -1.
         24    2    1    2    0    0 -0.59032659967E+03 -0.51345983593E+03  0.76541887411E+02  0.78995657935E+03  0.77757567757E+02 0.  0.
        254    2    1    2    0    0  0.59032659967E+03  0.51345983593E+03 -0.87056111413E+03  0.14770530386E+04  0.90093425292E+03 0.  0.
         23    2    4    4    0    0  0.45468107147E+02 -0.90920586317E+02  0.12602596626E+03  0.18725009291E+03  0.94053980982E+02 0.  0.
         23    2    4    4    0    0  0.54485849252E+03  0.60438042225E+03 -0.99658708039E+03  0.12898029457E+04  0.90881011802E+02 0.  0.
          2    1    3    3  502    0 -0.94902831474E+02 -0.99996687812E+02 -0.13053318726E+02  0.13847842476E+03  0.00000000000E+00 0. -1.
         -1    1    3    3    0  502 -0.49542376819E+03 -0.41346314812E+03  0.89595206137E+02  0.65147815459E+03  0.00000000000E+00 0.  1.
         13    1    5    5    0    0  0.35835773310E+02  0.47200177885E+01  0.11937897331E+02  0.38065661814E+02  0.00000000000E+00 0. -1.
        -13    1    5    5    0    0  0.96323338364E+01 -0.95640604105E+02  0.11408806893E+03  0.14918443109E+03  0.00000000000E+00 0.  1.
          1    1    6    6  503    0  0.17177362692E+03  0.16458309883E+03 -0.23401774302E+03  0.33370358011E+03  0.00000000000E+00 0. -1.
         -1    1    6    6    0  503  0.37308486560E+03  0.43979732343E+03 -0.76256933737E+03  0.95609936561E+03  0.00000000000E+00 0.  1.
<mgrwt>
<rscale>  0 0.21234091E+04</rscale>
<asrwt>0</asrwt>
<pdfrwt beam="1">  1        2 0.23546376E+00 0.21234091E+04</pdfrwt>
<pdfrwt beam="2">  1       -1 0.11330695E+00 0.21234091E+04</pdfrwt>
<totfact> 0.90926952E+00</totfact>
</mgrwt>
</event>
<event>
12    7  0.1675873E-007  0.1625460E+04  0.7818608E-02  0.8805058E-01
         -1   -1    0    0    0  501 -0.00000000000E+00  0.00000000000E+00  0.44018042768E+03  0.44018042768E+03  0.00000000000E+00 0.  1.
          2   -1    0    0  501    0  0.00000000000E+00 -0.00000000000E+00 -0.15005900492E+04  0.15005900492E+04  0.00000000000E+00 0. -1.
         24    2    1    2    0    0 -0.62826300958E+01 -0.67891991667E+02  0.30537359438E+03  0.32046182440E+03  0.69238390959E+02 0.  0.
        254    2    1    2    0    0  0.62826300958E+01  0.67891991667E+02 -0.13657832159E+04  0.16203086525E+04  0.86913033688E+03 0.  0.
         23    2    4    4    0    0 -0.40501835029E+03 -0.69561001227E+02 -0.55430856011E+03  0.69614019172E+03  0.92057534992E+02 0.  0.
         23    2    4    4    0    0  0.41130098039E+03  0.13745299289E+03 -0.81147465579E+03  0.92416846076E+03  0.86800951308E+02 0.  0.
          4    1    3    3  502    0 -0.25384275193E+02 -0.37159494358E+01  0.13474363554E+03  0.13716419732E+03  0.00000000000E+00 0. -1.
         -3    1    3    3    0  502  0.19101645097E+02 -0.64176042232E+02  0.17062995884E+03  0.18329762708E+03  0.00000000000E+00 0.  1.
         13    1    5    5    0    0 -0.86610639274E+02 -0.47810808514E+02 -0.16893434640E+03  0.19577050248E+03  0.00000000000E+00 0.  1.
        -13    1    5    5    0    0 -0.31840771102E+03 -0.21750192713E+02 -0.38537421371E+03  0.50036968924E+03  0.00000000000E+00 0. -1.
          2    1    6    6  503    0  0.22934393563E+03  0.12142961800E+03 -0.48563264517E+03  0.55062043096E+03  0.00000000000E+00 0.  1.
         -2    1    6    6    0  503  0.18195704476E+03  0.16023374896E+02 -0.32584201062E+03  0.37354802980E+03  0.00000000000E+00 0. -1.
<mgrwt>
<rscale>  0 0.16254604E+04</rscale>
<asrwt>0</asrwt>
<pdfrwt beam="1">  1        2 0.23086001E+00 0.16254604E+04</pdfrwt>
<pdfrwt beam="2">  1       -1 0.67720065E-01 0.16254604E+04</pdfrwt>
<totfact> 0.30543573E+01</totfact>
</mgrwt>
</event>
<event>
12    7  0.1675873E-007  0.1813569E+04  0.7818608E-02  0.8699117E-01
          2   -1    0    0  501    0  0.00000000000E+00  0.00000000000E+00  0.10381700823E+04  0.10381700823E+04  0.00000000000E+00 0. -1.
         -1   -1    0    0    0  501 -0.00000000000E+00 -0.00000000000E+00 -0.79202657261E+03  0.79202657261E+03  0.00000000000E+00 0.  1.
         24    2    1    2    0    0  0.49710645840E+03  0.28177914850E+03 -0.28751747083E+03  0.64462015895E+03  0.79715329630E+02 0.  0.
        254    2    1    2    0    0 -0.49710645840E+03 -0.28177914850E+03  0.53366098054E+03  0.11855764960E+04  0.89122571000E+03 0.  0.
         23    2    4    4    0    0  0.17233072540E+02  0.27352498222E+03  0.91760000281E+02  0.30438401330E+03  0.95482119856E+02 0.  0.
         23    2    4    4    0    0 -0.51433953094E+03 -0.55530413072E+03  0.44190098026E+03  0.88119248268E+03  0.91191471625E+02 0.  0.
          2    1    3    3  502    0  0.32948969418E+02  0.34216361739E+02 -0.44723619409E+02  0.65242594442E+02  0.00000000000E+00 0. -1.
         -1    1    3    3    0  502  0.46415748898E+03  0.24756278676E+03 -0.24279385142E+03  0.57937756450E+03  0.00000000000E+00 0.  1.
         13    1    5    5    0    0 -0.20523019988E+02  0.15023869649E+03  0.88151578931E+02  0.17539544218E+03  0.00000000000E+00 0. -1.
        -13    1    5    5    0    0  0.37756092528E+02  0.12328628574E+03  0.36084213496E+01  0.12898857111E+03  0.00000000000E+00 0.  1.
          2    1    6    6  503    0 -0.72996232224E+02 -0.41356798633E+02  0.63618779452E+02  0.10529094838E+03  0.00000000000E+00 0. -1.
         -2    1    6    6    0  503 -0.44134329871E+03 -0.51394733209E+03  0.37828220080E+03  0.77590153430E+03  0.00000000000E+00 0.  1.
<mgrwt>
<rscale>  0 0.18135692E+04</rscale>
<asrwt>0</asrwt>
<pdfrwt beam="1">  1        2 0.15971847E+00 0.18135692E+04</pdfrwt>
<pdfrwt beam="2">  1       -1 0.12185024E+00 0.18135692E+04</pdfrwt>
<totfact> 0.15275928E+01</totfact>
</mgrwt>
</event>
<event>
12    7  0.1675873E-007  0.1223479E+04  0.7818608E-02  0.9092550E-01
          2   -1    0    0  501    0  0.00000000000E+00  0.00000000000E+00  0.10562132409E+04  0.10562132409E+04  0.00000000000E+00 0. -1.
         -1   -1    0    0    0  501 -0.00000000000E+00 -0.00000000000E+00 -0.35430833812E+03  0.35430833812E+03  0.00000000000E+00 0.  1.
         24    2    1    2    0    0  0.34200308327E+02 -0.11133739271E+03 -0.12270249003E+03  0.18662599155E+03  0.78788854271E+02 0.  0.
        254    2    1    2    0    0 -0.34200308327E+02  0.11133739271E+03  0.82460739284E+03  0.12238955875E+04  0.89687088294E+03 0.  0.
         23    2    4    4    0    0 -0.24848654203E+03 -0.42063640222E+02  0.89472851757E+03  0.93434297531E+03  0.94566188306E+02 0.  0.
         23    2    4    4    0    0  0.21428623370E+03  0.15340103294E+03 -0.70121124732E+02  0.28955261218E+03  0.97330756843E+02 0.  0.
          2    1    3    3  502    0 -0.33345895044E+01 -0.75911150889E+02 -0.32377824913E+02  0.82595071660E+02  0.00000000000E+00 0. -1.
         -1    1    3    3    0  502  0.37534897831E+02 -0.35426241825E+02 -0.90324665120E+02  0.10403091989E+03  0.00000000000E+00 0.  1.
         13    1    5    5    0    0 -0.17276928306E+03 -0.46889762965E+02  0.47096719077E+03  0.50384319964E+03  0.00000000000E+00 0. -1.
        -13    1    5    5    0    0 -0.75717258963E+02  0.48261227435E+01  0.42376132680E+03  0.43049977567E+03  0.00000000000E+00 0.  1.
          4    1    6    6  503    0  0.13947541637E+02  0.22179504770E+02 -0.40504630172E+02  0.48239915164E+02  0.00000000000E+00 0.  1.
         -4    1    6    6    0  503  0.20033869206E+03  0.13122152816E+03 -0.29616494560E+02  0.24131269702E+03  0.00000000000E+00 0. -1.
<mgrwt>
<rscale>  0 0.12234789E+04</rscale>
<asrwt>0</asrwt>
<pdfrwt beam="1">  1        2 0.16249434E+00 0.12234789E+04</pdfrwt>
<pdfrwt beam="2">  1       -1 0.54508975E-01 0.12234789E+04</pdfrwt>
<totfact> 0.88610133E+01</totfact>
</mgrwt>
</event>
<event>
12    7  0.1675873E-007  0.1341471E+04  0.7818608E-02  0.8997310E-01
          2   -1    0    0  501    0  0.00000000000E+00  0.00000000000E+00  0.32626642027E+03  0.32626642027E+03  0.00000000000E+00 0. -1.
         -1   -1    0    0    0  501 -0.00000000000E+00 -0.00000000000E+00 -0.13788908694E+04  0.13788908694E+04  0.00000000000E+00 0.  1.
         24    2    1    2    0    0  0.35328417351E+02  0.11190330920E+03 -0.74702983461E+03  0.76037814196E+03  0.79692517145E+02 0.  0.
        254    2    1    2    0    0 -0.35328417351E+02 -0.11190330920E+03 -0.30559461455E+03  0.94477914774E+03  0.88625567523E+03 0.  0.
         23    2    4    4    0    0  0.53510107823E+02 -0.56410162242E+02  0.30017679774E+03  0.32308201335E+03  0.90721769190E+02 0.  0.
         23    2    4    4    0    0 -0.88838525174E+02 -0.55493146958E+02 -0.60577141230E+03  0.62169713439E+03  0.92609664897E+02 0.  0.
          4    1    3    3  502    0 -0.14712083199E+02  0.23021252859E+01 -0.18398057553E+03  0.18458222381E+03  0.00000000000E+00 0. -1.
         -3    1    3    3    0  502  0.50040500550E+02  0.10960118391E+03 -0.56304925908E+03  0.57579591815E+03  0.00000000000E+00 0.  1.
         13    1    5    5    0    0  0.22542692772E+02 -0.51075409895E+02  0.64442617413E+02  0.85262661420E+02  0.00000000000E+00 0.  1.
        -13    1    5    5    0    0  0.30967415051E+02 -0.53347523471E+01  0.23573418033E+03  0.23781935193E+03  0.00000000000E+00 0. -1.
          1    1    6    6  503    0 -0.15728949267E+02 -0.18406532145E+01 -0.34941998837E+03  0.34977866734E+03  0.00000000000E+00 0. -1.
         -1    1    6    6    0  503 -0.73109575907E+02 -0.53652493743E+02 -0.25635142392E+03  0.27191846705E+03  0.00000000000E+00 0.  1.
<mgrwt>
<rscale>  0 0.13414705E+04</rscale>
<asrwt>0</asrwt>
<pdfrwt beam="1">  1        2 0.50194835E-01 0.13414705E+04</pdfrwt>
<pdfrwt beam="2">  1       -1 0.21213705E+00 0.13414705E+04</pdfrwt>
<totfact> 0.13913687E+01</totfact>
</mgrwt>
</event>
<event>
12    7  0.1675873E-007  0.1063135E+04  0.7818608E-02  0.9241887E-01
          2   -1    0    0  501    0  0.00000000000E+00  0.00000000000E+00  0.10593499875E+04  0.10593499875E+04  0.00000000000E+00 0. -1.
         -1   -1    0    0    0  501 -0.00000000000E+00 -0.00000000000E+00 -0.26673318097E+03  0.26673318097E+03  0.00000000000E+00 0.  1.
         24    2    1    2    0    0  0.43912263715E+01 -0.12999522661E+03  0.13824824153E+03  0.20277372610E+03  0.71320164746E+02 0.  0.
        254    2    1    2    0    0 -0.43912263715E+01  0.12999522661E+03  0.65436856504E+03  0.11233094424E+04  0.90371889584E+03 0.  0.
         23    2    4    4    0    0  0.36190131063E+02 -0.31889934491E+02  0.84677770411E+03  0.85293455002E+03  0.90211822511E+02 0.  0.
         23    2    4    4    0    0 -0.40581357435E+02  0.16188516110E+03 -0.19240913907E+03  0.27037489240E+03  0.90706414803E+02 0.  0.
          4    1    3    3  502    0 -0.77412963961E+01 -0.13182336120E+03  0.13725629183E+03  0.19046421153E+03  0.00000000000E+00 0. -1.
         -3    1    3    3    0  502  0.12132522768E+02  0.18281345882E+01  0.99194970737E+00  0.12309514572E+02  0.00000000000E+00 0.  1.
         13    1    5    5    0    0  0.45868497456E+02 -0.22792387328E+02  0.82979476708E+03  0.83137402380E+03  0.00000000000E+00 0. -1.
        -13    1    5    5    0    0 -0.96783663928E+01 -0.90975471629E+01  0.16982937035E+02  0.21560526217E+02  0.00000000000E+00 0.  1.
          1    1    6    6  503    0 -0.61808919039E+02  0.13201686993E+03 -0.18014284673E+03  0.23173312592E+03  0.00000000000E+00 0. -1.
         -1    1    6    6    0  503  0.21227561604E+02  0.29868291168E+02 -0.12266292338E+02  0.38641766480E+02  0.00000000000E+00 0.  1.
<mgrwt>
<rscale>  0 0.10631346E+04</rscale>
<asrwt>0</asrwt>
<pdfrwt beam="1">  1        2 0.16297692E+00 0.10631346E+04</pdfrwt>
<pdfrwt beam="2">  1       -1 0.41035874E-01 0.10631346E+04</pdfrwt>
<totfact> 0.15212621E+02</totfact>
</mgrwt>
</event>
<event>
12    7  0.1675873E-007  0.1357114E+04  0.7818608E-02  0.8985460E-01
         -1   -1    0    0    0  501 -0.00000000000E+00  0.00000000000E+00  0.36604467803E+03  0.36604467803E+03  0.00000000000E+00 0.  1.
          2   -1    0    0  501    0  0.00000000000E+00 -0.00000000000E+00 -0.12578789631E+04  0.12578789631E+04  0.00000000000E+00 0. -1.
         24    2    1    2    0    0 -0.36531299798E+03  0.11972083004E+02 -0.10650491440E+03  0.38834261317E+03  0.76614431737E+02 0.  0.
        254    2    1    2    0    0  0.36531299798E+03 -0.11972083004E+02 -0.78532937067E+03  0.12355810280E+04  0.88109099356E+03 0.  0.
         23    2    4    4    0    0  0.55319875619E+02  0.33248175963E+03 -0.66085844419E+03  0.74765625455E+03  0.93013883795E+02 0.  0.
         23    2    4    4    0    0  0.30999312236E+03 -0.34445384264E+03 -0.12447092648E+03  0.48792477340E+03  0.88506425427E+02 0.  0.
          4    1    3    3  502    0 -0.31937741709E+03  0.35583809614E+02 -0.85073016614E+02  0.33242376601E+03  0.00000000000E+00 0. -1.
         -3    1    3    3    0  502 -0.45935580892E+02 -0.23611726609E+02 -0.21431897788E+02  0.55918847164E+02  0.00000000000E+00 0.  1.
         13    1    5    5    0    0  0.16387888487E+02  0.34322400683E+01 -0.49860642476E+02  0.52596832880E+02  0.00000000000E+00 0.  1.
        -13    1    5    5    0    0  0.38931987133E+02  0.32904951957E+03 -0.61099780172E+03  0.69505942167E+03  0.00000000000E+00 0. -1.
          4    1    6    6  503    0  0.28588031148E+03 -0.34206832946E+03 -0.12706544822E+03  0.46355573844E+03  0.00000000000E+00 0. -1.
         -4    1    6    6    0  503  0.24112810885E+02 -0.23855131756E+01  0.25945217383E+01  0.24369034961E+02  0.00000000000E+00 0.  1.
<mgrwt>
<rscale>  0 0.13571144E+04</rscale>
<asrwt>0</asrwt>
<pdfrwt beam="1">  1        2 0.19351984E+00 0.13571144E+04</pdfrwt>
<pdfrwt beam="2">  1       -1 0.56314566E-01 0.13571144E+04</pdfrwt>
<totfact> 0.62139028E+01</totfact>
</mgrwt>
</event>
<event>
12    7  0.1675873E-007  0.1263620E+04  0.7818608E-02  0.9058923E-01
          2   -1    0    0  501    0  0.00000000000E+00  0.00000000000E+00  0.24055932096E+04  0.24055932096E+04  0.00000000000E+00 0. -1.
         -1   -1    0    0    0  501 -0.00000000000E+00 -0.00000000000E+00 -0.16593983356E+03  0.16593983356E+03  0.00000000000E+00 0.  1.
         24    2    1    2    0    0  0.26103482935E+03  0.20554461053E+02  0.23830473668E+03  0.36363905116E+03  0.82961099343E+02 0.  0.
        254    2    1    2    0    0 -0.26103482935E+03 -0.20554461053E+02  0.20013486393E+04  0.22078939920E+04  0.89489543276E+03 0.  0.
         23    2    4    4    0    0  0.15689175566E+03 -0.29987692003E+03  0.12586375410E+04  0.13064647670E+04  0.90224929061E+02 0.  0.
         23    2    4    4    0    0 -0.41792658501E+03  0.27932245897E+03  0.74271109839E+03  0.90142922495E+03  0.90946167411E+02 0.  0.
          4    1    3    3  502    0  0.49921787265E+02  0.88518848011E+01  0.96635153513E+02  0.10912787729E+03  0.00000000000E+00 0. -1.
         -3    1    3    3    0  502  0.21111304209E+03  0.11702576252E+02  0.14166958316E+03  0.25451117387E+03  0.00000000000E+00 0.  1.
         13    1    5    5    0    0  0.14415311093E+03 -0.27627891789E+03  0.10258391873E+04  0.10721269505E+04  0.00000000000E+00 0. -1.
        -13    1    5    5    0    0  0.12738644725E+02 -0.23598002138E+02  0.23279835365E+03  0.23433781649E+03  0.00000000000E+00 0.  1.
          2    1    6    6  503    0 -0.26624890157E+03  0.21145739842E+03  0.55372081586E+03  0.64977646221E+03  0.00000000000E+00 0. -1.
         -2    1    6    6    0  503 -0.15167768344E+03  0.67865060550E+02  0.18899028254E+03  0.25165276273E+03  0.00000000000E+00 0.  1.
<mgrwt>
<rscale>  0 0.12636198E+04</rscale>
<asrwt>0</asrwt>
<pdfrwt beam="1">  1        2 0.37009124E+00 0.12636198E+04</pdfrwt>
<pdfrwt beam="2">  1       -1 0.25529207E-01 0.12636198E+04</pdfrwt>
<totfact> 0.59927953E+01</totfact>
</mgrwt>
</event>
<event>
12    7  0.1675873E-007  0.2404108E+04  0.7818608E-02  0.8437967E-01
         -1   -1    0    0    0  501 -0.00000000000E+00  0.00000000000E+00  0.59372181655E+03  0.59372181655E+03  0.00000000000E+00 0.  1.
          2   -1    0    0  501    0  0.00000000000E+00 -0.00000000000E+00 -0.24336889329E+04  0.24336889329E+04  0.00000000000E+00 0. -1.
         24    2    1    2    0    0  0.78546410644E+03  0.30327972391E+03 -0.41215695139E+02  0.84671744246E+03  0.79367754129E+02 0.  0.
        254    2    1    2    0    0 -0.78546410644E+03 -0.30327972391E+03 -0.17987514212E+04  0.21806933070E+04  0.90054659537E+03 0.  0.
         23    2    4    4    0    0 -0.33205715782E+03 -0.44085141888E+03 -0.15285987634E+04  0.16277394273E+04  0.91156645729E+02 0.  0.
         23    2    4    4    0    0 -0.45340694862E+03  0.13757169497E+03 -0.27015265779E+03  0.55295387970E+03  0.90948899134E+02 0.  0.
          4    1    3    3  502    0  0.19397956555E+03  0.53383627366E+02  0.17388260379E+02  0.20194116747E+03  0.00000000000E+00 0. -1.
         -3    1    3    3    0  502  0.59148454089E+03  0.24989609654E+03 -0.58603955518E+02  0.64477627499E+03  0.00000000000E+00 0.  1.
         13    1    5    5    0    0 -0.55865429992E+02 -0.12324663008E+03 -0.30182141939E+03  0.33076705897E+03  0.00000000000E+00 0. -1.
        -13    1    5    5    0    0 -0.27619172783E+03 -0.31760478879E+03 -0.12267773440E+04  0.12969723683E+04  0.00000000000E+00 0.  1.
          2    1    6    6  503    0 -0.15665636856E+03  0.58990483540E+02 -0.14492786401E+03  0.22141630637E+03  0.00000000000E+00 0. -1.
         -2    1    6    6    0  503 -0.29675058006E+03  0.78581211427E+02 -0.12522479378E+03  0.33153757333E+03  0.00000000000E+00 0.  1.
<mgrwt>
<rscale>  0 0.24041083E+04</rscale>
<asrwt>0</asrwt>
<pdfrwt beam="1">  1        2 0.37441369E+00 0.24041083E+04</pdfrwt>
<pdfrwt beam="2">  1       -1 0.91341817E-01 0.24041083E+04</pdfrwt>
<totfact> 0.45445865E+00</totfact>
</mgrwt>
</event>
<event>
12    7  0.1675873E-007  0.2310321E+04  0.7818608E-02  0.8473863E-01
         -1   -1    0    0    0  501 -0.00000000000E+00  0.00000000000E+00  0.50782474774E+03  0.50782474774E+03  0.00000000000E+00 0.  1.
          2   -1    0    0  501    0  0.00000000000E+00 -0.00000000000E+00 -0.26276690352E+04  0.26276690352E+04  0.00000000000E+00 0. -1.
         24    2    1    2    0    0  0.36743283602E+03  0.45678916842E+03 -0.19735549021E+04  0.20603838786E+04  0.81237567186E+02 0.  0.
        254    2    1    2    0    0 -0.36743283602E+03 -0.45678916842E+03 -0.14628938533E+03  0.10751099043E+04  0.88926795100E+03 0.  0.
         23    2    4    4    0    0  0.22834696184E+03 -0.38510341105E+03 -0.90045400830E+02  0.46591722902E+03  0.92323983333E+02 0.  0.
         23    2    4    4    0    0 -0.59577979786E+03 -0.71685757373E+02 -0.56243984504E+02  0.60919267527E+03  0.88656158648E+02 0.  0.
          2    1    3    3  502    0  0.73230852366E+02  0.12018373581E+03 -0.37673215457E+03  0.40216166449E+03  0.00000000000E+00 0. -1.
         -1    1    3    3    0  502  0.29420198365E+03  0.33660543261E+03 -0.15968227475E+04  0.16582222141E+04  0.00000000000E+00 0.  1.
         13    1    5    5    0    0  0.11682553025E+03 -0.13605402743E+03 -0.25240484537E+01  0.17934679735E+03  0.00000000000E+00 0.  1.
        -13    1    5    5    0    0  0.11152143160E+03 -0.24904938362E+03 -0.87521352376E+02  0.28657043167E+03  0.00000000000E+00 0. -1.
          3    1    6    6  503    0 -0.57011582725E+03 -0.57377592914E+02 -0.69047894973E+02  0.57714110619E+03  0.00000000000E+00 0. -1.
         -3    1    6    6    0  503 -0.25663970609E+02 -0.14308164459E+02  0.12803910469E+02  0.32051569086E+02  0.00000000000E+00 0.  1.
<mgrwt>
<rscale>  0 0.23103206E+04</rscale>
<asrwt>0</asrwt>
<pdfrwt beam="1">  1        2 0.40425677E+00 0.23103206E+04</pdfrwt>
<pdfrwt beam="2">  1       -1 0.78126886E-01 0.23103206E+04</pdfrwt>
<totfact> 0.49560997E+00</totfact>
</mgrwt>
</event>
<event>
12    7  0.1675873E-007  0.1933410E+04  0.7818608E-02  0.8638403E-01
         -1   -1    0    0    0  501 -0.00000000000E+00  0.00000000000E+00  0.14944223951E+04  0.14944223951E+04  0.00000000000E+00 0.  1.
          2   -1    0    0  501    0  0.00000000000E+00 -0.00000000000E+00 -0.62533752822E+03  0.62533752822E+03  0.00000000000E+00 0. -1.
         24    2    1    2    0    0  0.42928228144E+03  0.51616199206E+03  0.76902209325E+03  0.10241649539E+04  0.82537226246E+02 0.  0.
        254    2    1    2    0    0 -0.42928228144E+03 -0.51616199206E+03  0.10006277367E+03  0.10955949694E+04  0.86000540647E+03 0.  0.
         23    2    4    4    0    0 -0.13085185568E+03 -0.59069709133E+03  0.33512079015E+03  0.69798206867E+03  0.93956172532E+02 0.  0.
         23    2    4    4    0    0 -0.29843042576E+03  0.74535099264E+02 -0.23505801649E+03  0.39761290076E+03  0.90705830522E+02 0.  0.
          4    1    3    3  502    0  0.34356702742E+03  0.41364219536E+03  0.56239499457E+03  0.77809144580E+03  0.00000000000E+00 0. -1.
         -3    1    3    3    0  502  0.85715254021E+02  0.10251979671E+03  0.20662709867E+03  0.24607350811E+03  0.00000000000E+00 0.  1.
         13    1    5    5    0    0 -0.10807156818E+03 -0.27958173986E+03  0.14906189751E+03  0.33476090334E+03  0.00000000000E+00 0. -1.
        -13    1    5    5    0    0 -0.22780287502E+02 -0.31111535147E+03  0.18605889265E+03  0.36322116534E+03  0.00000000000E+00 0.  1.
          4    1    6    6  503    0 -0.37528614633E+02  0.28283958050E+02 -0.73610449682E+02  0.87331995864E+02  0.00000000000E+00 0. -1.
         -4    1    6    6    0  503 -0.26090181113E+03  0.46251141215E+02 -0.16144756681E+03  0.31028090489E+03  0.00000000000E+00 0.  1.
<mgrwt>
<rscale>  0 0.19334098E+04</rscale>
<asrwt>0</asrwt>
<pdfrwt beam="1">  1        2 0.96205774E-01 0.19334098E+04</pdfrwt>
<pdfrwt beam="2">  1       -1 0.22991114E+00 0.19334098E+04</pdfrwt>
<totfact> 0.47539533E+00</totfact>
</mgrwt>
</event>
<event>
12    7  0.1675873E-007  0.1812325E+04  0.7818608E-02  0.8699773E-01
         -1   -1    0    0    0  501 -0.00000000000E+00  0.00000000000E+00  0.57377860294E+03  0.57377860294E+03  0.00000000000E+00 0.  1.
          2   -1    0    0  501    0  0.00000000000E+00 -0.00000000000E+00 -0.14310921642E+04  0.14310921642E+04  0.00000000000E+00 0. -1.
         24    2    1    2    0    0 -0.57217765982E+03 -0.28315768573E+03 -0.59063091091E+03  0.87337965952E+03  0.79884963314E+02 0.  0.
        254    2    1    2    0    0  0.57217765982E+03  0.28315768573E+03 -0.26668265035E+03  0.11314911076E+04  0.89531387859E+03 0.  0.
         23    2    4    4    0    0  0.18760344702E+02  0.48467822768E+03 -0.19722308211E+03  0.53199322739E+03  0.94100557601E+02 0.  0.
         23    2    4    4    0    0  0.55341731512E+03 -0.20152054195E+03 -0.69459568232E+02  0.59949788022E+03  0.87703040210E+02 0.  0.
          4    1    3    3  502    0 -0.44292193977E+02 -0.56751822096E+01 -0.23777551244E+02  0.50590296338E+02  0.00000000000E+00 0. -1.
         -3    1    3    3    0  502 -0.52788546585E+03 -0.27748250352E+03 -0.56685335966E+03  0.82278936318E+03  0.00000000000E+00 0.  1.
         13    1    5    5    0    0  0.43757868862E+02  0.23740619253E+03 -0.13158976715E+03  0.27494057205E+03  0.00000000000E+00 0.  1.
        -13    1    5    5    0    0 -0.24997524160E+02  0.24727203515E+03 -0.65633314965E+02  0.25705265534E+03  0.00000000000E+00 0. -1.
          1    1    6    6  503    0  0.40918287619E+03 -0.12568115676E+03 -0.82840206643E+02  0.43599183383E+03  0.00000000000E+00 0. -1.
         -1    1    6    6    0  503  0.14423443893E+03 -0.75839385198E+02  0.13380638411E+02  0.16350604639E+03  0.00000000000E+00 0.  1.
<mgrwt>
<rscale>  0 0.18123245E+04</rscale>
<asrwt>0</asrwt>
<pdfrwt beam="1">  1        2 0.22016802E+00 0.18123245E+04</pdfrwt>
<pdfrwt beam="2">  1       -1 0.88273632E-01 0.18123245E+04</pdfrwt>
<totfact> 0.18821035E+01</totfact>
</mgrwt>
</event>
<event>
12    7  0.1675873E-007  0.1892384E+04  0.7818608E-02  0.8658657E-01
         -1   -1    0    0    0  501 -0.00000000000E+00  0.00000000000E+00  0.14950523437E+04  0.14950523437E+04  0.00000000000E+00 0.  1.
          2   -1    0    0  501    0  0.00000000000E+00 -0.00000000000E+00 -0.59882819370E+03  0.59882819370E+03  0.00000000000E+00 0. -1.
         24    2    1    2    0    0 -0.37832170263E+03 -0.53913280564E+03 -0.11825118747E+02  0.66342754552E+03  0.78770438100E+02 0.  0.
        254    2    1    2    0    0  0.37832170263E+03  0.53913280564E+03  0.90804926875E+03  0.14304529919E+04  0.88760959590E+03 0.  0.
         23    2    4    4    0    0  0.17779920866E+03  0.50019978276E+03  0.10410219065E+04  0.11719547691E+04  0.89101009477E+02 0.  0.
         23    2    4    4    0    0  0.20052249397E+03  0.38933022884E+02 -0.13297263770E+03  0.25849822276E+03  0.86107827369E+02 0.  0.
          4    1    3    3  502    0 -0.21285948320E+03 -0.36902629600E+03 -0.80147046136E+01  0.42609130737E+03  0.00000000000E+00 0. -1.
         -3    1    3    3    0  502 -0.16546221943E+03 -0.17010650964E+03 -0.38104141337E+01  0.23733623815E+03  0.00000000000E+00 0.  1.
         13    1    5    5    0    0  0.10275703324E+03  0.38337510452E+03  0.71909288094E+03  0.82135866105E+03  0.00000000000E+00 0.  1.
        -13    1    5    5    0    0  0.75042175420E+02  0.11682467824E+03  0.32192902551E+03  0.35059610808E+03  0.00000000000E+00 0. -1.
          1    1    6    6  503    0  0.15781857409E+03  0.57318316844E+02 -0.12918441655E+03  0.21185066735E+03  0.00000000000E+00 0. -1.
         -1    1    6    6    0  503  0.42703919878E+02 -0.18385293960E+02 -0.37882211515E+01  0.46647555417E+02  0.00000000000E+00 0.  1.
<mgrwt>
<rscale>  0 0.18923842E+04</rscale>
<asrwt>0</asrwt>
<pdfrwt beam="1">  1        2 0.92127415E-01 0.18923842E+04</pdfrwt>
<pdfrwt beam="2">  1       -1 0.23000805E+00 0.18923842E+04</pdfrwt>
<totfact> 0.50214457E+00</totfact>
</mgrwt>
</event>
<event>
12    7  0.1675873E-007  0.1211447E+04  0.7818608E-02  0.9102896E-01
         -1   -1    0    0    0  501 -0.00000000000E+00  0.00000000000E+00  0.53030908780E+03  0.53030908780E+03  0.00000000000E+00 0.  1.
          2   -1    0    0  501    0  0.00000000000E+00 -0.00000000000E+00 -0.69186208598E+03  0.69186208598E+03  0.00000000000E+00 0. -1.
         24    2    1    2    0    0 -0.12018341871E+03 -0.12884071713E+03 -0.22626447390E+03  0.29800860886E+03  0.81052663629E+02 0.  0.
        254    2    1    2    0    0  0.12018341871E+03  0.12884071713E+03  0.64711475721E+02  0.92416256492E+03  0.90490048446E+03 0.  0.
         23    2    4    4    0    0 -0.11354119373E+03  0.51669097460E+02  0.44010188261E+03  0.46636438308E+03  0.90800729150E+02 0.  0.
         23    2    4    4    0    0  0.23372461245E+03  0.77171619671E+02 -0.37539040689E+03  0.45779818184E+03  0.89880834252E+02 0.  0.
          4    1    3    3  502    0 -0.12552796555E+03 -0.13164972456E+03 -0.19704128402E+03  0.26816820789E+03  0.00000000000E+00 0. -1.
         -3    1    3    3    0  502  0.53445468393E+01  0.28090074255E+01 -0.29223189883E+02  0.29840400978E+02  0.00000000000E+00 0.  1.
         13    1    5    5    0    0 -0.10828471320E+03  0.20162418131E+02  0.40111528349E+03  0.41596342732E+03  0.00000000000E+00 0. -1.
        -13    1    5    5    0    0 -0.52564805304E+01  0.31506679329E+02  0.38986599129E+02  0.50400955761E+02  0.00000000000E+00 0.  1.
          1    1    6    6  503    0  0.21236847083E+03  0.73226393540E+02 -0.37369252022E+03  0.43601441695E+03  0.00000000000E+00 0. -1.
         -1    1    6    6    0  503  0.21356141614E+02  0.39452261313E+01 -0.16978866679E+01  0.21783764895E+02  0.00000000000E+00 0.  1.
<mgrwt>
<rscale>  0 0.12114467E+04</rscale>
<asrwt>0</asrwt>
<pdfrwt beam="1">  1        2 0.10644032E+00 0.12114467E+04</pdfrwt>
<pdfrwt beam="2">  1       -1 0.81586014E-01 0.12114467E+04</pdfrwt>
<totfact> 0.70088146E+01</totfact>
</mgrwt>
</event>
<event>
12    7  0.1675873E-007  0.1307351E+04  0.7818608E-02  0.9023756E-01
          2   -1    0    0  501    0  0.00000000000E+00  0.00000000000E+00  0.28855713367E+03  0.28855713367E+03  0.00000000000E+00 0. -1.
         -1   -1    0    0    0  501 -0.00000000000E+00 -0.00000000000E+00 -0.14807872027E+04  0.14807872027E+04  0.00000000000E+00 0.  1.
         24    2    1    2    0    0 -0.31223668073E+03  0.25635465685E+02 -0.18024048568E+03  0.37034800016E+03  0.80759436884E+02 0.  0.
        254    2    1    2    0    0  0.31223668073E+03 -0.25635465685E+02 -0.10119895834E+04  0.13989963362E+04  0.91373897261E+03 0.  0.
         23    2    4    4    0    0  0.54842110353E+03 -0.18465686056E+03 -0.91170421486E+03  0.10836625949E+04  0.90863530464E+02 0.  0.
         23    2    4    4    0    0 -0.23618442280E+03  0.15902139487E+03 -0.10028536850E+03  0.31533374137E+03  0.91144542958E+02 0.  0.
          4    1    3    3  502    0 -0.31552569836E+03  0.19006431680E+02 -0.17687108646E+03  0.36221691290E+03  0.00000000000E+00 0. -1.
         -3    1    3    3    0  502  0.32890176254E+01  0.66290340045E+01 -0.33693992214E+01  0.81310872512E+01  0.00000000000E+00 0.  1.
         13    1    5    5    0    0  0.14095209273E+03 -0.14619188384E+02 -0.18030647731E+03  0.22932866998E+03  0.00000000000E+00 0.  1.
        -13    1    5    5    0    0  0.40746901080E+03 -0.17003767217E+03 -0.73139773754E+03  0.85433392488E+03  0.00000000000E+00 0. -1.
          1    1    6    6  503    0 -0.11879923849E+03  0.97391187502E+02 -0.80552317402E+01  0.15382844089E+03  0.00000000000E+00 0. -1.
         -1    1    6    6    0  503 -0.11738518431E+03  0.61630207371E+02 -0.92230136760E+02  0.16150530048E+03  0.00000000000E+00 0.  1.
<mgrwt>
<rscale>  0 0.13073511E+04</rscale>
<asrwt>0</asrwt>
<pdfrwt beam="1">  1        2 0.44393406E-01 0.13073511E+04</pdfrwt>
<pdfrwt beam="2">  1       -1 0.22781341E+00 0.13073511E+04</pdfrwt>
<totfact> 0.12569497E+01</totfact>
</mgrwt>
</event>
<event>
12    7  0.1675873E-007  0.1939366E+04  0.7818608E-02  0.8635506E-01
         -1   -1    0    0    0  501 -0.00000000000E+00  0.00000000000E+00  0.19768217255E+04  0.19768217255E+04  0.00000000000E+00 0.  1.
          2   -1    0    0  501    0  0.00000000000E+00 -0.00000000000E+00 -0.47565509001E+03  0.47565509001E+03  0.00000000000E+00 0. -1.
         24    2    1    2    0    0 -0.52940862043E+03 -0.23227019569E+03  0.12102853964E+04  0.13439027762E+04  0.84029756612E+02 0.  0.
        254    2    1    2    0    0  0.52940862043E+03  0.23227019569E+03  0.29088123915E+03  0.11085740393E+04  0.90005642836E+03 0.  0.
         23    2    4    4    0    0  0.38365473983E+03  0.54899873650E+03  0.57531853487E+02  0.67895202463E+03  0.95264712849E+02 0.  0.
         23    2    4    4    0    0  0.14575388060E+03 -0.31672854081E+03  0.23334938567E+03  0.42962201471E+03  0.92530954090E+02 0.  0.
          2    1    3    3  502    0 -0.93719429454E+02 -0.25665616417E+02  0.27447230431E+03  0.29116507544E+03  0.00000000000E+00 0. -1.
         -1    1    3    3    0  502 -0.43568919098E+03 -0.20660457927E+03  0.93581309206E+03  0.10527377007E+04  0.00000000000E+00 0.  1.
         13    1    5    5    0    0  0.61539935022E+02  0.12094914360E+03  0.45425398173E+02  0.14310599477E+03  0.00000000000E+00 0. -1.
        -13    1    5    5    0    0  0.32211480481E+03  0.42804959290E+03  0.12106455314E+02  0.53584602986E+03  0.00000000000E+00 0.  1.
          1    1    6    6  503    0 -0.91993455621E+01 -0.31863021869E+02  0.63051950155E+01  0.33758489385E+02  0.00000000000E+00 0. -1.
         -1    1    6    6    0  503  0.15495322616E+03 -0.28486551894E+03  0.22704419065E+03  0.39586352533E+03  0.00000000000E+00 0.  1.
<mgrwt>
<rscale>  0 0.19393662E+04</rscale>
<asrwt>0</asrwt>
<pdfrwt beam="1">  1        2 0.73177707E-01 0.19393662E+04</pdfrwt>
<pdfrwt beam="2">  1       -1 0.30412642E+00 0.19393662E+04</pdfrwt>
<totfact> 0.21632308E+00</totfact>
</mgrwt>
</event>
<event>
12    7  0.1675873E-007  0.1349178E+04  0.7818608E-02  0.8991451E-01
          2   -1    0    0  501    0  0.00000000000E+00  0.00000000000E+00  0.63340400943E+03  0.63340400943E+03  0.00000000000E+00 0. -1.
         -1   -1    0    0    0  501 -0.00000000000E+00 -0.00000000000E+00 -0.71845187716E+03  0.71845187716E+03  0.00000000000E+00 0.  1.
         24    2    1    2    0    0  0.92049453050E+02 -0.79714488402E+02  0.32126574626E+03  0.35643437215E+03  0.94901424974E+02 0.  0.
        254    2    1    2    0    0 -0.92049453050E+02  0.79714488402E+02 -0.40631361399E+03  0.99542151444E+03  0.90052525619E+03 0.  0.
         23    2    4    4    0    0 -0.36110917374E+03 -0.12497035512E+03 -0.49428093943E+03  0.63222649672E+03  0.96846636744E+02 0.  0.
         23    2    4    4    0    0  0.26905972069E+03  0.20468484353E+03  0.87967325437E+02  0.36319501773E+03  0.99415049625E+02 0.  0.
          4    1    3    3  502    0  0.10268874990E+03 -0.71814086222E+02  0.31933715083E+03  0.34304293935E+03  0.00000000000E+00 0. -1.
         -3    1    3    3    0  502 -0.10639296851E+02 -0.79004021807E+01  0.19285954272E+01  0.13391432800E+02  0.00000000000E+00 0.  1.
         13    1    5    5    0    0 -0.24393369055E+03 -0.12753766677E+03 -0.37295729339E+03  0.46353710156E+03  0.00000000000E+00 0.  1.
        -13    1    5    5    0    0 -0.11717548318E+03  0.25673116488E+01 -0.12132364604E+03  0.16868939515E+03  0.00000000000E+00 0. -1.
          3    1    6    6  503    0  0.14658840581E+02 -0.10948446204E+02  0.94115353511E+01  0.20574913830E+02  0.00000000000E+00 0. -1.
         -3    1    6    6    0  503  0.25440088011E+03  0.21563328973E+03  0.78555790086E+02  0.34262010390E+03  0.00000000000E+00 0.  1.
<mgrwt>
<rscale>  0 0.13491780E+04</rscale>
<asrwt>0</asrwt>
<pdfrwt beam="1">  1        2 0.97446771E-01 0.13491780E+04</pdfrwt>
<pdfrwt beam="2">  1       -1 0.11053106E+00 0.13491780E+04</pdfrwt>
<totfact> 0.39110999E+01</totfact>
</mgrwt>
</event>
<event>
12    7  0.1675873E-007  0.1867014E+04  0.7818608E-02  0.8671452E-01
         -1   -1    0    0    0  501 -0.00000000000E+00  0.00000000000E+00  0.69115782318E+03  0.69115782318E+03  0.00000000000E+00 0.  1.
          2   -1    0    0  501    0  0.00000000000E+00 -0.00000000000E+00 -0.12608343193E+04  0.12608343193E+04  0.00000000000E+00 0. -1.
         24    2    1    2    0    0 -0.50180014527E+03  0.28580723570E+03  0.21684781428E+03  0.62196309846E+03  0.79535900782E+02 0.  0.
        254    2    1    2    0    0  0.50180014527E+03 -0.28580723570E+03 -0.78652431042E+03  0.13300290440E+04  0.90380728329E+03 0.  0.
         23    2    4    4    0    0 -0.24116638977E+03 -0.18250418465E+03 -0.21497250829E+03  0.38241199637E+03  0.92502706331E+02 0.  0.
         23    2    4    4    0    0  0.74296653504E+03 -0.10330305105E+03 -0.57155180214E+03  0.94761704767E+03  0.92929080232E+02 0.  0.
          4    1    3    3  502    0 -0.11521746912E+03  0.54973932772E+02  0.15017633959E+02  0.12854076320E+03  0.00000000000E+00 0. -1.
         -3    1    3    3    0  502 -0.38658267615E+03  0.23083330293E+03  0.20183018032E+03  0.49342233526E+03  0.00000000000E+00 0.  1.
         13    1    5    5    0    0 -0.96601490330E+01 -0.57940565762E+01 -0.42423421239E+02  0.43893464668E+02  0.00000000000E+00 0. -1.
        -13    1    5    5    0    0 -0.23150624074E+03 -0.17671012807E+03 -0.17254908705E+03  0.33851853170E+03  0.00000000000E+00 0.  1.
          2    1    6    6  503    0  0.35009958826E+03 -0.89705938899E+02 -0.30195395963E+03  0.47094911711E+03  0.00000000000E+00 0. -1.
         -2    1    6    6    0  503  0.39286694679E+03 -0.13597112154E+02 -0.26959784250E+03  0.47666793055E+03  0.00000000000E+00 0.  1.
<mgrwt>
<rscale>  0 0.18670142E+04</rscale>
<asrwt>0</asrwt>
<pdfrwt beam="1">  1        2 0.19397451E+00 0.18670142E+04</pdfrwt>
<pdfrwt beam="2">  1       -1 0.10633197E+00 0.18670142E+04</pdfrwt>
<totfact> 0.15425549E+01</totfact>
</mgrwt>
</event>
<event>
12    7  0.1675873E-007  0.1573007E+04  0.7818608E-02  0.8837304E-01
          2   -1    0    0  501    0  0.00000000000E+00  0.00000000000E+00  0.58978900687E+03  0.58978900687E+03  0.00000000000E+00 0. -1.
         -1   -1    0    0    0  501 -0.00000000000E+00 -0.00000000000E+00 -0.10488293436E+04  0.10488293436E+04  0.00000000000E+00 0.  1.
         24    2    1    2    0    0  0.44708952491E+03 -0.11581439963E+03  0.21618371385E+02  0.46922991956E+03  0.80045892957E+02 0.  0.
        254    2    1    2    0    0 -0.44708952491E+03  0.11581439963E+03 -0.48065870809E+03  0.11693884309E+04  0.96079888123E+03 0.  0.
         23    2    4    4    0    0 -0.40017696507E+03 -0.14177336395E+03 -0.69432781538E+03  0.81911426871E+03  0.92821225455E+02 0.  0.
         23    2    4    4    0    0 -0.46912559841E+02  0.25758776358E+03  0.21366910729E+03  0.35027416217E+03  0.92115455025E+02 0.  0.
          4    1    3    3  502    0  0.32935924849E+03 -0.49153067405E+02  0.24495178531E+02  0.33390650244E+03  0.00000000000E+00 0. -1.
         -1    1    3    3    0  502  0.11773027642E+03 -0.66661332229E+02 -0.28768071456E+01  0.13532341711E+03  0.00000000000E+00 0.  1.
         13    1    5    5    0    0 -0.26132466405E+03 -0.52384762297E+02 -0.38155285960E+03  0.46542166691E+03  0.00000000000E+00 0. -1.
        -13    1    5    5    0    0 -0.13885230102E+03 -0.89388601648E+02 -0.31277495578E+03  0.35369260179E+03  0.00000000000E+00 0.  1.
          4    1    6    6  503    0 -0.63330863454E+02  0.19871636780E+03  0.12688520305E+03  0.24412875261E+03  0.00000000000E+00 0.  1.
         -4    1    6    6    0  503  0.16418303613E+02  0.58871395779E+02  0.86783904247E+02  0.10614540956E+03  0.00000000000E+00 0. -1.
<mgrwt>
<rscale>  0 0.15730073E+04</rscale>
<asrwt>0</asrwt>
<pdfrwt beam="1">  1        2 0.90736771E-01 0.15730073E+04</pdfrwt>
<pdfrwt beam="2">  1       -1 0.16135836E+00 0.15730073E+04</pdfrwt>
<totfact> 0.15867440E+01</totfact>
</mgrwt>
</event>
<event>
12    7  0.1675873E-007  0.1341241E+04  0.7818608E-02  0.8997485E-01
         -1   -1    0    0    0  501 -0.00000000000E+00  0.00000000000E+00  0.28280587506E+03  0.28280587506E+03  0.00000000000E+00 0.  1.
          2   -1    0    0  501    0  0.00000000000E+00 -0.00000000000E+00 -0.15902491832E+04  0.15902491832E+04  0.00000000000E+00 0. -1.
         24    2    1    2    0    0  0.35856777845E+03 -0.66778836455E+02 -0.52300021905E+03  0.64259410015E+03  0.79797767367E+02 0.  0.
        254    2    1    2    0    0 -0.35856777845E+03  0.66778836455E+02 -0.78444308907E+03  0.12304609581E+04  0.87501596824E+03 0.  0.
         23    2    4    4    0    0 -0.16891035098E+03  0.23106691682E+03  0.91858497810E+02  0.31437643707E+03  0.92043108645E+02 0.  0.
         23    2    4    4    0    0 -0.18965742747E+03 -0.16428808037E+03 -0.87630158688E+03  0.91608452103E+03  0.91355707849E+02 0.  0.
          2    1    3    3  502    0  0.31852477456E+03 -0.48059668984E+02 -0.49392635024E+03  0.58968720798E+03  0.00000000000E+00 0. -1.
         -1    1    3    3    0  502  0.40043003888E+02 -0.18719167471E+02 -0.29073868806E+02  0.52906892165E+02  0.00000000000E+00 0.  1.
         13    1    5    5    0    0 -0.19264610680E+02  0.31242735761E+02 -0.18874515658E+02  0.41273249252E+02  0.00000000000E+00 0. -1.
        -13    1    5    5    0    0 -0.14964574030E+03  0.19982418106E+03  0.11073301347E+03  0.27310318782E+03  0.00000000000E+00 0.  1.
          2    1    6    6  503    0 -0.52605238015E+01 -0.48635170264E+02 -0.14115305335E+03  0.14938954906E+03  0.00000000000E+00 0. -1.
         -2    1    6    6    0  503 -0.18439690367E+03 -0.11565291010E+03 -0.73514853353E+03  0.76669497197E+03  0.00000000000E+00 0.  1.
<mgrwt>
<rscale>  0 0.13412409E+04</rscale>
<asrwt>0</asrwt>
<pdfrwt beam="1">  1        2 0.24465372E+00 0.13412409E+04</pdfrwt>
<pdfrwt beam="2">  1       -1 0.43508597E-01 0.13412409E+04</pdfrwt>
<totfact> 0.65572602E+01</totfact>
</mgrwt>
</event>
<event>
12    7  0.1675873E-007  0.1300695E+04  0.7818608E-02  0.9029014E-01
          2   -1    0    0  501    0  0.00000000000E+00  0.00000000000E+00  0.60402853342E+03  0.60402853342E+03  0.00000000000E+00 0. -1.
         -1   -1    0    0    0  501 -0.00000000000E+00 -0.00000000000E+00 -0.70021847727E+03  0.70021847727E+03  0.00000000000E+00 0.  1.
         24    2    1    2    0    0  0.28861046148E+03  0.12009105386E+03  0.11432183897E+03  0.34180479605E+03  0.77737867500E+02 0.  0.
        254    2    1    2    0    0 -0.28861046148E+03 -0.12009105386E+03 -0.21051178281E+03  0.96244221464E+03  0.88558565149E+03 0.  0.
         23    2    4    4    0    0 -0.11781781878E+03  0.32462495674E+03  0.11781152937E+03  0.37659135482E+03  0.93161639671E+02 0.  0.
         23    2    4    4    0    0 -0.17079264271E+03 -0.44471601060E+03 -0.32832331218E+03  0.58585085982E+03  0.92100899789E+02 0.  0.
          2    1    3    3  502    0  0.27608587585E+03  0.11681039203E+03  0.12521979522E+03  0.32488163329E+03  0.00000000000E+00 0. -1.
         -1    1    3    3    0  502  0.12524585630E+02  0.32806618258E+01 -0.10897956258E+02  0.16923162760E+02  0.00000000000E+00 0.  1.
         13    1    5    5    0    0 -0.81979703592E+02  0.23783279857E+03  0.12779079035E+03  0.28216236101E+03  0.00000000000E+00 0. -1.
        -13    1    5    5    0    0 -0.35838115184E+02  0.86792158177E+02 -0.99792609724E+01  0.94428993802E+02  0.00000000000E+00 0.  1.
          1    1    6    6  503    0 -0.70088065862E+02 -0.29966534158E+03 -0.19156261970E+03  0.36250226370E+03  0.00000000000E+00 0. -1.
         -1    1    6    6    0  503 -0.10070457685E+03 -0.14505066902E+03 -0.13676069249E+03  0.22334859613E+03  0.00000000000E+00 0.  1.
<mgrwt>
<rscale>  0 0.13006951E+04</rscale>
<asrwt>0</asrwt>
<pdfrwt beam="1">  1        2 0.92927466E-01 0.13006951E+04</pdfrwt>
<pdfrwt beam="2">  1       -1 0.10772592E+00 0.13006951E+04</pdfrwt>
<totfact> 0.44200457E+01</totfact>
</mgrwt>
</event>
<event>
12    7  0.1675873E-007  0.1446144E+04  0.7818608E-02  0.8921078E-01
         -3   -1    0    0    0  501 -0.00000000000E+00  0.00000000000E+00  0.52729205386E+03  0.52729205386E+03  0.00000000000E+00 0.  1.
          2   -1    0    0  501    0  0.00000000000E+00 -0.00000000000E+00 -0.99154417761E+03  0.99154417761E+03  0.00000000000E+00 0. -1.
         24    2    1    2    0    0  0.82777403610E+02 -0.38463492345E+03 -0.30576213946E+03  0.50458613792E+03  0.79501960775E+02 0.  0.
        254    2    1    2    0    0 -0.82777403610E+02  0.38463492345E+03 -0.15848998429E+03  0.10142500935E+04  0.92129694142E+03 0.  0.
         23    2    4    4    0    0 -0.26287568809E+03 -0.22305103418E+03 -0.10337548304E+03  0.37144045803E+03  0.91793965661E+02 0.  0.
         23    2    4    4    0    0  0.18009828448E+03  0.60768595762E+03 -0.55114501247E+02  0.64280963552E+03  0.91918464427E+02 0.  0.
          4    1    3    3  502    0  0.81547776831E+02 -0.31630144021E+03 -0.28405093428E+03  0.43287593402E+03  0.00000000000E+00 0. -1.
         -3    1    3    3    0  502  0.12296267782E+01 -0.68333483231E+02 -0.21711205181E+02  0.71710203896E+02  0.00000000000E+00 0.  1.
         13    1    5    5    0    0 -0.12548292874E+03 -0.16555344996E+03 -0.64351209464E+02  0.21747410963E+03  0.00000000000E+00 0. -1.
        -13    1    5    5    0    0 -0.13739275935E+03 -0.57497584219E+02 -0.39024273576E+02  0.15396634841E+03  0.00000000000E+00 0.  1.
          1    1    6    6  503    0  0.33096592783E+02  0.15968904618E+03 -0.52430430968E+02  0.17130360771E+03  0.00000000000E+00 0. -1.
         -1    1    6    6    0  503  0.14700169170E+03  0.44799691145E+03 -0.26840702795E+01  0.47150602781E+03  0.00000000000E+00 0.  1.
<mgrwt>
<rscale>  0 0.14461443E+04</rscale>
<asrwt>0</asrwt>
<pdfrwt beam="1">  1        2 0.15254526E+00 0.14461443E+04</pdfrwt>
<pdfrwt beam="2">  1       -3 0.81121855E-01 0.14461443E+04</pdfrwt>
<totfact> 0.22147641E+01</totfact>
</mgrwt>
</event>
<event>
12    7  0.1675873E-007  0.2629745E+04  0.7818608E-02  0.8358167E-01
         -1   -1    0    0    0  501 -0.00000000000E+00  0.00000000000E+00  0.14657420465E+04  0.14657420465E+04  0.00000000000E+00 0.  1.
          2   -1    0    0  501    0  0.00000000000E+00 -0.00000000000E+00 -0.11795317417E+04  0.11795317417E+04  0.00000000000E+00 0. -1.
         24    2    1    2    0    0 -0.28584639226E+03 -0.86307095529E+03  0.85130691443E+03  0.12480460272E+04  0.79346011649E+02 0.  0.
        254    2    1    2    0    0  0.28584639226E+03  0.86307095529E+03 -0.56509660961E+03  0.13972277610E+04  0.89794855307E+03 0.  0.
         23    2    4    4    0    0 -0.26585858650E+03  0.50239527113E+03 -0.97737575903E+02  0.58345592011E+03  0.88240469772E+02 0.  0.
         23    2    4    4    0    0  0.55170497876E+03  0.36067568416E+03 -0.46735903371E+03  0.81377184085E+03  0.96616819563E+02 0.  0.
          2    1    3    3  502    0 -0.97467410937E+01 -0.10256000193E+02  0.43193229494E+01  0.14793277279E+02  0.00000000000E+00 0. -1.
         -1    1    3    3    0  502 -0.27609965117E+03 -0.85281495510E+03  0.84698759148E+03  0.12332527499E+04  0.00000000000E+00 0.  1.
         13    1    5    5    0    0 -0.24241058225E+02  0.11556559431E+03 -0.59972079642E+01  0.11823282961E+03  0.00000000000E+00 0.  1.
        -13    1    5    5    0    0 -0.24161752827E+03  0.38682967681E+03 -0.91740367938E+02  0.46522309051E+03  0.00000000000E+00 0. -1.
          1    1    6    6  503    0  0.41770765955E+03  0.29203308281E+03 -0.31278950043E+03  0.59799689120E+03  0.00000000000E+00 0. -1.
         -1    1    6    6    0  503  0.13399731922E+03  0.68642601349E+02 -0.15456953328E+03  0.21577494965E+03  0.00000000000E+00 0.  1.
<mgrwt>
<rscale>  0 0.26297447E+04</rscale>
<asrwt>0</asrwt>
<pdfrwt beam="1">  1        2 0.18146642E+00 0.26297447E+04</pdfrwt>
<pdfrwt beam="2">  1       -1 0.22549878E+00 0.26297447E+04</pdfrwt>
<totfact> 0.19812744E+00</totfact>
</mgrwt>
</event>
<event>
12    7  0.1675873E-007  0.1842891E+04  0.7818608E-02  0.8683817E-01
          2   -1    0    0  501    0  0.00000000000E+00  0.00000000000E+00  0.94761682384E+03  0.94761682384E+03  0.00000000000E+00 0. -1.
         -1   -1    0    0    0  501 -0.00000000000E+00 -0.00000000000E+00 -0.89599745587E+03  0.89599745587E+03  0.00000000000E+00 0.  1.
         24    2    1    2    0    0  0.22573373791E+03  0.38617419501E+03 -0.42719642673E+03  0.62363661876E+03  0.79621705042E+02 0.  0.
        254    2    1    2    0    0 -0.22573373791E+03 -0.38617419501E+03  0.47881579470E+03  0.12199776609E+04  0.10290746808E+04 0.  0.
         23    2    4    4    0    0  0.81752400071E+02 -0.43835973391E+03 -0.17669797864E+03  0.48815902793E+03  0.90743317467E+02 0.  0.
         23    2    4    4    0    0 -0.30748613799E+03  0.52185538892E+02  0.65551377334E+03  0.73181863302E+03  0.92677662199E+02 0.  0.
          4    1    3    3  502    0  0.11884389692E+02  0.34596574543E+01 -0.13492062702E+01  0.12451036327E+02  0.00000000000E+00 0. -1.
         -3    1    3    3    0  502  0.21384934822E+03  0.38271453756E+03 -0.42584722046E+03  0.61118558243E+03  0.00000000000E+00 0.  1.
         13    1    5    5    0    0  0.32048655804E+02 -0.44861619971E+02 -0.31389627356E+01  0.55222589330E+02  0.00000000000E+00 0. -1.
        -13    1    5    5    0    0  0.49703744267E+02 -0.39349811393E+03 -0.17355901590E+03  0.43293643860E+03  0.00000000000E+00 0.  1.
          4    1    6    6  503    0 -0.13065155961E+03 -0.20834725941E+02  0.30580830430E+03  0.33320059246E+03  0.00000000000E+00 0. -1.
         -4    1    6    6    0  503 -0.17683457837E+03  0.73020264833E+02  0.34970546904E+03  0.39861804056E+03  0.00000000000E+00 0.  1.
<mgrwt>
<rscale>  0 0.18428915E+04</rscale>
<asrwt>0</asrwt>
<pdfrwt beam="1">  1        2 0.14578720E+00 0.18428915E+04</pdfrwt>
<pdfrwt beam="2">  1       -1 0.13784576E+00 0.18428915E+04</pdfrwt>
<totfact> 0.12768503E+01</totfact>
</mgrwt>
</event>
<event>
12    7  0.1675873E-007  0.2087386E+04  0.7818608E-02  0.8566820E-01
         -1   -1    0    0    0  501 -0.00000000000E+00  0.00000000000E+00  0.10070748870E+04  0.10070748870E+04  0.00000000000E+00 0.  1.
          2   -1    0    0  501    0  0.00000000000E+00 -0.00000000000E+00 -0.10816427096E+04  0.10816427096E+04  0.00000000000E+00 0. -1.
         24    2    1    2    0    0 -0.39976811677E+03  0.50936523447E+03  0.52145318906E+03  0.83538618562E+03  0.81787294099E+02 0.  0.
        254    2    1    2    0    0  0.39976811677E+03 -0.50936523447E+03 -0.59602101165E+03  0.12533314110E+04  0.89237385114E+03 0.  0.
         23    2    4    4    0    0 -0.15063695530E+03 -0.40397783232E+03 -0.15145113041E+02  0.44111130651E+03  0.91979503019E+02 0.  0.
         23    2    4    4    0    0  0.55040507207E+03 -0.10538740214E+03 -0.58087589861E+03  0.81222010449E+03  0.90732798125E+02 0.  0.
          4    1    3    3  502    0 -0.17625517866E+02  0.59232691928E+02  0.41229943689E+02  0.74290503630E+02  0.00000000000E+00 0. -1.
         -3    1    3    3    0  502 -0.38214259890E+03  0.45013254254E+03  0.48022324537E+03  0.76109568199E+03  0.00000000000E+00 0.  1.
         13    1    5    5    0    0 -0.61082740904E+02 -0.24182585885E+03  0.27783759028E+02  0.25096371154E+03  0.00000000000E+00 0.  1.
        -13    1    5    5    0    0 -0.89554214395E+02 -0.16215197348E+03 -0.42928872068E+02  0.19014759498E+03  0.00000000000E+00 0. -1.
          4    1    6    6  503    0  0.45806592092E+03 -0.54865895405E+02 -0.45253578714E+03  0.64623779913E+03  0.00000000000E+00 0. -1.
         -4    1    6    6    0  503  0.92339151154E+02 -0.50521506739E+02 -0.12834011147E+03  0.16598230536E+03  0.00000000000E+00 0.  1.
<mgrwt>
<rscale>  0 0.20873861E+04</rscale>
<asrwt>0</asrwt>
<pdfrwt beam="1">  1        2 0.16640657E+00 0.20873861E+04</pdfrwt>
<pdfrwt beam="2">  1       -1 0.15493460E+00 0.20873861E+04</pdfrwt>
<totfact> 0.75174772E+00</totfact>
</mgrwt>
</event>
<event>
12    7  0.1675873E-007  0.4054833E+04  0.7818608E-02  0.7993575E-01
         -1   -1    0    0    0  501 -0.00000000000E+00  0.00000000000E+00  0.16894646263E+04  0.16894646263E+04  0.00000000000E+00 0.  1.
          2   -1    0    0  501    0  0.00000000000E+00 -0.00000000000E+00 -0.24329709154E+04  0.24329709154E+04  0.00000000000E+00 0. -1.
         24    2    1    2    0    0 -0.11857231026E+04  0.56911265457E+03 -0.17865241211E+04  0.22199107453E+04  0.80664690106E+02 0.  0.
        254    2    1    2    0    0  0.11857231026E+04 -0.56911265457E+03  0.10430178321E+04  0.19025247964E+04  0.89548082797E+03 0.  0.
         23    2    4    4    0    0  0.11511670789E+04 -0.68918590278E+03  0.11002522086E+04  0.17374985499E+04  0.90462347839E+02 0.  0.
         23    2    4    4    0    0  0.34556023687E+02  0.12007324821E+03 -0.57234376528E+02  0.16502624645E+03  0.91357454283E+02 0.  0.
          4    1    3    3  502    0 -0.10740043385E+04  0.49815727877E+03 -0.16366190866E+04  0.20199425804E+04  0.00000000000E+00 0. -1.
         -3    1    3    3    0  502 -0.11171876410E+03  0.70955375800E+02 -0.14990503453E+03  0.19996816492E+03  0.00000000000E+00 0.  1.
         13    1    5    5    0    0  0.52648548869E+03 -0.29855918250E+03  0.55159322501E+03  0.81888927281E+03  0.00000000000E+00 0. -1.
        -13    1    5    5    0    0  0.62468159018E+03 -0.39062672028E+03  0.54865898359E+03  0.91860927710E+03  0.00000000000E+00 0.  1.
          3    1    6    6  503    0  0.56592090632E+02  0.45898672371E+02 -0.47635378076E+02  0.87054477725E+02  0.00000000000E+00 0. -1.
         -3    1    6    6    0  503 -0.22036066944E+02  0.74174575841E+02 -0.95989984518E+01  0.77971768729E+02  0.00000000000E+00 0.  1.
<mgrwt>
<rscale>  0 0.40548333E+04</rscale>
<asrwt>0</asrwt>
<pdfrwt beam="1">  1        2 0.37430322E+00 0.40548333E+04</pdfrwt>
<pdfrwt beam="2">  1       -1 0.25991763E+00 0.40548333E+04</pdfrwt>
<totfact> 0.20414297E-01</totfact>
</mgrwt>
</event>
<event>
12    7  0.1675873E-007  0.1937103E+04  0.7818608E-02  0.8636605E-01
          2   -1    0    0  501    0  0.00000000000E+00  0.00000000000E+00  0.97718749314E+03  0.97718749314E+03  0.00000000000E+00 0. -1.
         -1   -1    0    0    0  501 -0.00000000000E+00 -0.00000000000E+00 -0.95999145273E+03  0.95999145273E+03  0.00000000000E+00 0.  1.
         24    2    1    2    0    0  0.74032541636E+03 -0.15343854123E+03 -0.22784951327E+02  0.76053530447E+03  0.79181357025E+02 0.  0.
        254    2    1    2    0    0 -0.74032541636E+03  0.15343854123E+03  0.39980991741E+02  0.11766436414E+04  0.90070343128E+03 0.  0.
         23    2    4    4    0    0 -0.62967385824E+03  0.49266389818E+03 -0.78684999933E+01  0.80493171584E+03  0.92985318997E+02 0.  0.
         23    2    4    4    0    0 -0.11065155812E+03 -0.33922535695E+03  0.47849491734E+02  0.37171192556E+03  0.92534164680E+02 0.  0.
          4    1    3    3  502    0  0.13843558244E+02  0.14040039312E+01  0.98024092075E+01  0.17020650932E+02  0.00000000000E+00 0. -1.
         -3    1    3    3    0  502  0.72648185811E+03 -0.15484254516E+03 -0.32587360534E+02  0.74351465354E+03  0.00000000000E+00 0.  1.
         13    1    5    5    0    0 -0.22851895222E+03  0.21499819400E+03 -0.38400122735E+02  0.31610078199E+03  0.00000000000E+00 0.  1.
        -13    1    5    5    0    0 -0.40115490602E+03  0.27766570418E+03  0.30531622742E+02  0.48883093385E+03  0.00000000000E+00 0. -1.
          2    1    6    6  503    0 -0.12531524889E+03 -0.27999347703E+03  0.30481514206E+02  0.30826835954E+03  0.00000000000E+00 0. -1.
         -2    1    6    6    0  503  0.14663690777E+02 -0.59231879923E+02  0.17367977529E+02  0.63443566024E+02  0.00000000000E+00 0.  1.
<mgrwt>
<rscale>  0 0.19371026E+04</rscale>
<asrwt>0</asrwt>
<pdfrwt beam="1">  1        2 0.15033654E+00 0.19371026E+04</pdfrwt>
<pdfrwt beam="2">  1       -1 0.14769099E+00 0.19371026E+04</pdfrwt>
<totfact> 0.10099119E+01</totfact>
</mgrwt>
</event>
<event>
12    7  0.1675873E-007  0.1497762E+04  0.7818608E-02  0.8885942E-01
         -1   -1    0    0    0  501 -0.00000000000E+00  0.00000000000E+00  0.68023472754E+03  0.68023472754E+03  0.00000000000E+00 0.  1.
          2   -1    0    0  501    0  0.00000000000E+00 -0.00000000000E+00 -0.82445525131E+03  0.82445525131E+03  0.00000000000E+00 0. -1.
         24    2    1    2    0    0 -0.10187465910E+02  0.41692000668E+03  0.18470374590E+03  0.46371426272E+03  0.83602435754E+02 0.  0.
        254    2    1    2    0    0  0.10187465910E+02 -0.41692000668E+03 -0.32892426967E+03  0.10409757161E+04  0.89527269027E+03 0.  0.
         23    2    4    4    0    0 -0.24524074849E+03  0.14809932180E+03  0.55731528727E+02  0.30564361391E+03  0.90750105184E+02 0.  0.
         23    2    4    4    0    0  0.25542821440E+03 -0.56501932849E+03 -0.38465579840E+03  0.73533210222E+03  0.90899961696E+02 0.  0.
          2    1    3    3  502    0  0.23918212680E+01  0.19231147733E+03  0.40624588966E+02  0.19657004439E+03  0.00000000000E+00 0. -1.
         -1    1    3    3    0  502 -0.12579287178E+02  0.22460852935E+03  0.14407915694E+03  0.26714421833E+03  0.00000000000E+00 0.  1.
         13    1    5    5    0    0 -0.13837896276E+03  0.99520499235E+02 -0.10662070593E+02  0.17078274752E+03  0.00000000000E+00 0.  1.
        -13    1    5    5    0    0 -0.10686178573E+03  0.48578822567E+02  0.66393599320E+02  0.13486086638E+03  0.00000000000E+00 0. -1.
          3    1    6    6  503    0  0.16966249165E+03 -0.28523029760E+03 -0.23494305539E+03  0.40662012126E+03  0.00000000000E+00 0. -1.
         -3    1    6    6    0  503  0.85765722751E+02 -0.27978903089E+03 -0.14971274301E+03  0.32871198095E+03  0.00000000000E+00 0.  1.
<mgrwt>
<rscale>  0 0.14977625E+04</rscale>
<asrwt>0</asrwt>
<pdfrwt beam="1">  1        2 0.12683927E+00 0.14977625E+04</pdfrwt>
<pdfrwt beam="2">  1       -1 0.10465150E+00 0.14977625E+04</pdfrwt>
<totfact> 0.31324158E+01</totfact>
</mgrwt>
</event>
<event>
12    7  0.1675873E-007  0.1515155E+04  0.7818608E-02  0.8874437E-01
          2   -1    0    0  501    0  0.00000000000E+00  0.00000000000E+00  0.15018394608E+04  0.15018394608E+04  0.00000000000E+00 0. -1.
         -1   -1    0    0    0  501 -0.00000000000E+00 -0.00000000000E+00 -0.38214722033E+03  0.38214722033E+03  0.00000000000E+00 0.  1.
         24    2    1    2    0    0  0.10416098916E+03  0.62121831240E+02 -0.21947551671E+03  0.26300488765E+03  0.79331172381E+02 0.  0.
        254    2    1    2    0    0 -0.10416098916E+03 -0.62121831240E+02  0.13391677572E+04  0.16209817935E+04  0.90526408267E+03 0.  0.
         23    2    4    4    0    0 -0.45597169927E+03  0.12165768849E+03  0.53345236789E+03  0.71808030560E+03  0.91417245499E+02 0.  0.
         23    2    4    4    0    0  0.35181071011E+03 -0.18377951973E+03  0.80571538930E+03  0.90290148790E+03  0.92239474619E+02 0.  0.
          2    1    3    3  502    0  0.67450594814E+02  0.35418694671E+02 -0.59363556779E+02  0.96582081912E+02  0.00000000000E+00 0. -1.
         -1    1    3    3    0  502  0.36710394346E+02  0.26703136569E+02 -0.16011195993E+03  0.16642280573E+03  0.00000000000E+00 0.  1.
         13    1    5    5    0    0 -0.10580322215E+03  0.19528206206E+02  0.70224948687E+02  0.12848041125E+03  0.00000000000E+00 0. -1.
        -13    1    5    5    0    0 -0.35016847712E+03  0.10212948228E+03  0.46322741921E+03  0.58959989435E+03  0.00000000000E+00 0.  1.
          3    1    6    6  503    0  0.59533524468E+02 -0.65238776191E+02  0.23135700063E+03  0.24764167702E+03  0.00000000000E+00 0. -1.
         -3    1    6    6    0  503  0.29227718564E+03 -0.11854074354E+03  0.57435838867E+03  0.65525981089E+03  0.00000000000E+00 0.  1.
<mgrwt>
<rscale>  0 0.15151551E+04</rscale>
<asrwt>0</asrwt>
<pdfrwt beam="1">  1        2 0.23105222E+00 0.15151551E+04</pdfrwt>
<pdfrwt beam="2">  1       -1 0.58791881E-01 0.15151551E+04</pdfrwt>
<totfact> 0.40832024E+01</totfact>
</mgrwt>
</event>
<event>
12    7  0.1675873E-007  0.2240225E+04  0.7818608E-02  0.8501870E-01
         -3   -1    0    0    0  501 -0.00000000000E+00  0.00000000000E+00  0.47093945893E+03  0.47093945893E+03  0.00000000000E+00 0.  1.
          2   -1    0    0  501    0  0.00000000000E+00 -0.00000000000E+00 -0.26641464860E+04  0.26641464860E+04  0.00000000000E+00 0. -1.
         24    2    1    2    0    0 -0.52615434814E+03 -0.37728115531E+03 -0.18702014621E+04  0.19807114171E+04  0.79904571553E+02 0.  0.
        254    2    1    2    0    0  0.52615434814E+03  0.37728115531E+03 -0.32300556492E+03  0.11543745278E+04  0.89948234410E+03 0.  0.
         23    2    4    4    0    0 -0.14944065039E+03  0.38817171156E+03 -0.12509018714E+03  0.44428492294E+03  0.93443845129E+02 0.  0.
         23    2    4    4    0    0  0.67559499853E+03 -0.10890556252E+02 -0.19791537779E+03  0.71008960490E+03  0.92247189495E+02 0.  0.
          2    1    3    3  502    0 -0.27903993338E+03 -0.23279444966E+03 -0.11346305040E+04  0.11914037606E+04  0.00000000000E+00 0. -1.
         -1    1    3    3    0  502 -0.24711441476E+03 -0.14448670565E+03 -0.73557095814E+03  0.78930765646E+03  0.00000000000E+00 0.  1.
         13    1    5    5    0    0 -0.13858473570E+03  0.38518223159E+03 -0.13311937767E+03  0.43045539747E+03  0.00000000000E+00 0. -1.
        -13    1    5    5    0    0 -0.10855914689E+02  0.29894799708E+01  0.80291905300E+01  0.13829525472E+02  0.00000000000E+00 0.  1.
          2    1    6    6  503    0  0.67158139925E+03 -0.18812742324E+02 -0.19997176744E+03  0.70097375334E+03  0.00000000000E+00 0. -1.
         -2    1    6    6    0  503  0.40135992815E+01  0.79221860718E+01  0.20563896566E+01  0.91158515658E+01  0.00000000000E+00 0.  1.
<mgrwt>
<rscale>  0 0.22402247E+04</rscale>
<asrwt>0</asrwt>
<pdfrwt beam="1">  1        2 0.40986870E+00 0.22402247E+04</pdfrwt>
<pdfrwt beam="2">  1       -3 0.72452223E-01 0.22402247E+04</pdfrwt>
<totfact> 0.29527685E+00</totfact>
</mgrwt>
</event>
<event>
12    7  0.1675873E-007  0.4443888E+04  0.7818608E-02  0.7920535E-01
         -1   -1    0    0    0  501 -0.00000000000E+00  0.00000000000E+00  0.12004454815E+04  0.12004454815E+04  0.00000000000E+00 0.  1.
          2   -1    0    0  501    0  0.00000000000E+00 -0.00000000000E+00 -0.41126684432E+04  0.41126684432E+04  0.00000000000E+00 0. -1.
         24    2    1    2    0    0  0.79882425124E+03 -0.14439945110E+04  0.21699835167E+03  0.16662379056E+04  0.77589568954E+02 0.  0.
        254    2    1    2    0    0 -0.79882425124E+03  0.14439945110E+04 -0.31292213133E+04  0.36468760191E+04  0.88568523670E+03 0.  0.
         23    2    4    4    0    0 -0.74469326176E+03  0.53876131058E+03 -0.19371994620E+04  0.21461244670E+04  0.90976197037E+02 0.  0.
         23    2    4    4    0    0 -0.54130989480E+02  0.90523320045E+03 -0.11920218513E+04  0.15007515521E+04  0.94666867395E+02 0.  0.
          2    1    3    3  502    0  0.38961574200E+02 -0.97212161760E+02 -0.16394007134E-01  0.10472921716E+03  0.00000000000E+00 0. -1.
         -1    1    3    3    0  502  0.75986267704E+03 -0.13467823493E+04  0.21701474568E+03  0.15615086885E+04  0.00000000000E+00 0.  1.
         13    1    5    5    0    0 -0.57305832600E+03  0.43121664421E+03 -0.14240262156E+04  0.15944260102E+04  0.00000000000E+00 0.  1.
        -13    1    5    5    0    0 -0.17163493576E+03  0.10754466638E+03 -0.51317324644E+03  0.55169845686E+03  0.00000000000E+00 0. -1.
          1    1    6    6  503    0 -0.62493894292E+02  0.89415525196E+03 -0.11829093072E+04  0.14841474086E+04  0.00000000000E+00 0. -1.
         -1    1    6    6    0  503  0.83629048117E+01  0.11077948491E+02 -0.91125441427E+01  0.16604143471E+02  0.00000000000E+00 0.  1.
<mgrwt>
<rscale>  0 0.44438876E+04</rscale>
<asrwt>0</asrwt>
<pdfrwt beam="1">  1        2 0.63271823E+00 0.44438876E+04</pdfrwt>
<pdfrwt beam="2">  1       -1 0.18468392E+00 0.44438876E+04</pdfrwt>
<totfact> 0.45706130E-02</totfact>
</mgrwt>
</event>
<event>
12    7  0.1675873E-007  0.2111793E+04  0.7818608E-02  0.8556066E-01
         -1   -1    0    0    0  501 -0.00000000000E+00  0.00000000000E+00  0.74171098052E+03  0.74171098052E+03  0.00000000000E+00 0.  1.
          2   -1    0    0  501    0  0.00000000000E+00 -0.00000000000E+00 -0.15031696362E+04  0.15031696362E+04  0.00000000000E+00 0. -1.
         24    2    1    2    0    0  0.12417111819E+03  0.80720102530E+03 -0.21561581029E+02  0.82088219625E+03  0.79941957070E+02 0.  0.
        254    2    1    2    0    0 -0.12417111819E+03 -0.80720102530E+03 -0.73989707466E+03  0.14239984205E+04  0.90184913296E+03 0.  0.
         23    2    4    4    0    0 -0.63891534876E+02  0.14457563474E+03 -0.33937276257E+03  0.38543453964E+03  0.91660623956E+02 0.  0.
         23    2    4    4    0    0 -0.60279583316E+02 -0.95177666004E+03 -0.40052431210E+03  0.10385638809E+04  0.93181389044E+02 0.  0.
          4    1    3    3  502    0  0.10474773513E+03  0.73146875018E+03 -0.41831753454E+02  0.74011385347E+03  0.00000000000E+00 0. -1.
         -3    1    3    3    0  502  0.19423383062E+02  0.75732275121E+02  0.20270172424E+02  0.80768342775E+02  0.00000000000E+00 0.  1.
         13    1    5    5    0    0 -0.40403252389E+01  0.26684101931E+02 -0.16186029685E+03  0.16409485434E+03  0.00000000000E+00 0.  1.
        -13    1    5    5    0    0 -0.59851209637E+02  0.11789153281E+03 -0.17751246572E+03  0.22133968530E+03  0.00000000000E+00 0. -1.
          3    1    6    6  503    0 -0.52613191744E+02 -0.62393878686E+03 -0.30816773692E+03  0.69787900940E+03  0.00000000000E+00 0. -1.
         -3    1    6    6    0  503 -0.76663915725E+01 -0.32783787319E+03 -0.92356575177E+02  0.34068487145E+03  0.00000000000E+00 0.  1.
<mgrwt>
<rscale>  0 0.21117930E+04</rscale>
<asrwt>0</asrwt>
<pdfrwt beam="1">  1        2 0.23125687E+00 0.21117930E+04</pdfrwt>
<pdfrwt beam="2">  1       -1 0.11410938E+00 0.21117930E+04</pdfrwt>
<totfact> 0.92731626E+00</totfact>
</mgrwt>
</event>
<event>
12    7  0.1675873E-007  0.1453623E+04  0.7818608E-02  0.8915892E-01
          2   -1    0    0  501    0  0.00000000000E+00  0.00000000000E+00  0.99508531427E+03  0.99508531427E+03  0.00000000000E+00 0. -1.
         -1   -1    0    0    0  501 -0.00000000000E+00 -0.00000000000E+00 -0.53086434670E+03  0.53086434670E+03  0.00000000000E+00 0.  1.
         24    2    1    2    0    0 -0.23596327402E+02  0.14336074327E+03 -0.28311599578E+03  0.32767141431E+03  0.78133215165E+02 0.  0.
        254    2    1    2    0    0  0.23596327402E+02 -0.14336074327E+03  0.74733696335E+03  0.11982782467E+04  0.92533730620E+03 0.  0.
         23    2    4    4    0    0  0.31100048351E+03 -0.34847664947E+03  0.15154344117E+03  0.49984949797E+03  0.93417504204E+02 0.  0.
         23    2    4    4    0    0 -0.28740415611E+03  0.20511590620E+03  0.59579352218E+03  0.69842874869E+03  0.90327803016E+02 0.  0.
          4    1    3    3  502    0 -0.24109915243E+01  0.15735488616E+02  0.51624705885E+00  0.15927491740E+02  0.00000000000E+00 0. -1.
         -3    1    3    3    0  502 -0.21185335877E+02  0.12762525465E+03 -0.28363224284E+03  0.31174392257E+03  0.00000000000E+00 0.  1.
         13    1    5    5    0    0  0.18706073232E+03 -0.19345522449E+03  0.39659171581E+02  0.27201009420E+03  0.00000000000E+00 0. -1.
        -13    1    5    5    0    0  0.12393975119E+03 -0.15502142498E+03  0.11188426958E+03  0.22783940376E+03  0.00000000000E+00 0.  1.
          4    1    6    6  503    0 -0.24078110919E+03  0.18680399854E+03  0.55757958749E+03  0.63542605612E+03  0.00000000000E+00 0. -1.
         -4    1    6    6    0  503 -0.46623046918E+02  0.18311907661E+02  0.38213934690E+02  0.63002692566E+02  0.00000000000E+00 0.  1.
<mgrwt>
<rscale>  0 0.14536235E+04</rscale>
<asrwt>0</asrwt>
<pdfrwt beam="1">  1        2 0.15309005E+00 0.14536235E+04</pdfrwt>
<pdfrwt beam="2">  1       -1 0.81671438E-01 0.14536235E+04</pdfrwt>
<totfact> 0.41896132E+01</totfact>
</mgrwt>
</event>
<event>
12    7  0.1675873E-007  0.1231267E+04  0.7818608E-02  0.9085920E-01
         -1   -1    0    0    0  501 -0.00000000000E+00  0.00000000000E+00  0.16901414042E+03  0.16901414042E+03  0.00000000000E+00 0.  1.
          2   -1    0    0  501    0  0.00000000000E+00 -0.00000000000E+00 -0.22424448724E+04  0.22424448724E+04  0.00000000000E+00 0. -1.
         24    2    1    2    0    0 -0.25665484638E+03  0.77138709567E+01 -0.58112459279E+03  0.64102881131E+03  0.85328369338E+02 0.  0.
        254    2    1    2    0    0  0.25665484638E+03 -0.77138709567E+01 -0.14923061392E+04  0.17704302015E+04  0.91734086978E+03 0.  0.
         23    2    4    4    0    0  0.21465969756E+03  0.42827830312E+03 -0.62238535497E+03  0.79103021994E+03  0.94149817264E+02 0.  0.
         23    2    4    4    0    0  0.41995148817E+02 -0.43599217408E+03 -0.86992078425E+03  0.97939998159E+03  0.10300186743E+03 0.  0.
          4    1    3    3  502    0 -0.21621115747E+03 -0.26081496628E+02 -0.46107915974E+03  0.50992303402E+03  0.00000000000E+00 0. -1.
         -3    1    3    3    0  502 -0.40443688907E+02  0.33795367584E+02 -0.12004543305E+03  0.13110577729E+03  0.00000000000E+00 0.  1.
         13    1    5    5    0    0  0.14572237277E+03  0.36522874136E+03 -0.52675073019E+03  0.65733809809E+03  0.00000000000E+00 0. -1.
        -13    1    5    5    0    0  0.68937324794E+02  0.63049561759E+02 -0.95634624783E+02  0.13369212185E+03  0.00000000000E+00 0.  1.
          4    1    6    6  503    0 -0.33168357289E+02 -0.14063193491E+03 -0.30565253636E+03  0.33808424102E+03  0.00000000000E+00 0.  1.
         -4    1    6    6    0  503  0.75163506107E+02 -0.29536023917E+03 -0.56426824789E+03  0.64131574057E+03  0.00000000000E+00 0. -1.
<mgrwt>
<rscale>  0 0.12312675E+04</rscale>
<asrwt>0</asrwt>
<pdfrwt beam="1">  1        2 0.34499154E+00 0.12312675E+04</pdfrwt>
<pdfrwt beam="2">  1       -1 0.26002174E-01 0.12312675E+04</pdfrwt>
<totfact> 0.71973996E+01</totfact>
</mgrwt>
</event>
<event>
12    7  0.1675873E-007  0.3365631E+04  0.7818608E-02  0.8146394E-01
         -1   -1    0    0    0  501 -0.00000000000E+00  0.00000000000E+00  0.92302020068E+03  0.92302020068E+03  0.00000000000E+00 0.  1.
          2   -1    0    0  501    0  0.00000000000E+00 -0.00000000000E+00 -0.30680451051E+04  0.30680451051E+04  0.00000000000E+00 0. -1.
         24    2    1    2    0    0 -0.33636723616E+03 -0.14970091238E+04 -0.60663343614E+03  0.16518580795E+04  0.80322815518E+02 0.  0.
        254    2    1    2    0    0  0.33636723616E+03  0.14970091238E+04 -0.15383914683E+04  0.23392072263E+04  0.86663885423E+03 0.  0.
         23    2    4    4    0    0  0.27965585739E+03  0.14714659701E+04 -0.10341668554E+04  0.18223801202E+04  0.90270248847E+02 0.  0.
         23    2    4    4    0    0  0.56711378779E+02  0.25543153660E+02 -0.50422461288E+03  0.51682710613E+03  0.94863924692E+02 0.  0.
          4    1    3    3  502    0 -0.11911480360E+03 -0.54772717878E+03 -0.18045664789E+03  0.58886161411E+03  0.00000000000E+00 0. -1.
         -3    1    3    3    0  502 -0.21725243256E+03 -0.94928194499E+03 -0.42617678825E+03  0.10629964654E+04  0.00000000000E+00 0.  1.
         13    1    5    5    0    0  0.28057923650E+03  0.14248313594E+04 -0.98578443157E+03  0.17551752209E+04  0.00000000000E+00 0. -1.
        -13    1    5    5    0    0 -0.92337911144E+00  0.46634610702E+02 -0.48382423811E+02  0.67204899212E+02  0.00000000000E+00 0.  1.
          4    1    6    6  503    0  0.62752720819E+02  0.82163785012E+01 -0.48872926999E+03  0.49281001633E+03  0.00000000000E+00 0. -1.
         -4    1    6    6    0  503 -0.60413420400E+01  0.17326775159E+02 -0.15495342889E+02  0.24017089797E+02  0.00000000000E+00 0.  1.
<mgrwt>
<rscale>  0 0.33656308E+04</rscale>
<asrwt>0</asrwt>
<pdfrwt beam="1">  1        2 0.47200692E+00 0.33656308E+04</pdfrwt>
<pdfrwt beam="2">  1       -1 0.14200311E+00 0.33656308E+04</pdfrwt>
<totfact> 0.60034195E-01</totfact>
</mgrwt>
</event>
<event>
12    7  0.1675873E-007  0.1147598E+04  0.7818608E-02  0.9160003E-01
         -1   -1    0    0    0  501 -0.00000000000E+00  0.00000000000E+00  0.11648912354E+03  0.11648912354E+03  0.00000000000E+00 0.  1.
          2   -1    0    0  501    0  0.00000000000E+00 -0.00000000000E+00 -0.28264018741E+04  0.28264018741E+04  0.00000000000E+00 0. -1.
         24    2    1    2    0    0  0.66530973914E+02 -0.76502760021E+02 -0.64386461452E+02  0.14488956995E+03  0.81045223681E+02 0.  0.
        254    2    1    2    0    0 -0.66530973914E+02  0.76502760021E+02 -0.26455262891E+04  0.27980014277E+04  0.90538588468E+03 0.  0.
         23    2    4    4    0    0 -0.39840856771E+03 -0.17909693889E+03 -0.17376221907E+04  0.17939817279E+04  0.90743935621E+02 0.  0.
         23    2    4    4    0    0  0.33187759379E+03  0.25559969891E+03 -0.90790409834E+03  0.10040196998E+04  0.91059114995E+02 0.  0.
          2    1    3    3  502    0 -0.17342004534E+02 -0.23389559481E+02 -0.23921776669E+02  0.37683789790E+02  0.00000000000E+00 0. -1.
         -1    1    3    3    0  502  0.83872978447E+02 -0.53113200540E+02 -0.40464684783E+02  0.10720578016E+03  0.00000000000E+00 0.  1.
         13    1    5    5    0    0 -0.16360779254E+03 -0.78089139668E+02 -0.90620884793E+03  0.92416443319E+03  0.00000000000E+00 0. -1.
        -13    1    5    5    0    0 -0.23480077517E+03 -0.10100779922E+03 -0.83141334281E+03  0.86981729468E+03  0.00000000000E+00 0.  1.
          4    1    6    6  503    0  0.28025084958E+03  0.23670444712E+03 -0.71751102617E+03  0.80584837697E+03  0.00000000000E+00 0. -1.
         -4    1    6    6    0  503  0.51626744215E+02  0.18895251792E+02 -0.19039307217E+03  0.19817132282E+03  0.00000000000E+00 0.  1.
<mgrwt>
<rscale>  0 0.11475976E+04</rscale>
<asrwt>0</asrwt>
<pdfrwt beam="1">  1        2 0.43483106E+00 0.11475976E+04</pdfrwt>
<pdfrwt beam="2">  1       -1 0.17921404E-01 0.11475976E+04</pdfrwt>
<totfact> 0.62537806E+01</totfact>
</mgrwt>
</event>
<event>
12    7  0.1675873E-007  0.2269302E+04  0.7818608E-02  0.8490124E-01
          2   -1    0    0  501    0  0.00000000000E+00  0.00000000000E+00  0.16386162922E+04  0.16386162922E+04  0.00000000000E+00 0. -1.
         -1   -1    0    0    0  501 -0.00000000000E+00 -0.00000000000E+00 -0.78568279643E+03  0.78568279643E+03  0.00000000000E+00 0.  1.
         24    2    1    2    0    0  0.10322813395E+03  0.48828648177E+03  0.12466870835E+04  0.13449956826E+04  0.75531226631E+02 0.  0.
        254    2    1    2    0    0 -0.10322813395E+03 -0.48828648177E+03 -0.39375358778E+03  0.10793034060E+04  0.87222372034E+03 0.  0.
         23    2    4    4    0    0 -0.16514779125E+03  0.76601129065E+02 -0.45542719610E+03  0.49882279315E+03  0.90932513930E+02 0.  0.
         23    2    4    4    0    0  0.61919657299E+02 -0.56488761083E+03  0.61673608327E+02  0.58048061281E+03  0.10110415943E+03 0.  0.
          4    1    3    3  502    0  0.69123595025E+02  0.26939346826E+03  0.59768947559E+03  0.65922956651E+03  0.00000000000E+00 0. -1.
         -3    1    3    3    0  502  0.34104538925E+02  0.21889301351E+03  0.64899760791E+03  0.68576611612E+03  0.00000000000E+00 0.  1.
         13    1    5    5    0    0  0.86242134854E+01  0.74475488564E+01 -0.81254398467E+01  0.13995206855E+02  0.00000000000E+00 0.  1.
        -13    1    5    5    0    0 -0.17377200474E+03  0.69153580209E+02 -0.44730175626E+03  0.48482758630E+03  0.00000000000E+00 0. -1.
          1    1    6    6  503    0  0.75448726311E+02 -0.50308224133E+03  0.79181917171E+02  0.51483398087E+03  0.00000000000E+00 0. -1.
         -1    1    6    6    0  503 -0.13529069011E+02 -0.61805369497E+02 -0.17508308844E+02  0.65646631944E+02  0.00000000000E+00 0.  1.
<mgrwt>
<rscale>  0 0.22693018E+04</rscale>
<asrwt>0</asrwt>
<pdfrwt beam="1">  1        2 0.25209481E+00 0.22693018E+04</pdfrwt>
<pdfrwt beam="2">  1       -1 0.12087428E+00 0.22693018E+04</pdfrwt>
<totfact> 0.66792953E+00</totfact>
</mgrwt>
</event>
<event>
12    7  0.1675873E-007  0.1556434E+04  0.7818608E-02  0.8847769E-01
         -3   -1    0    0    0  501 -0.00000000000E+00  0.00000000000E+00  0.45309287131E+03  0.45309287131E+03  0.00000000000E+00 0.  1.
          4   -1    0    0  501    0  0.00000000000E+00 -0.00000000000E+00 -0.13366389217E+04  0.13366389217E+04  0.00000000000E+00 0. -1.
         24    2    1    2    0    0 -0.16399740127E+02  0.19423746452E+03 -0.84118496694E+03  0.86750425348E+03  0.83512496712E+02 0.  0.
        254    2    1    2    0    0  0.16399740127E+02 -0.19423746452E+03 -0.42361083496E+02  0.92222753957E+03  0.90039548491E+03 0.  0.
         23    2    4    4    0    0  0.42198015887E+03 -0.15886866161E+03 -0.16219273313E+03  0.48810749674E+03  0.92929756149E+02 0.  0.
         23    2    4    4    0    0 -0.40558041874E+03 -0.35368802910E+02  0.11983164963E+03  0.43412004283E+03  0.91401088855E+02 0.  0.
          4    1    3    3  502    0 -0.17004682762E+02  0.20097868223E+03 -0.83197497726E+03  0.85607473548E+03  0.00000000000E+00 0. -1.
         -3    1    3    3    0  502  0.60494263524E+00 -0.67412177105E+01 -0.92099896826E+01  0.11429518002E+02  0.00000000000E+00 0.  1.
         13    1    5    5    0    0  0.46703567441E+02  0.11444372614E+02 -0.21071686179E+02  0.52499646043E+02  0.00000000000E+00 0. -1.
        -13    1    5    5    0    0  0.37527659143E+03 -0.17031303423E+03 -0.14112104695E+03  0.43560785070E+03  0.00000000000E+00 0.  1.
          3    1    6    6  503    0 -0.28793417045E+03 -0.43001196193E+01  0.45515983581E+02  0.29154121888E+03  0.00000000000E+00 0.  1.
         -3    1    6    6    0  503 -0.11764624829E+03 -0.31068683291E+02  0.74315666052E+02  0.14257882395E+03  0.00000000000E+00 0. -1.
<mgrwt>
<rscale>  0 0.15564338E+04</rscale>
<asrwt>0</asrwt>
<pdfrwt beam="1">  1        4 0.20563675E+00 0.15564338E+04</pdfrwt>
<pdfrwt beam="2">  1       -3 0.69706597E-01 0.15564338E+04</pdfrwt>
<totfact> 0.52321826E-01</totfact>
</mgrwt>
</event>
<event>
12    7  0.1675873E-007  0.2222733E+04  0.7818608E-02  0.8509025E-01
         -1   -1    0    0    0  501 -0.00000000000E+00  0.00000000000E+00  0.46748522991E+03  0.46748522991E+03  0.00000000000E+00 0.  1.
          2   -1    0    0  501    0  0.00000000000E+00 -0.00000000000E+00 -0.26420838258E+04  0.26420838258E+04  0.00000000000E+00 0. -1.
         24    2    1    2    0    0  0.57001417754E+03  0.40731013813E+02 -0.18884487989E+04  0.19746390992E+04  0.79909498598E+02 0.  0.
        254    2    1    2    0    0 -0.57001417754E+03 -0.40731013813E+02 -0.28614979690E+03  0.11349299564E+04  0.93787478996E+03 0.  0.
         23    2    4    4    0    0 -0.11681522795E+02  0.37912987181E+03 -0.13873820515E+03  0.41398329848E+03  0.90873341413E+02 0.  0.
         23    2    4    4    0    0 -0.55833265474E+03 -0.41986088562E+03 -0.14741159176E+03  0.72094665795E+03  0.10007691839E+03 0.  0.
          2    1    3    3  502    0  0.36373560395E+03 -0.10702275293E+02 -0.11503467941E+04  0.12065305114E+04  0.00000000000E+00 0. -1.
         -1    1    3    3    0  502  0.20627857359E+03  0.51433289106E+02 -0.73810200483E+03  0.76810858782E+03  0.00000000000E+00 0.  1.
         13    1    5    5    0    0  0.13681566841E+02  0.48402208442E+02  0.86083567670E+01  0.51030019200E+02  0.00000000000E+00 0. -1.
        -13    1    5    5    0    0 -0.25363089636E+02  0.33072766337E+03 -0.14734656191E+03  0.36295327928E+03  0.00000000000E+00 0.  1.
          1    1    6    6  503    0 -0.42999425185E+03 -0.31249851314E+03 -0.15424893135E+03  0.55348270991E+03  0.00000000000E+00 0. -1.
         -1    1    6    6    0  503 -0.12833840289E+03 -0.10736237248E+03  0.68373395944E+01  0.16746394804E+03  0.00000000000E+00 0.  1.
<mgrwt>
<rscale>  0 0.22227327E+04</rscale>
<asrwt>0</asrwt>
<pdfrwt beam="1">  1        2 0.40647443E+00 0.22227327E+04</pdfrwt>
<pdfrwt beam="2">  1       -1 0.71920805E-01 0.22227327E+04</pdfrwt>
<totfact> 0.58233115E+00</totfact>
</mgrwt>
</event>
<event>
12    7  0.1675873E-007  0.1746584E+04  0.7818608E-02  0.8735233E-01
         -1   -1    0    0    0  501 -0.00000000000E+00  0.00000000000E+00  0.95038709270E+03  0.95038709270E+03  0.00000000000E+00 0.  1.
          2   -1    0    0  501    0  0.00000000000E+00 -0.00000000000E+00 -0.80245041920E+03  0.80245041920E+03  0.00000000000E+00 0. -1.
         24    2    1    2    0    0 -0.54808171397E+03 -0.13633626897E+03  0.36183249766E+03  0.67566730881E+03  0.81378206015E+02 0.  0.
        254    2    1    2    0    0  0.54808171397E+03  0.13633626897E+03 -0.21389582415E+03  0.10771702031E+04  0.89194342836E+03 0.  0.
         23    2    4    4    0    0  0.39509433952E+03  0.22457541497E+03  0.28285270952E+03  0.54294781220E+03  0.90846119145E+02 0.  0.
         23    2    4    4    0    0  0.15298737445E+03 -0.88239145998E+02 -0.49674853367E+03  0.53422239088E+03  0.86273829120E+02 0.  0.
          2    1    3    3  502    0 -0.12525254291E+03 -0.35853870533E+02  0.12579277752E+03  0.18110086255E+03  0.00000000000E+00 0. -1.
         -1    1    3    3    0  502 -0.42282917106E+03 -0.10048239844E+03  0.23603972013E+03  0.49456644627E+03  0.00000000000E+00 0.  1.
         13    1    5    5    0    0  0.15883980237E+03  0.66489655817E+02  0.15332012438E+03  0.23056022572E+03  0.00000000000E+00 0. -1.
        -13    1    5    5    0    0  0.23625453716E+03  0.15808575915E+03  0.12953258514E+03  0.31238758648E+03  0.00000000000E+00 0.  1.
          3    1    6    6  503    0  0.35364130139E+01  0.12803365751E+02 -0.64224966968E+02  0.65584135076E+02  0.00000000000E+00 0. -1.
         -3    1    6    6    0  503  0.14945096143E+03 -0.10104251175E+03 -0.43252356670E+03  0.46863825580E+03  0.00000000000E+00 0.  1.
<mgrwt>
<rscale>  0 0.17465835E+04</rscale>
<asrwt>0</asrwt>
<pdfrwt beam="1">  1        2 0.12345391E+00 0.17465835E+04</pdfrwt>
<pdfrwt beam="2">  1       -1 0.14621340E+00 0.17465835E+04</pdfrwt>
<totfact> 0.13875628E+01</totfact>
</mgrwt>
</event>
<event>
12    7  0.1675873E-007  0.2241494E+04  0.7818608E-02  0.8501353E-01
          2   -1    0    0  501    0  0.00000000000E+00  0.00000000000E+00  0.16445596831E+04  0.16445596831E+04  0.00000000000E+00 0. -1.
         -1   -1    0    0    0  501 -0.00000000000E+00 -0.00000000000E+00 -0.76377485373E+03  0.76377485373E+03  0.00000000000E+00 0.  1.
         24    2    1    2    0    0 -0.72235626592E+03  0.54185707867E+03  0.64598430850E+03  0.11133310474E+04  0.82478031815E+02 0.  0.
        254    2    1    2    0    0  0.72235626592E+03 -0.54185707867E+03  0.23480052091E+03  0.12950034894E+04  0.89805071372E+03 0.  0.
         23    2    4    4    0    0 -0.80187089280E+02 -0.44128471464E+03  0.10348931843E+03  0.47054640009E+03  0.97681661282E+02 0.  0.
         23    2    4    4    0    0  0.80254335520E+03 -0.10057236404E+03  0.13131120248E+03  0.82445708934E+03  0.91083603837E+02 0.  0.
          2    1    3    3  502    0 -0.53959601941E+03  0.36751097771E+03  0.43848471850E+03  0.78644582220E+03  0.00000000000E+00 0. -1.
         -1    1    3    3    0  502 -0.18276024651E+03  0.17434610096E+03  0.20749959000E+03  0.32688522523E+03  0.00000000000E+00 0.  1.
         13    1    5    5    0    0 -0.86089224907E+02 -0.39855751339E+03  0.11891925280E+03  0.42473666525E+03  0.00000000000E+00 0. -1.
        -13    1    5    5    0    0  0.59021356276E+01 -0.42727201246E+02 -0.15429934367E+02  0.45809734837E+02  0.00000000000E+00 0.  1.
          1    1    6    6  503    0  0.62797138856E+03 -0.10205764566E+03  0.13256245457E+03  0.64987432034E+03  0.00000000000E+00 0. -1.
         -1    1    6    6    0  503  0.17457196665E+03  0.14852816210E+01 -0.12512520883E+01  0.17458276900E+03  0.00000000000E+00 0.  1.
<mgrwt>
<rscale>  0 0.22414935E+04</rscale>
<asrwt>0</asrwt>
<pdfrwt beam="1">  1        2 0.25300918E+00 0.22414935E+04</pdfrwt>
<pdfrwt beam="2">  1       -1 0.11750382E+00 0.22414935E+04</pdfrwt>
<totfact> 0.71189400E+00</totfact>
</mgrwt>
</event>
<event>
12    7  0.1675873E-007  0.1403198E+04  0.7818608E-02  0.8951507E-01
          2   -1    0    0  501    0  0.00000000000E+00  0.00000000000E+00  0.13071044430E+04  0.13071044430E+04  0.00000000000E+00 0. -1.
         -1   -1    0    0    0  501 -0.00000000000E+00 -0.00000000000E+00 -0.37658877865E+03  0.37658877865E+03  0.00000000000E+00 0.  1.
         24    2    1    2    0    0 -0.70530509216E+02  0.97543487207E+02 -0.19045525410E+03  0.23911916474E+03  0.80096732161E+02 0.  0.
        254    2    1    2    0    0  0.70530509216E+02 -0.97543487207E+02  0.11209709184E+04  0.14445740569E+04  0.90317723690E+03 0.  0.
         23    2    4    4    0    0 -0.17676197583E+03 -0.40933083796E+03  0.81738596467E+03  0.93603924221E+03  0.96193121974E+02 0.  0.
         23    2    4    4    0    0  0.24729248504E+03  0.31178735075E+03  0.30358495374E+03  0.50853481466E+03  0.89882747758E+02 0.  0.
          4    1    3    3  502    0  0.52769027049E+01  0.58514126008E+02 -0.67420603419E+02  0.89427548384E+02  0.00000000000E+00 0. -1.
         -1    1    3    3    0  502 -0.75807411920E+02  0.39029361199E+02 -0.12303465068E+03  0.14969161635E+03  0.00000000000E+00 0.  1.
         13    1    5    5    0    0 -0.24285346261E+02 -0.11327690302E+03  0.29035926863E+03  0.31261788126E+03  0.00000000000E+00 0. -1.
        -13    1    5    5    0    0 -0.15247662957E+03 -0.29605393493E+03  0.52702669603E+03  0.62342136095E+03  0.00000000000E+00 0.  1.
          2    1    6    6  503    0  0.14286396950E+03  0.24382518120E+03  0.19595205984E+03  0.34388667105E+03  0.00000000000E+00 0. -1.
         -2    1    6    6    0  503  0.10442851554E+03  0.67962169552E+02  0.10763289390E+03  0.16464814362E+03  0.00000000000E+00 0.  1.
<mgrwt>
<rscale>  0 0.14031976E+04</rscale>
<asrwt>0</asrwt>
<pdfrwt beam="1">  1        2 0.20109299E+00 0.14031976E+04</pdfrwt>
<pdfrwt beam="2">  1       -1 0.57936736E-01 0.14031976E+04</pdfrwt>
<totfact> 0.54812519E+01</totfact>
</mgrwt>
</event>
<event>
12    7  0.1675873E-007  0.1436837E+04  0.7818608E-02  0.8927577E-01
          4   -1    0    0  501    0  0.00000000000E+00  0.00000000000E+00  0.26470104938E+03  0.26470104938E+03  0.00000000000E+00 0. -1.
         -3   -1    0    0    0  501 -0.00000000000E+00 -0.00000000000E+00 -0.19498427709E+04  0.19498427709E+04  0.00000000000E+00 0.  1.
         24    2    1    2    0    0 -0.26639656635E+03 -0.24235647511E+02 -0.81326410734E+01  0.27898805218E+03  0.78827001928E+02 0.  0.
        254    2    1    2    0    0  0.26639656635E+03  0.24235647511E+02 -0.16770090805E+04  0.19355557681E+04  0.92868841835E+03 0.  0.
         23    2    4    4    0    0  0.51787393583E+03 -0.10795447008E+03 -0.14884893017E+04  0.15823147821E+04  0.90951015005E+02 0.  0.
         23    2    4    4    0    0 -0.25147736947E+03  0.13219011759E+03 -0.18851977875E+03  0.35324098608E+03  0.92327637898E+02 0.  0.
          4    1    3    3  502    0 -0.24876980522E+03 -0.88269572011E+01  0.10377414488E+02  0.24914257342E+03  0.00000000000E+00 0. -1.
         -3    1    3    3    0  502 -0.17626761136E+02 -0.15408690310E+02 -0.18510055561E+02  0.29845478754E+02  0.00000000000E+00 0.  1.
         13    1    5    5    0    0  0.10089663514E+03  0.14278199522E+02 -0.30551543326E+03  0.32206160579E+03  0.00000000000E+00 0. -1.
        -13    1    5    5    0    0  0.41697730069E+03 -0.12223266960E+03 -0.11829738685E+04  0.12602531763E+04  0.00000000000E+00 0.  1.
          2    1    6    6  503    0 -0.12459606819E+03  0.15718136897E+02 -0.93206971776E+02  0.15639302933E+03  0.00000000000E+00 0. -1.
         -2    1    6    6    0  503 -0.12688130128E+03  0.11647198069E+03 -0.95312806971E+02  0.19684795675E+03  0.00000000000E+00 0.  1.
<mgrwt>
<rscale>  0 0.14368374E+04</rscale>
<asrwt>0</asrwt>
<pdfrwt beam="1">  1        4 0.40723239E-01 0.14368374E+04</pdfrwt>
<pdfrwt beam="2">  1       -3 0.29997581E+00 0.14368374E+04</pdfrwt>
<totfact> 0.50021810E-01</totfact>
</mgrwt>
</event>
<event>
12    7  0.1675873E-007  0.1518340E+04  0.7818608E-02  0.8872348E-01
         -1   -1    0    0    0  501 -0.00000000000E+00  0.00000000000E+00  0.58253138367E+03  0.58253138367E+03  0.00000000000E+00 0.  1.
          2   -1    0    0  501    0  0.00000000000E+00 -0.00000000000E+00 -0.98937055337E+03  0.98937055337E+03  0.00000000000E+00 0. -1.
         24    2    1    2    0    0  0.25448546471E+03 -0.13187509022E+03  0.27726583086E+03  0.40709266888E+03  0.81818145455E+02 0.  0.
        254    2    1    2    0    0 -0.25448546471E+03  0.13187509022E+03 -0.68410500055E+03  0.11648092682E+04  0.89812420536E+03 0.  0.
         23    2    4    4    0    0 -0.48418768420E+03  0.23789354741E+03 -0.15032859353E+03  0.56689124104E+03  0.87954190949E+02 0.  0.
         23    2    4    4    0    0  0.22970221949E+03 -0.10601845719E+03 -0.53377640703E+03  0.59791802713E+03  0.92659006932E+02 0.  0.
          4    1    3    3  502    0  0.27407451195E+01 -0.48375451849E+01 -0.54534937771E+01  0.77880756033E+01  0.00000000000E+00 0. -1.
         -3    1    3    3    0  502  0.25174471959E+03 -0.12703754504E+03  0.28271932463E+03  0.39930459328E+03  0.00000000000E+00 0.  1.
         13    1    5    5    0    0 -0.35466397997E+01 -0.63352634359E+01 -0.38334725844E+01  0.82103427898E+01  0.00000000000E+00 0.  1.
        -13    1    5    5    0    0 -0.48064104440E+03  0.24422881084E+03 -0.14649512094E+03  0.55868089825E+03  0.00000000000E+00 0. -1.
          1    1    6    6  503    0  0.19109468173E+03 -0.11901685833E+03 -0.41181847481E+03  0.46933638911E+03  0.00000000000E+00 0. -1.
         -1    1    6    6    0  503  0.38607537763E+02  0.12998401143E+02 -0.12195793222E+03  0.12858163802E+03  0.00000000000E+00 0.  1.
<mgrwt>
<rscale>  0 0.15183404E+04</rscale>
<asrwt>0</asrwt>
<pdfrwt beam="1">  1        2 0.15221085E+00 0.15183404E+04</pdfrwt>
<pdfrwt beam="2">  1       -1 0.89620214E-01 0.15183404E+04</pdfrwt>
<totfact> 0.34356524E+01</totfact>
</mgrwt>
</event>
<event>
12    7  0.1675873E-007  0.1916145E+04  0.7818608E-02  0.8646862E-01
          2   -1    0    0  501    0  0.00000000000E+00  0.00000000000E+00  0.16501590509E+04  0.16501590509E+04  0.00000000000E+00 0. -1.
         -1   -1    0    0    0  501 -0.00000000000E+00 -0.00000000000E+00 -0.55625094489E+03  0.55625094489E+03  0.00000000000E+00 0.  1.
         24    2    1    2    0    0 -0.67361079570E+03  0.16256761264E+03  0.72640626943E+03  0.10071106636E+04  0.80162882418E+02 0.  0.
        254    2    1    2    0    0  0.67361079570E+03 -0.16256761264E+03  0.36750183658E+03  0.11992993322E+04  0.90723842265E+03 0.  0.
         23    2    4    4    0    0 -0.10374754396E+03  0.21962470725E+03  0.16671643027E+02  0.26029273024E+03  0.92064090840E+02 0.  0.
         23    2    4    4    0    0  0.77735833966E+03 -0.38219231989E+03  0.35083019355E+03  0.93900660195E+03  0.91074783401E+02 0.  0.
          2    1    3    3  502    0 -0.38971707085E+03  0.12915166327E+03  0.45655861256E+03  0.61400758476E+03  0.00000000000E+00 0. -1.
         -1    1    3    3    0  502 -0.28389372485E+03  0.33415949369E+02  0.26984765688E+03  0.39310307885E+03  0.00000000000E+00 0.  1.
         13    1    5    5    0    0 -0.11683459808E+03  0.17268814131E+03  0.27708917363E+02  0.21033140887E+03  0.00000000000E+00 0. -1.
        -13    1    5    5    0    0  0.13087054121E+02  0.46936565942E+02 -0.11037274335E+02  0.49961321367E+02  0.00000000000E+00 0.  1.
          2    1    6    6  503    0  0.13008938190E+03 -0.10304889127E+03  0.73772797147E+02  0.18161703355E+03  0.00000000000E+00 0.  1.
         -2    1    6    6    0  503  0.64726895776E+03 -0.27914342862E+03  0.27705739641E+03  0.75738956840E+03  0.00000000000E+00 0. -1.
<mgrwt>
<rscale>  0 0.19161446E+04</rscale>
<asrwt>0</asrwt>
<pdfrwt beam="1">  1        2 0.25387062E+00 0.19161446E+04</pdfrwt>
<pdfrwt beam="2">  1       -1 0.85577069E-01 0.19161446E+04</pdfrwt>
<totfact> 0.15027335E+01</totfact>
</mgrwt>
</event>
<event>
12    7  0.1675873E-007  0.1507666E+04  0.7818608E-02  0.8879371E-01
         -1   -1    0    0    0  501 -0.00000000000E+00  0.00000000000E+00  0.34866444686E+03  0.34866444686E+03  0.00000000000E+00 0.  1.
          2   -1    0    0  501    0  0.00000000000E+00 -0.00000000000E+00 -0.16298308855E+04  0.16298308855E+04  0.00000000000E+00 0. -1.
         24    2    1    2    0    0  0.15742526207E+03  0.23514552988E+03  0.99307801060E+02  0.30999796829E+03  0.78489283563E+02 0.  0.
        254    2    1    2    0    0 -0.15742526207E+03 -0.23514552988E+03 -0.13804742397E+04  0.16684973641E+04  0.89336341659E+03 0.  0.
         23    2    4    4    0    0 -0.29407560829E+03 -0.30816889475E+03 -0.14194667897E+04  0.14849075808E+04  0.92822548059E+02 0.  0.
         23    2    4    4    0    0  0.13665034622E+03  0.73023364876E+02  0.38992549953E+02  0.18358978330E+03  0.90438159213E+02 0.  0.
          2    1    3    3  502    0 -0.77299097898E+01  0.13950830255E+02 -0.17213411760E+01  0.16041826131E+02  0.00000000000E+00 0. -1.
         -1    1    3    3    0  502  0.16515517186E+03  0.22119469962E+03  0.10102914224E+03  0.29395614216E+03  0.00000000000E+00 0.  1.
         13    1    5    5    0    0 -0.62501213598E+02 -0.11380249905E+03 -0.34158375448E+03  0.36542697193E+03  0.00000000000E+00 0. -1.
        -13    1    5    5    0    0 -0.23157439469E+03 -0.19436639570E+03 -0.10778830352E+04  0.11194806089E+04  0.00000000000E+00 0.  1.
          2    1    6    6  503    0  0.32794578888E+02  0.58176112000E+02 -0.10477108187E+02  0.67599661300E+02  0.00000000000E+00 0. -1.
         -2    1    6    6    0  503  0.10385576733E+03  0.14847252876E+02  0.49469658140E+02  0.11599012200E+03  0.00000000000E+00 0.  1.
<mgrwt>
<rscale>  0 0.15076659E+04</rscale>
<asrwt>0</asrwt>
<pdfrwt beam="1">  1        2 0.25074322E+00 0.15076659E+04</pdfrwt>
<pdfrwt beam="2">  1       -1 0.53640683E-01 0.15076659E+04</pdfrwt>
<totfact> 0.41404684E+01</totfact>
</mgrwt>
</event>
<event>
12    7  0.1675873E-007  0.1302749E+04  0.7818608E-02  0.9027388E-01
         -1   -1    0    0    0  501 -0.00000000000E+00  0.00000000000E+00  0.39064629585E+03  0.39064629585E+03  0.00000000000E+00 0.  1.
          2   -1    0    0  501    0  0.00000000000E+00 -0.00000000000E+00 -0.10861193331E+04  0.10861193331E+04  0.00000000000E+00 0. -1.
         24    2    1    2    0    0  0.31573837138E+03  0.52343014790E+01 -0.22370615516E+03  0.39554867914E+03  0.81830291740E+02 0.  0.
        254    2    1    2    0    0 -0.31573837138E+03 -0.52343014790E+01 -0.47176688212E+03  0.10812169498E+04  0.92018910256E+03 0.  0.
         23    2    4    4    0    0  0.22265249170E+03  0.26621521436E+03 -0.13922614347E+03  0.38570688354E+03  0.94557964051E+02 0.  0.
         23    2    4    4    0    0 -0.53839086307E+03 -0.27144951584E+03 -0.33254073865E+03  0.69551006630E+03  0.97986470340E+02 0.  0.
          2    1    3    3  502    0  0.56101823320E+01  0.13337114921E+02 -0.28932996893E+01  0.14755472317E+02  0.00000000000E+00 0. -1.
         -1    1    3    3    0  502  0.31012818904E+03 -0.81028134421E+01 -0.22081285547E+03  0.38079320683E+03  0.00000000000E+00 0.  1.
         13    1    5    5    0    0  0.71893033336E+02  0.80680767304E+02 -0.92221097637E+02  0.14206591887E+03  0.00000000000E+00 0. -1.
        -13    1    5    5    0    0  0.15075945836E+03  0.18553444706E+03 -0.47005045838E+02  0.24364096467E+03  0.00000000000E+00 0.  1.
          3    1    6    6  503    0 -0.10936676334E+03 -0.78342472176E+02 -0.35607627835E+02  0.13916369868E+03  0.00000000000E+00 0. -1.
         -3    1    6    6    0  503 -0.42902409973E+03 -0.19310704366E+03 -0.29693311081E+03  0.55634636761E+03  0.00000000000E+00 0.  1.
<mgrwt>
<rscale>  0 0.13027486E+04</rscale>
<asrwt>0</asrwt>
<pdfrwt beam="1">  1        2 0.16709528E+00 0.13027486E+04</pdfrwt>
<pdfrwt beam="2">  1       -1 0.60099431E-01 0.13027486E+04</pdfrwt>
<totfact> 0.69723584E+01</totfact>
</mgrwt>
</event>
<event>
12    7  0.1675873E-007  0.1306643E+04  0.7818608E-02  0.9024314E-01
         -1   -1    0    0    0  501 -0.00000000000E+00  0.00000000000E+00  0.29584189821E+03  0.29584189821E+03  0.00000000000E+00 0.  1.
          2   -1    0    0  501    0  0.00000000000E+00 -0.00000000000E+00 -0.14427593599E+04  0.14427593599E+04  0.00000000000E+00 0. -1.
         24    2    1    2    0    0  0.31347890360E+03 -0.95845890982E+02 -0.21261941323E+03  0.39916047895E+03  0.81649343274E+02 0.  0.
        254    2    1    2    0    0 -0.31347890360E+03  0.95845890982E+02 -0.93429804851E+03  0.13394407792E+04  0.90207167106E+03 0.  0.
         23    2    4    4    0    0 -0.53692591737E+03  0.29795799194E+03 -0.46836418656E+03  0.77743925098E+03  0.89321733138E+02 0.  0.
         23    2    4    4    0    0  0.22344701378E+03 -0.20211210095E+03 -0.46593386195E+03  0.56200152823E+03  0.89294371017E+02 0.  0.
          2    1    3    3  502    0 -0.35767164162E+01 -0.32677285161E+01 -0.11431334026E+02  0.12415568758E+02  0.00000000000E+00 0. -1.
         -1    1    3    3    0  502  0.31705562001E+03 -0.92578162466E+02 -0.20118807920E+03  0.38674491019E+03  0.00000000000E+00 0.  1.
         13    1    5    5    0    0 -0.58242603512E+01  0.11341375625E+02  0.11589954290E+01  0.12802034218E+02  0.00000000000E+00 0. -1.
        -13    1    5    5    0    0 -0.53110165702E+03  0.28661661631E+03 -0.46952318199E+03  0.76463721676E+03  0.00000000000E+00 0.  1.
          1    1    6    6  503    0  0.10973147297E+03 -0.41978341966E+02 -0.18750152906E+03  0.22126906868E+03  0.00000000000E+00 0. -1.
         -1    1    6    6    0  503  0.11371554081E+03 -0.16013375899E+03 -0.27843233290E+03  0.34073245955E+03  0.00000000000E+00 0.  1.
<mgrwt>
<rscale>  0 0.13066425E+04</rscale>
<asrwt>0</asrwt>
<pdfrwt beam="1">  1        2 0.22196298E+00 0.13066425E+04</pdfrwt>
<pdfrwt beam="2">  1       -1 0.45514138E-01 0.13066425E+04</pdfrwt>
<totfact> 0.73200540E+01</totfact>
</mgrwt>
</event>
<event>
12    7  0.1675873E-007  0.2140549E+04  0.7818608E-02  0.8543589E-01
          2   -1    0    0  501    0  0.00000000000E+00  0.00000000000E+00  0.11329515575E+04  0.11329515575E+04  0.00000000000E+00 0. -1.
         -1   -1    0    0    0  501 -0.00000000000E+00 -0.00000000000E+00 -0.10110644848E+04  0.10110644848E+04  0.00000000000E+00 0.  1.
         24    2    1    2    0    0 -0.92929837922E+02 -0.35393638729E+03 -0.73128178596E+03  0.82157881082E+03  0.79446654368E+02 0.  0.
        254    2    1    2    0    0  0.92929837922E+02  0.35393638729E+03  0.85316885872E+03  0.13224372314E+04  0.94182599699E+03 0.  0.
         23    2    4    4    0    0 -0.17732919797E+03  0.13273636484E+03 -0.13148137460E+03  0.27369446959E+03  0.92502561113E+02 0.  0.
         23    2    4    4    0    0  0.27025903590E+03  0.22120002245E+03  0.98465023332E+03  0.10487427619E+04  0.91410623821E+02 0.  0.
          2    1    3    3  502    0  0.13868277700E+02 -0.53245927705E+02 -0.12047065573E+03  0.13244106930E+03  0.00000000000E+00 0. -1.
         -1    1    3    3    0  502 -0.10679811562E+03 -0.30069045959E+03 -0.61081113023E+03  0.68913774153E+03  0.00000000000E+00 0.  1.
         13    1    5    5    0    0 -0.78680983837E+02  0.53210295617E+01 -0.45660326359E+02  0.91125605492E+02  0.00000000000E+00 0. -1.
        -13    1    5    5    0    0 -0.98648214138E+02  0.12741533528E+03 -0.85821048241E+02  0.18256886410E+03  0.00000000000E+00 0.  1.
          2    1    6    6  503    0  0.13152230458E+03  0.60467919045E+02  0.47690366645E+03  0.49838899758E+03  0.00000000000E+00 0.  1.
         -2    1    6    6    0  503  0.13873673131E+03  0.16073210340E+03  0.50774656687E+03  0.55035376427E+03  0.00000000000E+00 0. -1.
<mgrwt>
<rscale>  0 0.21405486E+04</rscale>
<asrwt>0</asrwt>
<pdfrwt beam="1">  1        2 0.17430024E+00 0.21405486E+04</pdfrwt>
<pdfrwt beam="2">  1       -1 0.15554838E+00 0.21405486E+04</pdfrwt>
<totfact> 0.68828354E+00</totfact>
</mgrwt>
</event>
<event>
12    7  0.1675873E-007  0.2169888E+04  0.7818608E-02  0.8531067E-01
         -1   -1    0    0    0  501 -0.00000000000E+00  0.00000000000E+00  0.99089672280E+03  0.99089672280E+03  0.00000000000E+00 0.  1.
          2   -1    0    0  501    0  0.00000000000E+00 -0.00000000000E+00 -0.11879169012E+04  0.11879169012E+04  0.00000000000E+00 0. -1.
         24    2    1    2    0    0 -0.18848324324E+03 -0.15749981200E+03 -0.93355589022E+03  0.96850055852E+03  0.78323737938E+02 0.  0.
        254    2    1    2    0    0  0.18848324324E+03  0.15749981200E+03  0.73653571185E+03  0.12103130655E+04  0.92846148969E+03 0.  0.
         23    2    4    4    0    0  0.54542614817E+03  0.20109960119E+03  0.47087804899E+03  0.75374227933E+03  0.92035612297E+02 0.  0.
         23    2    4    4    0    0 -0.35694290493E+03 -0.43599789189E+02  0.26565766285E+03  0.45657078613E+03  0.92594329808E+02 0.  0.
          4    1    3    3  502    0 -0.13928611984E+03 -0.69917498880E+02 -0.61756215973E+03  0.63692393655E+03  0.00000000000E+00 0. -1.
         -3    1    3    3    0  502 -0.49197123398E+02 -0.87582313120E+02 -0.31599373050E+03  0.33157662197E+03  0.00000000000E+00 0.  1.
         13    1    5    5    0    0  0.43033376350E+03  0.19050410725E+03  0.34997881729E+03  0.58648455686E+03  0.00000000000E+00 0. -1.
        -13    1    5    5    0    0  0.11509238467E+03  0.10595493938E+02  0.12089923170E+03  0.16725772247E+03  0.00000000000E+00 0.  1.
          3    1    6    6  503    0 -0.23470696953E+03 -0.21280304650E+01  0.12600102379E+03  0.26639847608E+03  0.00000000000E+00 0. -1.
         -3    1    6    6    0  503 -0.12223593540E+03 -0.41471758724E+02  0.13965663906E+03  0.19017231005E+03  0.00000000000E+00 0.  1.
<mgrwt>
<rscale>  0 0.21698875E+04</rscale>
<asrwt>0</asrwt>
<pdfrwt beam="1">  1        2 0.18275645E+00 0.21698875E+04</pdfrwt>
<pdfrwt beam="2">  1       -1 0.15244565E+00 0.21698875E+04</pdfrwt>
<totfact> 0.67189064E+00</totfact>
</mgrwt>
</event>
<event>
12    7  0.1675873E-007  0.2204021E+04  0.7818608E-02  0.8516756E-01
         -1   -1    0    0    0  501 -0.00000000000E+00  0.00000000000E+00  0.67239950399E+03  0.67239950399E+03  0.00000000000E+00 0.  1.
          2   -1    0    0  501    0  0.00000000000E+00 -0.00000000000E+00 -0.18061091520E+04  0.18061091520E+04  0.00000000000E+00 0. -1.
         24    2    1    2    0    0  0.30855482156E+03 -0.45839135533E+03 -0.12848625403E+04  0.14008805592E+04  0.79157318884E+02 0.  0.
        254    2    1    2    0    0 -0.30855482156E+03  0.45839135533E+03  0.15115289229E+03  0.10776280968E+04  0.91274662727E+03 0.  0.
         23    2    4    4    0    0 -0.44938474148E+03  0.52622953072E+03  0.37283842511E+03  0.79133636439E+03  0.91326805970E+02 0.  0.
         23    2    4    4    0    0  0.14082991992E+03 -0.67838175387E+02 -0.22168553282E+03  0.28629173240E+03  0.91560887911E+02 0.  0.
          4    1    3    3  502    0  0.22801688458E+03 -0.36238691760E+03 -0.10645235124E+04  0.11473997935E+04  0.00000000000E+00 0. -1.
         -3    1    3    3    0  502  0.80537936983E+02 -0.96004437733E+02 -0.22033902787E+03  0.25348076566E+03  0.00000000000E+00 0.  1.
         13    1    5    5    0    0 -0.42877474647E+03  0.46941808626E+03  0.32361121483E+03  0.71339003448E+03  0.00000000000E+00 0.  1.
        -13    1    5    5    0    0 -0.20609995011E+02  0.56811444452E+02  0.49227210277E+02  0.77946329912E+02  0.00000000000E+00 0. -1.
          4    1    6    6  503    0  0.11678357863E+03 -0.16766093046E+02 -0.18344370623E+03  0.21810799956E+03  0.00000000000E+00 0.  1.
         -4    1    6    6    0  503  0.24046341292E+02 -0.51072082341E+02 -0.38241826587E+02  0.68183732847E+02  0.00000000000E+00 0. -1.
<mgrwt>
<rscale>  0 0.22040208E+04</rscale>
<asrwt>0</asrwt>
<pdfrwt beam="1">  1        2 0.27786294E+00 0.22040208E+04</pdfrwt>
<pdfrwt beam="2">  1       -1 0.10344608E+00 0.22040208E+04</pdfrwt>
<totfact> 0.78504646E+00</totfact>
</mgrwt>
</event>
<event>
12    7  0.1675873E-007  0.1599734E+04  0.7818608E-02  0.8820711E-01
          2   -1    0    0  501    0  0.00000000000E+00  0.00000000000E+00  0.52588973044E+03  0.52588973044E+03  0.00000000000E+00 0. -1.
         -1   -1    0    0    0  501 -0.00000000000E+00 -0.00000000000E+00 -0.12165806139E+04  0.12165806139E+04  0.00000000000E+00 0.  1.
         24    2    1    2    0    0 -0.27288361599E+03  0.39849257364E+03  0.11996662224E+02  0.48968415281E+03  0.79905259425E+02 0.  0.
        254    2    1    2    0    0  0.27288361599E+03 -0.39849257364E+03 -0.70268754569E+03  0.12527861915E+04  0.91784620483E+03 0.  0.
         23    2    4    4    0    0  0.50880819577E+03 -0.61910072986E+02 -0.12148717520E+03  0.53519484107E+03  0.94634808304E+02 0.  0.
         23    2    4    4    0    0 -0.23592457978E+03 -0.33658250066E+03 -0.58120037049E+03  0.71759135047E+03  0.90527832835E+02 0.  0.
          4    1    3    3  502    0 -0.12692707381E+03  0.19932726006E+03  0.45036693865E+02  0.24056213846E+03  0.00000000000E+00 0. -1.
         -3    1    3    3    0  502 -0.14595654218E+03  0.19916531358E+03 -0.33040031642E+02  0.24912201434E+03  0.00000000000E+00 0.  1.
         13    1    5    5    0    0  0.21699552825E+02  0.11661704033E+02  0.78696830135E+01  0.25861126126E+02  0.00000000000E+00 0.  1.
        -13    1    5    5    0    0  0.48710864295E+03 -0.73571777019E+02 -0.12935685821E+03  0.50933371494E+03  0.00000000000E+00 0. -1.
          3    1    6    6  503    0 -0.51256011519E+02 -0.39658598182E+02 -0.14284015596E+03  0.15685436966E+03  0.00000000000E+00 0. -1.
         -3    1    6    6    0  503 -0.18466856827E+03 -0.29692390247E+03 -0.43836021453E+03  0.56073698081E+03  0.00000000000E+00 0.  1.
<mgrwt>
<rscale>  0 0.15997340E+04</rscale>
<asrwt>0</asrwt>
<pdfrwt beam="1">  1        2 0.80906113E-01 0.15997340E+04</pdfrwt>
<pdfrwt beam="2">  1       -1 0.18716625E+00 0.15997340E+04</pdfrwt>
<totfact> 0.11768992E+01</totfact>
</mgrwt>
</event>
<event>
12    7  0.1675873E-007  0.1470398E+04  0.7818608E-02  0.8904380E-01
         -3   -1    0    0    0  501 -0.00000000000E+00  0.00000000000E+00  0.10434286758E+04  0.10434286758E+04  0.00000000000E+00 0.  1.
          4   -1    0    0  501    0  0.00000000000E+00 -0.00000000000E+00 -0.51802093971E+03  0.51802093971E+03  0.00000000000E+00 0. -1.
         24    2    1    2    0    0 -0.35230675389E+03 -0.68176755030E+02 -0.12575274927E+03  0.38831293726E+03  0.78772231997E+02 0.  0.
        254    2    1    2    0    0  0.35230675389E+03  0.68176755030E+02  0.65116048534E+03  0.11731366782E+04  0.90745334282E+03 0.  0.
         23    2    4    4    0    0 -0.97230470394E+02 -0.31109894212E+03  0.40853543853E+03  0.53047486080E+03  0.90917859860E+02 0.  0.
         23    2    4    4    0    0  0.44953722428E+03  0.37927569715E+03  0.24262504681E+03  0.64266181744E+03  0.90628515358E+02 0.  0.
          2    1    3    3  502    0 -0.18999564350E+03 -0.45474854236E+02 -0.10862306784E+03  0.22352914303E+03  0.00000000000E+00 0. -1.
         -1    1    3    3    0  502 -0.16231111039E+03 -0.22701900795E+02 -0.17129681429E+02  0.16478379423E+03  0.00000000000E+00 0.  1.
         13    1    5    5    0    0 -0.10046981494E+03 -0.24062333585E+03  0.36131308367E+03  0.44557930597E+03  0.00000000000E+00 0.  1.
        -13    1    5    5    0    0  0.32393445510E+01 -0.70475606266E+02  0.47222354857E+02  0.84895554830E+02  0.00000000000E+00 0. -1.
          4    1    6    6  503    0  0.97679206244E+01  0.33780547262E+02  0.21902712382E+02  0.41427846388E+02  0.00000000000E+00 0. -1.
         -4    1    6    6    0  503  0.43976930366E+03  0.34549514989E+03  0.22072233443E+03  0.60123397105E+03  0.00000000000E+00 0.  1.
<mgrwt>
<rscale>  0 0.14703985E+04</rscale>
<asrwt>0</asrwt>
<pdfrwt beam="1">  1        4 0.79695529E-01 0.14703985E+04</pdfrwt>
<pdfrwt beam="2">  1       -3 0.16052749E+00 0.14703985E+04</pdfrwt>
<totfact> 0.83711280E-01</totfact>
</mgrwt>
</event>
<event>
12    7  0.1675873E-007  0.1336437E+04  0.7818608E-02  0.9001159E-01
          2   -1    0    0  501    0  0.00000000000E+00  0.00000000000E+00  0.38319511797E+03  0.38319511797E+03  0.00000000000E+00 0. -1.
         -1   -1    0    0    0  501 -0.00000000000E+00 -0.00000000000E+00 -0.11652448386E+04  0.11652448386E+04  0.00000000000E+00 0.  1.
         24    2    1    2    0    0  0.36768697484E+02  0.32923308498E+03 -0.58834192098E+02  0.34488829474E+03  0.75763528999E+02 0.  0.
        254    2    1    2    0    0 -0.36768697484E+02 -0.32923308498E+03 -0.72321552849E+03  0.12035516618E+04  0.90318854100E+03 0.  0.
         23    2    4    4    0    0 -0.42979458588E+03 -0.17436475625E+03 -0.17073168502E+03  0.50247699775E+03  0.90594540249E+02 0.  0.
         23    2    4    4    0    0  0.39302588840E+03 -0.15486832873E+03 -0.55248384348E+03  0.70107466405E+03  0.88395356605E+02 0.  0.
          2    1    3    3  502    0 -0.13415743969E+02  0.23983551596E+02  0.75484755180E+01  0.28498638845E+02  0.00000000000E+00 0. -1.
         -1    1    3    3    0  502  0.50184441453E+02  0.30524953339E+03 -0.66382667616E+02  0.31638965589E+03  0.00000000000E+00 0.  1.
         13    1    5    5    0    0 -0.29330547652E+03 -0.12408585386E+03 -0.71511840418E+02  0.32640365348E+03  0.00000000000E+00 0. -1.
        -13    1    5    5    0    0 -0.13648910937E+03 -0.50278902383E+02 -0.99219844601E+02  0.17607334427E+03  0.00000000000E+00 0.  1.
          1    1    6    6  503    0  0.86173191556E+02 -0.61538619685E+01 -0.15428017862E+03  0.17682212100E+03  0.00000000000E+00 0. -1.
         -1    1    6    6    0  503  0.30685269684E+03 -0.14871446677E+03 -0.39820366485E+03  0.52425254304E+03  0.00000000000E+00 0.  1.
<mgrwt>
<rscale>  0 0.13364373E+04</rscale>
<asrwt>0</asrwt>
<pdfrwt beam="1">  1        2 0.58953095E-01 0.13364373E+04</pdfrwt>
<pdfrwt beam="2">  1       -1 0.17926844E+00 0.13364373E+04</pdfrwt>
<totfact> 0.19672137E+01</totfact>
</mgrwt>
</event>
<event>
12    7  0.1675873E-007  0.1484148E+04  0.7818608E-02  0.8895063E-01
          2   -1    0    0  501    0  0.00000000000E+00  0.00000000000E+00  0.70474677322E+03  0.70474677322E+03  0.00000000000E+00 0. -1.
         -1   -1    0    0    0  501 -0.00000000000E+00 -0.00000000000E+00 -0.78137847239E+03  0.78137847239E+03  0.00000000000E+00 0.  1.
         24    2    1    2    0    0  0.30152882239E+03  0.14873724968E+03  0.29552234578E+03  0.45466329550E+03  0.79642044451E+02 0.  0.
        254    2    1    2    0    0 -0.30152882239E+03 -0.14873724968E+03 -0.37215404495E+03  0.10314619501E+04  0.90131721451E+03 0.  0.
         23    2    4    4    0    0 -0.21498843215E+03 -0.42092136098E+03 -0.50935740536E+03  0.70092869920E+03  0.91985090554E+02 0.  0.
         23    2    4    4    0    0 -0.86540390241E+02  0.27218411130E+03  0.13720336041E+03  0.33053325091E+03  0.94095899276E+02 0.  0.
          2    1    3    3  502    0  0.17129800944E+03  0.97630029637E+02  0.12235958366E+03  0.23204848295E+03  0.00000000000E+00 0. -1.
         -1    1    3    3    0  502  0.13023081295E+03  0.51107220045E+02  0.17316276212E+03  0.22261481255E+03  0.00000000000E+00 0.  1.
         13    1    5    5    0    0 -0.98096151354E+02 -0.27928298950E+03 -0.34380681737E+03  0.45367937004E+03  0.00000000000E+00 0.  1.
        -13    1    5    5    0    0 -0.11689228080E+03 -0.14163837148E+03 -0.16555058799E+03  0.24724932916E+03  0.00000000000E+00 0. -1.
          4    1    6    6  503    0  0.16018804915E+02  0.49469381564E+02  0.57250557583E+01  0.52312504114E+02  0.00000000000E+00 0. -1.
         -4    1    6    6    0  503 -0.10255919516E+03  0.22271472973E+03  0.13147830465E+03  0.27822074679E+03  0.00000000000E+00 0.  1.
<mgrwt>
<rscale>  0 0.14841482E+04</rscale>
<asrwt>0</asrwt>
<pdfrwt beam="1">  1        2 0.10842258E+00 0.14841482E+04</pdfrwt>
<pdfrwt beam="2">  1       -1 0.12021207E+00 0.14841482E+04</pdfrwt>
<totfact> 0.27673936E+01</totfact>
</mgrwt>
</event>
<event>
12    7  0.1675873E-007  0.1922277E+04  0.7818608E-02  0.8643846E-01
         -1   -1    0    0    0  501 -0.00000000000E+00  0.00000000000E+00  0.48576797642E+03  0.48576797642E+03  0.00000000000E+00 0.  1.
          2   -1    0    0  501    0  0.00000000000E+00 -0.00000000000E+00 -0.19017052333E+04  0.19017052333E+04  0.00000000000E+00 0. -1.
         24    2    1    2    0    0 -0.70277058963E+03  0.96889493261E+02 -0.82989576328E+03  0.10947578202E+04  0.80583071801E+02 0.  0.
        254    2    1    2    0    0  0.70277058963E+03 -0.96889493261E+02 -0.58604149365E+03  0.12927153896E+04  0.90796165698E+03 0.  0.
         23    2    4    4    0    0  0.74195063390E+02 -0.39509849630E+02 -0.64125879544E+03  0.65321901349E+03  0.91740401134E+02 0.  0.
         23    2    4    4    0    0  0.62857552624E+03 -0.57379643631E+02  0.55217301796E+02  0.63949637606E+03  0.86643227598E+02 0.  0.
          2    1    3    3  502    0 -0.66916214839E+03  0.10950834326E+03 -0.78647934763E+03  0.10384217940E+04  0.00000000000E+00 0. -1.
         -1    1    3    3    0  502 -0.33608441241E+02 -0.12618849997E+02 -0.43416415648E+02  0.56336026179E+02  0.00000000000E+00 0.  1.
         13    1    5    5    0    0  0.80236983240E+02 -0.59597680174E+02 -0.45894637430E+03  0.46970376988E+03  0.00000000000E+00 0. -1.
        -13    1    5    5    0    0 -0.60419198503E+01  0.20087830545E+02 -0.18231242114E+03  0.18351524360E+03  0.00000000000E+00 0.  1.
          3    1    6    6  503    0  0.55398648732E+03 -0.41782819666E+02  0.75434443177E+02  0.56065781664E+03  0.00000000000E+00 0. -1.
         -3    1    6    6    0  503  0.74589038926E+02 -0.15596823965E+02 -0.20217141381E+02  0.78838559419E+02  0.00000000000E+00 0.  1.
<mgrwt>
<rscale>  0 0.19222773E+04</rscale>
<asrwt>0</asrwt>
<pdfrwt beam="1">  1        2 0.29257005E+00 0.19222773E+04</pdfrwt>
<pdfrwt beam="2">  1       -1 0.74733532E-01 0.19222773E+04</pdfrwt>
<totfact> 0.14529173E+01</totfact>
</mgrwt>
</event>
<event>
12    7  0.1675873E-007  0.3936996E+04  0.7818608E-02  0.8017378E-01
          2   -1    0    0  501    0  0.00000000000E+00  0.00000000000E+00  0.23604897922E+04  0.23604897922E+04  0.00000000000E+00 0. -1.
         -1   -1    0    0    0  501 -0.00000000000E+00 -0.00000000000E+00 -0.16416020479E+04  0.16416020479E+04  0.00000000000E+00 0.  1.
         24    2    1    2    0    0  0.13095110875E+04 -0.89308962100E+02 -0.10061400161E+04  0.16558023825E+04  0.81045783865E+02 0.  0.
        254    2    1    2    0    0 -0.13095110875E+04  0.89308962100E+02  0.17250277603E+04  0.23462894576E+04  0.89808577880E+03 0.  0.
         23    2    4    4    0    0  0.10512769306E+03 -0.76775781816E+02  0.12067779880E+03  0.19893035892E+03  0.89798686271E+02 0.  0.
         23    2    4    4    0    0 -0.14146387805E+04  0.16608474392E+03  0.16043499615E+04  0.21473590987E+04  0.91789313949E+02 0.  0.
          2    1    3    3  502    0  0.42614058132E+02  0.64817738737E+00 -0.16601928281E+02  0.45738409538E+02  0.00000000000E+00 0. -1.
         -1    1    3    3    0  502  0.12668970294E+04 -0.89957139487E+02 -0.98953808777E+03  0.16100639730E+04  0.00000000000E+00 0.  1.
         13    1    5    5    0    0  0.54727416538E+02 -0.78497156091E+02  0.11274687262E+03  0.14788086732E+03  0.00000000000E+00 0. -1.
        -13    1    5    5    0    0  0.50400276517E+02  0.17213742751E+01  0.79309261882E+01  0.51049491600E+02  0.00000000000E+00 0.  1.
          3    1    6    6  503    0 -0.92342282318E+03  0.88219914777E+02  0.98509404982E+03  0.13531085510E+04  0.00000000000E+00 0.  1.
         -3    1    6    6    0  503 -0.49121595737E+03  0.77864829139E+02  0.61925591166E+03  0.79425054769E+03  0.00000000000E+00 0. -1.
<mgrwt>
<rscale>  0 0.39369963E+04</rscale>
<asrwt>0</asrwt>
<pdfrwt beam="1">  1        2 0.36315228E+00 0.39369963E+04</pdfrwt>
<pdfrwt beam="2">  1       -1 0.25255416E+00 0.39369963E+04</pdfrwt>
<totfact> 0.25328675E-01</totfact>
</mgrwt>
</event>
<event>
12    7  0.1675873E-007  0.1455792E+04  0.7818608E-02  0.8914395E-01
         -3   -1    0    0    0  501 -0.00000000000E+00  0.00000000000E+00  0.22142174942E+04  0.22142174942E+04  0.00000000000E+00 0.  1.
          4   -1    0    0  501    0  0.00000000000E+00 -0.00000000000E+00 -0.23928668558E+03  0.23928668558E+03  0.00000000000E+00 0. -1.
         24    2    1    2    0    0 -0.19977779752E+03 -0.17234351698E+03  0.12194058394E+04  0.12503292684E+04  0.82214488102E+02 0.  0.
        254    2    1    2    0    0  0.19977779752E+03  0.17234351698E+03  0.75552496918E+03  0.12031749113E+04  0.89844222518E+03 0.  0.
         23    2    4    4    0    0 -0.16772511289E+03  0.30100540506E+03  0.72559286411E+01  0.35489203549E+03  0.84615252686E+02 0.  0.
         23    2    4    4    0    0  0.36750291041E+03 -0.12866188807E+03  0.74826904054E+03  0.84828287585E+03  0.89805399706E+02 0.  0.
          4    1    3    3  502    0 -0.40480043476E+02 -0.13802316977E+01  0.13087419375E+03  0.13699851660E+03  0.00000000000E+00 0. -1.
         -3    1    3    3    0  502 -0.15929775405E+03 -0.17096328528E+03  0.10885316456E+04  0.11133307518E+04  0.00000000000E+00 0.  1.
         13    1    5    5    0    0 -0.57850455019E+02  0.18855792676E+03  0.12076330321E+02  0.19760213724E+03  0.00000000000E+00 0. -1.
        -13    1    5    5    0    0 -0.10987465787E+03  0.11244747830E+03 -0.48204016800E+01  0.15728989825E+03  0.00000000000E+00 0.  1.
          4    1    6    6  503    0  0.32884313547E+03 -0.88935859114E+02  0.67811011603E+03  0.75886805457E+03  0.00000000000E+00 0. -1.
         -4    1    6    6    0  503  0.38659774944E+02 -0.39726028960E+02  0.70158924513E+02  0.89414821280E+02  0.00000000000E+00 0.  1.
<mgrwt>
<rscale>  0 0.14557922E+04</rscale>
<asrwt>0</asrwt>
<pdfrwt beam="1">  1        4 0.36813338E-01 0.14557922E+04</pdfrwt>
<pdfrwt beam="2">  1       -3 0.34064883E+00 0.14557922E+04</pdfrwt>
<totfact> 0.36391152E-01</totfact>
</mgrwt>
</event>
<event>
12    7  0.1675873E-007  0.2092390E+04  0.7818608E-02  0.8564603E-01
          2   -1    0    0  501    0  0.00000000000E+00  0.00000000000E+00  0.13248218688E+04  0.13248218688E+04  0.00000000000E+00 0. -1.
         -1   -1    0    0    0  501 -0.00000000000E+00 -0.00000000000E+00 -0.82616705795E+03  0.82616705795E+03  0.00000000000E+00 0.  1.
         24    2    1    2    0    0 -0.44495090759E+03 -0.26628160393E+03  0.89607966455E+03  0.10381276087E+04  0.76569993662E+02 0.  0.
        254    2    1    2    0    0  0.44495090759E+03  0.26628160393E+03 -0.39742485374E+03  0.11128613180E+04  0.90090321124E+03 0.  0.
         23    2    4    4    0    0  0.51917485506E+03  0.51221184515E+03 -0.40420841624E+03  0.83887062199E+03  0.91738608186E+02 0.  0.
         23    2    4    4    0    0 -0.74223947472E+02 -0.24593024122E+03  0.67835625021E+01  0.27399069603E+03  0.95047392736E+02 0.  0.
          2    1    3    3  502    0 -0.24612729396E+03 -0.18511586602E+03  0.56536157101E+03  0.64380139381E+03  0.00000000000E+00 0. -1.
         -1    1    3    3    0  502 -0.19882361363E+03 -0.81165737903E+02  0.33071809353E+03  0.39432621487E+03  0.00000000000E+00 0.  1.
         13    1    5    5    0    0  0.35078258777E+01 -0.40365942638E+01 -0.37265355119E+01  0.65181287622E+01  0.00000000000E+00 0. -1.
        -13    1    5    5    0    0  0.51566702918E+03  0.51624843942E+03 -0.40048188073E+03  0.83235249323E+03  0.00000000000E+00 0.  1.
          2    1    6    6  503    0 -0.72653132156E+02 -0.25273563403E+03 -0.17326446396E+01  0.26297676776E+03  0.00000000000E+00 0.  1.
         -2    1    6    6    0  503 -0.15708153163E+01  0.68053928082E+01  0.85162071418E+01  0.11013928278E+02  0.00000000000E+00 0. -1.
<mgrwt>
<rscale>  0 0.20923902E+04</rscale>
<asrwt>0</asrwt>
<pdfrwt beam="1">  1        2 0.20381875E+00 0.20923902E+04</pdfrwt>
<pdfrwt beam="2">  1       -1 0.12710262E+00 0.20923902E+04</pdfrwt>
<totfact> 0.90213084E+00</totfact>
</mgrwt>
</event>
<event>
12    7  0.1675873E-007  0.1384969E+04  0.7818608E-02  0.8964771E-01
          2   -1    0    0  501    0  0.00000000000E+00  0.00000000000E+00  0.18390540843E+04  0.18390540843E+04  0.00000000000E+00 0. -1.
         -1   -1    0    0    0  501 -0.00000000000E+00 -0.00000000000E+00 -0.26075075197E+03  0.26075075197E+03  0.00000000000E+00 0.  1.
         24    2    1    2    0    0 -0.65454787095E+02  0.37685735892E+03  0.32763600207E+03  0.50965729295E+03  0.78098708528E+02 0.  0.
        254    2    1    2    0    0  0.65454787095E+02 -0.37685735892E+03  0.12506673302E+04  0.15901475433E+04  0.90448584311E+03 0.  0.
         23    2    4    4    0    0  0.12166202984E+03  0.27925090994E+03  0.40987405657E+03  0.51875833433E+03  0.91272925811E+02 0.  0.
         23    2    4    4    0    0 -0.56207242742E+02 -0.65610826886E+03  0.84079327365E+03  0.10713892089E+04  0.85464574070E+02 0.  0.
          4    1    3    3  502    0 -0.11872139602E+02  0.26214885193E+03  0.24058632739E+03  0.35601228798E+03  0.00000000000E+00 0. -1.
         -3    1    3    3    0  502 -0.53582647493E+02  0.11470850700E+03  0.87049674681E+02  0.15364500497E+03  0.00000000000E+00 0.  1.
         13    1    5    5    0    0  0.84685006232E+02  0.89138347205E+02  0.18288208393E+03  0.22037026080E+03  0.00000000000E+00 0.  1.
        -13    1    5    5    0    0  0.36977023605E+02  0.19011256273E+03  0.22699197264E+03  0.29838807353E+03  0.00000000000E+00 0. -1.
          2    1    6    6  503    0 -0.12777050877E+02 -0.53782223361E+03  0.67586832757E+03  0.86383679257E+03  0.00000000000E+00 0. -1.
         -2    1    6    6    0  503 -0.43430191865E+02 -0.11828603525E+03  0.16492494608E+03  0.20755241637E+03  0.00000000000E+00 0.  1.
<mgrwt>
<rscale>  0 0.13849689E+04</rscale>
<asrwt>0</asrwt>
<pdfrwt beam="1">  1        2 0.28293139E+00 0.13849689E+04</pdfrwt>
<pdfrwt beam="2">  1       -1 0.40115501E-01 0.13849689E+04</pdfrwt>
<totfact> 0.55213563E+01</totfact>
</mgrwt>
</event>
<event>
12    7  0.1675873E-007  0.1347041E+04  0.7818608E-02  0.8993071E-01
          2   -1    0    0  501    0  0.00000000000E+00  0.00000000000E+00  0.68994763041E+03  0.68994763041E+03  0.00000000000E+00 0. -1.
         -1   -1    0    0    0  501 -0.00000000000E+00 -0.00000000000E+00 -0.65748489052E+03  0.65748489052E+03  0.00000000000E+00 0.  1.
         24    2    1    2    0    0 -0.97866570911E+02 -0.22925360049E+03  0.21348759926E+03  0.33663773421E+03  0.74919490229E+02 0.  0.
        254    2    1    2    0    0  0.97866570911E+02  0.22925360049E+03 -0.18102485937E+03  0.10107947867E+04  0.96270505457E+03 0.  0.
         23    2    4    4    0    0  0.14156908895E+03  0.56684061601E+03  0.41788962079E+02  0.59286590984E+03  0.91616476673E+02 0.  0.
         23    2    4    4    0    0 -0.43702518043E+02 -0.33758701552E+03 -0.22281382145E+03  0.41792887687E+03  0.95622403037E+02 0.  0.
          4    1    3    3  502    0 -0.76281916606E+02 -0.16314713046E+03  0.19336018678E+03  0.26424246216E+03  0.00000000000E+00 0. -1.
         -3    1    3    3    0  502 -0.21584654305E+02 -0.66106470034E+02  0.20127412479E+02  0.72395272048E+02  0.00000000000E+00 0.  1.
         13    1    5    5    0    0  0.92711100701E+02  0.38292608635E+03 -0.15013410766E+02  0.39427545993E+03  0.00000000000E+00 0. -1.
        -13    1    5    5    0    0  0.48857988252E+02  0.18391452966E+03  0.56802372846E+02  0.19859044992E+03  0.00000000000E+00 0.  1.
          1    1    6    6  503    0 -0.66393510227E+02 -0.26127706045E+03 -0.14284440709E+03  0.30508740576E+03  0.00000000000E+00 0. -1.
         -1    1    6    6    0  503  0.22690992184E+02 -0.76309955070E+02 -0.79969414360E+02  0.11284147111E+03  0.00000000000E+00 0.  1.
<mgrwt>
<rscale>  0 0.13470414E+04</rscale>
<asrwt>0</asrwt>
<pdfrwt beam="1">  1        2 0.10614579E+00 0.13470414E+04</pdfrwt>
<pdfrwt beam="2">  1       -1 0.10115152E+00 0.13470414E+04</pdfrwt>
<totfact> 0.43254088E+01</totfact>
</mgrwt>
</event>
<event>
12    7  0.1675873E-007  0.1887970E+04  0.7818608E-02  0.8660868E-01
         -1   -1    0    0    0  501 -0.00000000000E+00  0.00000000000E+00  0.63231804137E+03  0.63231804137E+03  0.00000000000E+00 0.  1.
          2   -1    0    0  501    0  0.00000000000E+00 -0.00000000000E+00 -0.14092717918E+04  0.14092717918E+04  0.00000000000E+00 0. -1.
         24    2    1    2    0    0 -0.12333060138E+03 -0.54352080736E+03 -0.79789283801E+03  0.97766372888E+03  0.92563926840E+02 0.  0.
        254    2    1    2    0    0  0.12333060138E+03  0.54352080736E+03  0.20939087559E+02  0.10639261043E+04  0.90602152556E+03 0.  0.
         23    2    4    4    0    0  0.26122106235E+03  0.10561135710E+02 -0.30988722873E+03  0.41534023676E+03  0.90163389111E+02 0.  0.
         23    2    4    4    0    0 -0.13789046097E+03  0.53295967165E+03  0.33082631629E+03  0.64858586755E+03  0.90320458374E+02 0.  0.
          4    1    3    3  502    0 -0.95453066538E+02 -0.23398638836E+03 -0.32289760307E+03  0.41002899887E+03  0.00000000000E+00 0. -1.
         -3    1    3    3    0  502 -0.27877534843E+02 -0.30953441900E+03 -0.47499523494E+03  0.56763473001E+03  0.00000000000E+00 0.  1.
         13    1    5    5    0    0  0.17943150691E+03 -0.28590835548E+02 -0.23910764880E+03  0.30030912285E+03  0.00000000000E+00 0. -1.
        -13    1    5    5    0    0  0.81789555443E+02  0.39151971258E+02 -0.70779579930E+02  0.11503111391E+03  0.00000000000E+00 0.  1.
          3    1    6    6  503    0 -0.18890164307E+02  0.24982859719E+03  0.13990873207E+03  0.28695926468E+03  0.00000000000E+00 0. -1.
         -3    1    6    6    0  503 -0.11900029667E+03  0.28313107447E+03  0.19091758422E+03  0.36162660287E+03  0.00000000000E+00 0.  1.
<mgrwt>
<rscale>  0 0.18879703E+04</rscale>
<asrwt>0</asrwt>
<pdfrwt beam="1">  1        2 0.21681104E+00 0.18879703E+04</pdfrwt>
<pdfrwt beam="2">  1       -1 0.97279700E-01 0.18879703E+04</pdfrwt>
<totfact> 0.15500898E+01</totfact>
</mgrwt>
</event>
<event>
12    7  0.1675873E-007  0.2045316E+04  0.7818608E-02  0.8585722E-01
         -1   -1    0    0    0  501 -0.00000000000E+00  0.00000000000E+00  0.10620587641E+04  0.10620587641E+04  0.00000000000E+00 0.  1.
          2   -1    0    0  501    0  0.00000000000E+00 -0.00000000000E+00 -0.98471890677E+03  0.98471890677E+03  0.00000000000E+00 0. -1.
         24    2    1    2    0    0  0.48140008084E+03 -0.26565337336E+03 -0.57943637634E+03  0.80244080569E+03  0.76465546519E+02 0.  0.
        254    2    1    2    0    0 -0.48140008084E+03  0.26565337336E+03  0.65677623364E+03  0.12443368652E+04  0.90260814327E+03 0.  0.
         23    2    4    4    0    0 -0.68511025611E+03  0.35740306370E+03  0.63124955833E+03  0.10019107121E+04  0.90752725310E+02 0.  0.
         23    2    4    4    0    0  0.20371017527E+03 -0.91749690336E+02  0.25526675311E+02  0.24242615306E+03  0.90570344754E+02 0.  0.
          2    1    3    3  502    0  0.40965621723E+03 -0.22762375485E+03 -0.52953169855E+03  0.70713125363E+03  0.00000000000E+00 0. -1.
         -1    1    3    3    0  502  0.71743863609E+02 -0.38029618514E+02 -0.49904677793E+02  0.95309552068E+02  0.00000000000E+00 0.  1.
         13    1    5    5    0    0 -0.26580615654E+03  0.17879470881E+03  0.22603263046E+03  0.39206021321E+03  0.00000000000E+00 0. -1.
        -13    1    5    5    0    0 -0.41930409958E+03  0.17860835489E+03  0.40521692788E+03  0.60985049889E+03  0.00000000000E+00 0.  1.
          3    1    6    6  503    0  0.80583359233E+02 -0.83435311153E+02  0.26630845200E+02  0.11901399434E+03  0.00000000000E+00 0. -1.
         -3    1    6    6    0  503  0.12312681604E+03 -0.83143791829E+01 -0.11041698889E+01  0.12341215872E+03  0.00000000000E+00 0.  1.
<mgrwt>
<rscale>  0 0.20453160E+04</rscale>
<asrwt>0</asrwt>
<pdfrwt beam="1">  1        2 0.15149522E+00 0.20453160E+04</pdfrwt>
<pdfrwt beam="2">  1       -1 0.16339366E+00 0.20453160E+04</pdfrwt>
<totfact> 0.74961630E+00</totfact>
</mgrwt>
</event>
<event>
12    7  0.1675873E-007  0.2638216E+04  0.7818608E-02  0.8355335E-01
          2   -1    0    0  501    0  0.00000000000E+00  0.00000000000E+00  0.40578476810E+04  0.40578476810E+04  0.00000000000E+00 0. -1.
         -1   -1    0    0    0  501 -0.00000000000E+00 -0.00000000000E+00 -0.42881010379E+03  0.42881010379E+03  0.00000000000E+00 0.  1.
         24    2    1    2    0    0 -0.65420176540E+02 -0.86549604130E+03  0.28321451100E+03  0.91644830187E+03  0.79396686058E+02 0.  0.
        254    2    1    2    0    0  0.65420176540E+02  0.86549604130E+03  0.33458230663E+04  0.35702094830E+04  0.89358858792E+03 0.  0.
         23    2    4    4    0    0  0.15778839580E+03  0.53059718790E+03  0.68742512543E+03  0.88759777041E+03  0.94052885706E+02 0.  0.
         23    2    4    4    0    0 -0.92368219258E+02  0.33489885341E+03  0.26583979408E+04  0.26826117125E+04  0.92934700497E+02 0.  0.
          2    1    3    3  502    0  0.38898519041E+01 -0.20465123649E+03  0.38059971396E+02  0.20819659211E+03  0.00000000000E+00 0. -1.
         -1    1    3    3    0  502 -0.69310028444E+02 -0.66084480481E+03  0.24515453960E+03  0.70825170976E+03  0.00000000000E+00 0.  1.
         13    1    5    5    0    0  0.17063695554E+03  0.49608603073E+03  0.64540740328E+03  0.83172653961E+03  0.00000000000E+00 0. -1.
        -13    1    5    5    0    0 -0.12848559741E+02  0.34511157166E+02  0.42017722150E+02  0.55871230800E+02  0.00000000000E+00 0.  1.
          1    1    6    6  503    0 -0.10572587981E+03  0.23016292271E+03  0.17950017332E+04  0.18127835378E+04  0.00000000000E+00 0. -1.
         -1    1    6    6    0  503  0.13357660555E+02  0.10473593070E+03  0.86339620758E+03  0.86982817472E+03  0.00000000000E+00 0.  1.
<mgrwt>
<rscale>  0 0.26382161E+04</rscale>
<asrwt>0</asrwt>
<pdfrwt beam="1">  1        2 0.62428423E+00 0.26382161E+04</pdfrwt>
<pdfrwt beam="2">  1       -1 0.65970788E-01 0.26382161E+04</pdfrwt>
<totfact> 0.71787880E-01</totfact>
</mgrwt>
</event>
<event>
12    7  0.1675873E-007  0.1584927E+04  0.7818608E-02  0.8829862E-01
          2   -1    0    0  501    0  0.00000000000E+00  0.00000000000E+00  0.16904090628E+04  0.16904090628E+04  0.00000000000E+00 0. -1.
         -1   -1    0    0    0  501 -0.00000000000E+00 -0.00000000000E+00 -0.37150661061E+03  0.37150661061E+03  0.00000000000E+00 0.  1.
         24    2    1    2    0    0 -0.17752933141E+03 -0.33367890442E+03  0.89877307728E+03  0.97823948786E+03  0.79379949636E+02 0.  0.
        254    2    1    2    0    0  0.17752933141E+03  0.33367890442E+03  0.42012937494E+03  0.10836761856E+04  0.92465512963E+03 0.  0.
         23    2    4    4    0    0  0.77224676949E+02 -0.28898651639E+03  0.30023255016E+03  0.43482278355E+03  0.97233798318E+02 0.  0.
         23    2    4    4    0    0  0.10030465446E+03  0.62266542081E+03  0.11989682478E+03  0.64885340203E+03  0.94139464397E+02 0.  0.
          2    1    3    3  502    0 -0.12885581968E+03 -0.21637976475E+03  0.68189253175E+03  0.72691227099E+03  0.00000000000E+00 0. -1.
         -1    1    3    3    0  502 -0.48673511726E+02 -0.11729913968E+03  0.21688054553E+03  0.25132721688E+03  0.00000000000E+00 0.  1.
         13    1    5    5    0    0  0.62939062441E+02 -0.28566549284E+03  0.30152510337E+03  0.42009937793E+03  0.00000000000E+00 0. -1.
        -13    1    5    5    0    0  0.14285614508E+02 -0.33210235506E+01 -0.12925532034E+01  0.14723405621E+02  0.00000000000E+00 0.  1.
          3    1    6    6  503    0  0.44491354817E+02  0.32988726764E+03  0.16160566888E+02  0.33326604076E+03  0.00000000000E+00 0. -1.
         -3    1    6    6    0  503  0.55813299645E+02  0.29277815317E+03  0.10373625789E+03  0.31558736127E+03  0.00000000000E+00 0.  1.
<mgrwt>
<rscale>  0 0.15849267E+04</rscale>
<asrwt>0</asrwt>
<pdfrwt beam="1">  1        2 0.26006293E+00 0.15849267E+04</pdfrwt>
<pdfrwt beam="2">  1       -1 0.57154864E-01 0.15849267E+04</pdfrwt>
<totfact> 0.33656527E+01</totfact>
</mgrwt>
</event>
<event>
12    7  0.1675873E-007  0.1408081E+04  0.7818608E-02  0.8947990E-01
         -1   -1    0    0    0  501 -0.00000000000E+00  0.00000000000E+00  0.32336424157E+03  0.32336424157E+03  0.00000000000E+00 0.  1.
          2   -1    0    0  501    0  0.00000000000E+00 -0.00000000000E+00 -0.15328630581E+04  0.15328630581E+04  0.00000000000E+00 0. -1.
         24    2    1    2    0    0  0.23091810875E+03 -0.33006909080E+03 -0.46520434632E+03  0.62076784348E+03  0.81663051684E+02 0.  0.
        254    2    1    2    0    0 -0.23091810875E+03  0.33006909080E+03 -0.74429447018E+03  0.12354594562E+04  0.90006501535E+03 0.  0.
         23    2    4    4    0    0 -0.35424509241E+03 -0.15979849690E+03 -0.99971889909E+02  0.41140252834E+03  0.90733215770E+02 0.  0.
         23    2    4    4    0    0  0.12332698366E+03  0.48986758770E+03 -0.64432258028E+03  0.82405692783E+03  0.93479593932E+02 0.  0.
          2    1    3    3  502    0  0.59784073926E+01 -0.21789020702E+02 -0.60169871648E+02  0.64272204196E+02  0.00000000000E+00 0. -1.
         -1    1    3    3    0  502  0.22493970135E+03 -0.30828007010E+03 -0.40503447467E+03  0.55649563928E+03  0.00000000000E+00 0.  1.
         13    1    5    5    0    0 -0.14064497558E+03 -0.11130159498E+03 -0.56943689625E+02  0.18817980228E+03  0.00000000000E+00 0.  1.
        -13    1    5    5    0    0 -0.21360011683E+03 -0.48496901919E+02 -0.43028200283E+02  0.22322272605E+03  0.00000000000E+00 0. -1.
          3    1    6    6  503    0 -0.10259442630E+02  0.57095764098E+02 -0.48388363801E+02  0.75542148450E+02  0.00000000000E+00 0. -1.
         -3    1    6    6    0  503  0.13358642629E+03  0.43277182360E+03 -0.59593421647E+03  0.74851477938E+03  0.00000000000E+00 0.  1.
<mgrwt>
<rscale>  0 0.14080811E+04</rscale>
<asrwt>0</asrwt>
<pdfrwt beam="1">  1        2 0.23582509E+00 0.14080811E+04</pdfrwt>
<pdfrwt beam="2">  1       -1 0.49748345E-01 0.14080811E+04</pdfrwt>
<totfact> 0.54629359E+01</totfact>
</mgrwt>
</event>
<event>
12    7  0.1675873E-007  0.3217995E+04  0.7818608E-02  0.8184081E-01
         -1   -1    0    0    0  501 -0.00000000000E+00  0.00000000000E+00  0.13272174958E+04  0.13272174958E+04  0.00000000000E+00 0.  1.
          2   -1    0    0  501    0  0.00000000000E+00 -0.00000000000E+00 -0.19506015695E+04  0.19506015695E+04  0.00000000000E+00 0. -1.
         24    2    1    2    0    0 -0.15791028793E+03 -0.13813568652E+04 -0.81113856106E+03  0.16114227940E+04  0.75201113921E+02 0.  0.
        254    2    1    2    0    0  0.15791028793E+03  0.13813568652E+04  0.18775448736E+03  0.16663962714E+04  0.89918982300E+03 0.  0.
         23    2    4    4    0    0  0.28248286733E+03  0.93900879348E+03 -0.25995020407E+03  0.10186470740E+04  0.92377855802E+02 0.  0.
         23    2    4    4    0    0 -0.12457257940E+03  0.44234807173E+03  0.44770469143E+03  0.64774919740E+03  0.89159339977E+02 0.  0.
          2    1    3    3  502    0 -0.13579960073E+03 -0.12600264842E+04 -0.71546001866E+03  0.14553320277E+04  0.00000000000E+00 0. -1.
         -1    1    3    3    0  502 -0.22110687200E+02 -0.12133038099E+03 -0.95678542396E+02  0.15609076627E+03  0.00000000000E+00 0.  1.
         13    1    5    5    0    0  0.43686176424E+02  0.70927497887E+02 -0.36857279418E+02  0.91091443139E+02  0.00000000000E+00 0. -1.
        -13    1    5    5    0    0  0.23879669091E+03  0.86808129560E+03 -0.22309292465E+03  0.92755563088E+03  0.00000000000E+00 0.  1.
          3    1    6    6  503    0 -0.32077521656E+02  0.18717800886E+03  0.23960287769E+03  0.30573536497E+03  0.00000000000E+00 0. -1.
         -3    1    6    6    0  503 -0.92495057748E+02  0.25517006287E+03  0.20810181374E+03  0.34201383243E+03  0.00000000000E+00 0.  1.
<mgrwt>
<rscale>  0 0.32179947E+04</rscale>
<asrwt>0</asrwt>
<pdfrwt beam="1">  1        2 0.30009255E+00 0.32179947E+04</pdfrwt>
<pdfrwt beam="2">  1       -1 0.20418731E+00 0.32179947E+04</pdfrwt>
<totfact> 0.95887820E-01</totfact>
</mgrwt>
</event>
<event>
12    7  0.1675873E-007  0.1746492E+04  0.7818608E-02  0.8735284E-01
         -1   -1    0    0    0  501 -0.00000000000E+00  0.00000000000E+00  0.19226311403E+04  0.19226311403E+04  0.00000000000E+00 0.  1.
          2   -1    0    0  501    0  0.00000000000E+00 -0.00000000000E+00 -0.39662240617E+03  0.39662240617E+03  0.00000000000E+00 0. -1.
         24    2    1    2    0    0  0.56151218265E+03  0.10749916781E+02  0.96579945581E+03  0.11198556514E+04  0.76789316959E+02 0.  0.
        254    2    1    2    0    0 -0.56151218265E+03 -0.10749916781E+02  0.56020927830E+03  0.11993978950E+04  0.89961624216E+03 0.  0.
         23    2    4    4    0    0  0.29901533385E+02 -0.22278762634E+02  0.59212708682E+03  0.60032004006E+03  0.91538071827E+02 0.  0.
         23    2    4    4    0    0 -0.59141371603E+03  0.11528845854E+02 -0.31917808512E+02  0.59907785498E+03  0.89288476465E+02 0.  0.
          4    1    3    3  502    0  0.97627324398E+02  0.26239932374E+02  0.20682176330E+03  0.23020614739E+03  0.00000000000E+00 0. -1.
         -3    1    3    3    0  502  0.46388485825E+03 -0.15490015594E+02  0.75897769251E+03  0.88964950403E+03  0.00000000000E+00 0.  1.
         13    1    5    5    0    0 -0.89750349111E+01  0.28478110436E+02  0.11031560686E+03  0.11428511339E+03  0.00000000000E+00 0. -1.
        -13    1    5    5    0    0  0.38876568296E+02 -0.50756873070E+02  0.48181147995E+03  0.48603492667E+03  0.00000000000E+00 0.  1.
          3    1    6    6  503    0 -0.18016416897E+03 -0.14249089513E+02  0.27336678315E+02  0.18278254379E+03  0.00000000000E+00 0. -1.
         -3    1    6    6    0  503 -0.41124954706E+03  0.25777935366E+02 -0.59254486827E+02  0.41629531119E+03  0.00000000000E+00 0.  1.
<mgrwt>
<rscale>  0 0.17464920E+04</rscale>
<asrwt>0</asrwt>
<pdfrwt beam="1">  1        2 0.61018833E-01 0.17464920E+04</pdfrwt>
<pdfrwt beam="2">  1       -1 0.29578940E+00 0.17464920E+04</pdfrwt>
<totfact> 0.30647902E+00</totfact>
</mgrwt>
</event>
<event>
12    7  0.1675873E-007  0.1662569E+04  0.7818608E-02  0.8783005E-01
          2   -1    0    0  501    0  0.00000000000E+00  0.00000000000E+00  0.38003352873E+04  0.38003352873E+04  0.00000000000E+00 0. -1.
         -1   -1    0    0    0  501 -0.00000000000E+00 -0.00000000000E+00 -0.18183506291E+03  0.18183506291E+03  0.00000000000E+00 0.  1.
         24    2    1    2    0    0 -0.24819487895E+03  0.52421929002E+03  0.13832944866E+04  0.15022541313E+04  0.82808673300E+02 0.  0.
        254    2    1    2    0    0  0.24819487895E+03 -0.52421929002E+03  0.22352057378E+04  0.24799162189E+04  0.90412012512E+03 0.  0.
         23    2    4    4    0    0  0.24911499433E+03  0.16205255782E+03  0.11599689538E+04  0.12012227475E+04  0.95335216532E+02 0.  0.
         23    2    4    4    0    0 -0.92011537945E+00 -0.68627184784E+03  0.10752367840E+04  0.12786934714E+04  0.89179349530E+02 0.  0.
          4    1    3    3  502    0 -0.19025219606E+03  0.46766816319E+03  0.11978351077E+04  0.12998916702E+04  0.00000000000E+00 0. -1.
         -3    1    3    3    0  502 -0.57942682899E+02  0.56551126825E+02  0.18545937892E+03  0.20236246113E+03  0.00000000000E+00 0.  1.
         13    1    5    5    0    0  0.91665643137E+02  0.25667606364E+02  0.24503344548E+03  0.26287412492E+03  0.00000000000E+00 0.  1.
        -13    1    5    5    0    0  0.15744935120E+03  0.13638495146E+03  0.91493550829E+03  0.93834862258E+03  0.00000000000E+00 0. -1.
          1    1    6    6  503    0  0.33568987910E+02 -0.16203292484E+03  0.22641222756E+03  0.28043545152E+03  0.00000000000E+00 0. -1.
         -1    1    6    6    0  503 -0.34489103290E+02 -0.52423892300E+03  0.84882455647E+03  0.99825801991E+03  0.00000000000E+00 0.  1.
<mgrwt>
<rscale>  0 0.16625693E+04</rscale>
<asrwt>0</asrwt>
<pdfrwt beam="1">  1        2 0.58466691E+00 0.16625693E+04</pdfrwt>
<pdfrwt beam="2">  1       -1 0.27974628E-01 0.16625693E+04</pdfrwt>
<totfact> 0.62428835E+00</totfact>
</mgrwt>
</event>
<event>
12    7  0.1675873E-007  0.1270139E+04  0.7818608E-02  0.9053587E-01
          2   -1    0    0  501    0  0.00000000000E+00  0.00000000000E+00  0.52298530716E+03  0.52298530716E+03  0.00000000000E+00 0. -1.
         -1   -1    0    0    0  501 -0.00000000000E+00 -0.00000000000E+00 -0.77117470452E+03  0.77117470452E+03  0.00000000000E+00 0.  1.
         24    2    1    2    0    0  0.24518263979E+03 -0.26903395237E+02 -0.25033630225E+03  0.36045972544E+03  0.80153789117E+02 0.  0.
        254    2    1    2    0    0 -0.24518263979E+03  0.26903395237E+02  0.21469048854E+01  0.93370028624E+03  0.90052945304E+03 0.  0.
         23    2    4    4    0    0  0.29850120085E+03 -0.10489573803E+03 -0.12747624331E+03  0.35316819802E+03  0.91495905494E+02 0.  0.
         23    2    4    4    0    0 -0.54368384064E+03  0.13179913326E+03  0.12962314820E+03  0.58053208822E+03  0.85159936576E+02 0.  0.
          2    1    3    3  502    0  0.31937439784E+01 -0.11067254795E+02 -0.32500644635E+02  0.34481531738E+02  0.00000000000E+00 0. -1.
         -3    1    3    3    0  502  0.24198889581E+03 -0.15836140443E+02 -0.21783565761E+03  0.32597819370E+03  0.00000000000E+00 0.  1.
         13    1    5    5    0    0  0.22987623182E+03 -0.11964963572E+03 -0.98898621026E+02  0.27738070323E+03  0.00000000000E+00 0. -1.
        -13    1    5    5    0    0  0.68624969031E+02  0.14753897695E+02 -0.28577622284E+02  0.75787494794E+02  0.00000000000E+00 0.  1.
          3    1    6    6  503    0 -0.41765748191E+03  0.72489379680E+02  0.72824799255E+02  0.43011153640E+03  0.00000000000E+00 0. -1.
         -3    1    6    6    0  503 -0.12602635874E+03  0.59309753584E+02  0.56798348941E+02  0.15042055182E+03  0.00000000000E+00 0.  1.
<mgrwt>
<rscale>  0 0.12701386E+04</rscale>
<asrwt>0</asrwt>
<pdfrwt beam="1">  1        2 0.80459278E-01 0.12701386E+04</pdfrwt>
<pdfrwt beam="2">  1       -1 0.11864226E+00 0.12701386E+04</pdfrwt>
<totfact> 0.41783138E+01</totfact>
</mgrwt>
</event>
<event>
12    7  0.1675873E-007  0.1509000E+04  0.7818608E-02  0.8878490E-01
          2   -1    0    0  501    0  0.00000000000E+00  0.00000000000E+00  0.15154582940E+04  0.15154582940E+04  0.00000000000E+00 0. -1.
         -1   -1    0    0    0  501 -0.00000000000E+00 -0.00000000000E+00 -0.37564214126E+03  0.37564214126E+03  0.00000000000E+00 0.  1.
         24    2    1    2    0    0  0.22730478714E+03  0.12253449959E+03  0.87321159596E+03  0.91400942569E+03  0.78946621674E+02 0.  0.
        254    2    1    2    0    0 -0.22730478714E+03 -0.12253449959E+03  0.26660455681E+03  0.97709100961E+03  0.90385102838E+03 0.  0.
         23    2    4    4    0    0  0.72315799088E+02 -0.23709774208E+03 -0.24895253972E+03  0.36309036974E+03  0.91718784705E+02 0.  0.
         23    2    4    4    0    0 -0.29962058623E+03  0.11456324249E+03  0.51555709653E+03  0.61400063987E+03  0.91106716310E+02 0.  0.
          2    1    3    3  502    0  0.21159429894E+03  0.10449811344E+03  0.84336694460E+03  0.87576241430E+03  0.00000000000E+00 0. -1.
         -1    1    3    3    0  502  0.15710488204E+02  0.18036386155E+02  0.29844651360E+02  0.38247011386E+02  0.00000000000E+00 0.  1.
         13    1    5    5    0    0  0.55671089556E+02 -0.10471441402E+03 -0.63193888942E+02  0.13437948621E+03  0.00000000000E+00 0.  1.
        -13    1    5    5    0    0  0.16644709532E+02 -0.13238332806E+03 -0.18575865078E+03  0.22871088353E+03  0.00000000000E+00 0. -1.
          4    1    6    6  503    0 -0.23000110935E+03  0.88686171044E+02  0.45766823273E+03  0.51983262545E+03  0.00000000000E+00 0. -1.
         -4    1    6    6    0  503 -0.69619476874E+02  0.25877071441E+02  0.57888863804E+02  0.94168014417E+02  0.00000000000E+00 0.  1.
<mgrwt>
<rscale>  0 0.15089997E+04</rscale>
<asrwt>0</asrwt>
<pdfrwt beam="1">  1        2 0.23314743E+00 0.15089997E+04</pdfrwt>
<pdfrwt beam="2">  1       -1 0.57791100E-01 0.15089997E+04</pdfrwt>
<totfact> 0.41513318E+01</totfact>
</mgrwt>
</event>
<event>
12    7  0.1675873E-007  0.1624364E+04  0.7818608E-02  0.8805718E-01
         -1   -1    0    0    0  501 -0.00000000000E+00  0.00000000000E+00  0.26720190239E+03  0.26720190239E+03  0.00000000000E+00 0.  1.
          2   -1    0    0  501    0  0.00000000000E+00 -0.00000000000E+00 -0.24686937099E+04  0.24686937099E+04  0.00000000000E+00 0. -1.
         24    2    1    2    0    0  0.18529097221E+03  0.46884504031E+03 -0.36001634447E+03  0.62519594782E+03  0.84319562826E+02 0.  0.
        254    2    1    2    0    0 -0.18529097221E+03 -0.46884504031E+03 -0.18414754631E+04  0.21106996645E+04  0.89992931745E+03 0.  0.
         23    2    4    4    0    0 -0.35589349889E+02 -0.35904708795E+03 -0.14176064697E+03  0.39817154409E+03  0.90901508767E+02 0.  0.
         23    2    4    4    0    0 -0.14970162232E+03 -0.10979795236E+03 -0.16997148161E+04  0.17125281204E+04  0.96207801482E+02 0.  0.
          4    1    3    3  502    0  0.48823895341E+02  0.20322544806E+03 -0.11270487725E+03  0.23745893298E+03  0.00000000000E+00 0. -1.
         -3    1    3    3    0  502  0.13646707687E+03  0.26561959225E+03 -0.24731146722E+03  0.38773701484E+03  0.00000000000E+00 0.  1.
         13    1    5    5    0    0 -0.19801462110E+02 -0.10681979674E+03 -0.87968364348E+02  0.13978912691E+03  0.00000000000E+00 0.  1.
        -13    1    5    5    0    0 -0.15787887779E+02 -0.25222729122E+03 -0.53792282623E+02  0.25838241717E+03  0.00000000000E+00 0. -1.
          3    1    6    6  503    0 -0.16258558089E+03 -0.10937841593E+03 -0.15725936237E+04  0.15847550014E+04  0.00000000000E+00 0. -1.
         -3    1    6    6    0  503  0.12883958567E+02 -0.41953642472E+00 -0.12712119235E+03  0.12777311902E+03  0.00000000000E+00 0.  1.
<mgrwt>
<rscale>  0 0.16243641E+04</rscale>
<asrwt>0</asrwt>
<pdfrwt beam="1">  1        2 0.37979901E+00 0.16243641E+04</pdfrwt>
<pdfrwt beam="2">  1       -1 0.41107987E-01 0.16243641E+04</pdfrwt>
<totfact> 0.22958690E+01</totfact>
</mgrwt>
</event>
<event>
12    7  0.1675873E-007  0.1863684E+04  0.7818608E-02  0.8673147E-01
          2   -1    0    0  501    0  0.00000000000E+00  0.00000000000E+00  0.78033680553E+03  0.78033680553E+03  0.00000000000E+00 0. -1.
         -1   -1    0    0    0  501 -0.00000000000E+00 -0.00000000000E+00 -0.11127627512E+04  0.11127627512E+04  0.00000000000E+00 0.  1.
         24    2    1    2    0    0 -0.25258103163E+03 -0.28961439418E+03 -0.74191770533E+03  0.83928629259E+03  0.79283823063E+02 0.  0.
        254    2    1    2    0    0  0.25258103163E+03  0.28961439418E+03  0.40949175963E+03  0.10538132642E+04  0.89172037079E+03 0.  0.
         23    2    4    4    0    0  0.10308375506E+03 -0.31360299178E+03  0.16138624663E+03  0.37877246797E+03  0.91923690523E+02 0.  0.
         23    2    4    4    0    0  0.14949727657E+03  0.60321738596E+03  0.24810551300E+03  0.67504079620E+03  0.88899271795E+02 0.  0.
          4    1    3    3  502    0 -0.10755991295E+03 -0.18240323750E+03 -0.38499457444E+03  0.43938695733E+03  0.00000000000E+00 0. -1.
         -3    1    3    3    0  502 -0.14502111868E+03 -0.10721115668E+03 -0.35692313089E+03  0.39989933526E+03  0.00000000000E+00 0.  1.
         13    1    5    5    0    0  0.91258136010E+02 -0.30433193898E+03  0.12869848432E+03  0.34279626068E+03  0.00000000000E+00 0.  1.
        -13    1    5    5    0    0  0.11825619050E+02 -0.92710528008E+01  0.32687762310E+02  0.35976207288E+02  0.00000000000E+00 0. -1.
          1    1    6    6  503    0 -0.77883782329E+01  0.75625091954E+02  0.16648531880E+02  0.77826646994E+02  0.00000000000E+00 0. -1.
         -1    1    6    6    0  503  0.15728565481E+03  0.52759229400E+03  0.23145698112E+03  0.59721414920E+03  0.00000000000E+00 0.  1.
<mgrwt>
<rscale>  0 0.18636842E+04</rscale>
<asrwt>0</asrwt>
<pdfrwt beam="1">  1        2 0.12005182E+00 0.18636842E+04</pdfrwt>
<pdfrwt beam="2">  1       -1 0.17119427E+00 0.18636842E+04</pdfrwt>
<totfact> 0.92045257E+00</totfact>
</mgrwt>
</event>
<event>
12    7  0.1675873E-007  0.1496897E+04  0.7818608E-02  0.8886519E-01
         -1   -1    0    0    0  501 -0.00000000000E+00  0.00000000000E+00  0.50296205024E+03  0.50296205024E+03  0.00000000000E+00 0.  1.
          2   -1    0    0  501    0  0.00000000000E+00 -0.00000000000E+00 -0.11137529274E+04  0.11137529274E+04  0.00000000000E+00 0. -1.
         24    2    1    2    0    0 -0.12061098378E+03 -0.45717755525E+03 -0.15856987888E+03  0.50504331445E+03  0.79787320738E+02 0.  0.
        254    2    1    2    0    0  0.12061098378E+03  0.45717755525E+03 -0.45222099832E+03  0.11116716632E+04  0.89875009268E+03 0.  0.
         23    2    4    4    0    0 -0.20761930696E+03  0.44614577112E+03  0.51904200667E+02  0.50315799550E+03  0.91225526505E+02 0.  0.
         23    2    4    4    0    0  0.32823029074E+03  0.11031784138E+02 -0.50412519899E+03  0.60851366773E+03  0.91048577930E+02 0.  0.
          4    1    3    3  502    0 -0.87272014457E+02 -0.28559704986E+03 -0.60773549259E+02  0.30475482553E+03  0.00000000000E+00 0. -1.
         -3    1    3    3    0  502 -0.33338969319E+02 -0.17158050540E+03 -0.97796329624E+02  0.20028848892E+03  0.00000000000E+00 0.  1.
         13    1    5    5    0    0  0.14090127623E+01 -0.24262501167E+01  0.54111924546E+01  0.60953269292E+01  0.00000000000E+00 0. -1.
        -13    1    5    5    0    0 -0.20902831972E+03  0.44857202123E+03  0.46493008212E+02  0.49706266858E+03  0.00000000000E+00 0.  1.
          1    1    6    6  503    0 -0.21345722866E+01 -0.83493759898E+01 -0.23015797281E+02  0.24576317925E+02  0.00000000000E+00 0. -1.
         -1    1    6    6    0  503  0.33036486302E+03  0.19381160128E+02 -0.48110940171E+03  0.58393734981E+03  0.00000000000E+00 0.  1.
<mgrwt>
<rscale>  0 0.14968974E+04</rscale>
<asrwt>0</asrwt>
<pdfrwt beam="1">  1        2 0.17134660E+00 0.14968974E+04</pdfrwt>
<pdfrwt beam="2">  1       -1 0.77378777E-01 0.14968974E+04</pdfrwt>
<totfact> 0.39432109E+01</totfact>
</mgrwt>
</event>
<event>
12    7  0.1675873E-007  0.2205871E+04  0.7818608E-02  0.8515988E-01
         -1   -1    0    0    0  501 -0.00000000000E+00  0.00000000000E+00  0.10104949085E+04  0.10104949085E+04  0.00000000000E+00 0.  1.
          2   -1    0    0  501    0  0.00000000000E+00 -0.00000000000E+00 -0.12038328610E+04  0.12038328610E+04  0.00000000000E+00 0. -1.
         24    2    1    2    0    0 -0.40219463553E+03 -0.77563504948E+03 -0.36490488593E+03  0.94947599789E+03  0.70560895410E+02 0.  0.
        254    2    1    2    0    0  0.40219463553E+03  0.77563504948E+03  0.17156693339E+03  0.12648517717E+04  0.89835657553E+03 0.  0.
         23    2    4    4    0    0  0.47246658884E+03  0.93769157607E+03  0.15007399541E+03  0.10646216942E+04  0.91689575946E+02 0.  0.
         23    2    4    4    0    0 -0.70271953310E+02 -0.16205652659E+03  0.21492937974E+02  0.20023007742E+03  0.91813246803E+02 0.  0.
          4    1    3    3  502    0 -0.37021102779E+03 -0.68924201662E+03 -0.30575541170E+03  0.83999829426E+03  0.00000000000E+00 0. -1.
         -3    1    3    3    0  502 -0.31983607740E+02 -0.86393032860E+02 -0.59149474228E+02  0.10947770363E+03  0.00000000000E+00 0.  1.
         13    1    5    5    0    0  0.46377442273E+03  0.89924982291E+03  0.12917521993E+03  0.10200113708E+04  0.00000000000E+00 0. -1.
        -13    1    5    5    0    0  0.86921661138E+01  0.38441753155E+02  0.20898775482E+02  0.44610323402E+02  0.00000000000E+00 0.  1.
          3    1    6    6  503    0 -0.60278210838E+02 -0.72293379815E+02  0.48599208931E+02  0.10593242457E+03  0.00000000000E+00 0. -1.
         -3    1    6    6    0  503 -0.99937424717E+01 -0.89763146775E+02 -0.27106270957E+02  0.94297652848E+02  0.00000000000E+00 0.  1.
<mgrwt>
<rscale>  0 0.22058712E+04</rscale>
<asrwt>0</asrwt>
<pdfrwt beam="1">  1        2 0.18520505E+00 0.22058712E+04</pdfrwt>
<pdfrwt beam="2">  1       -1 0.15546076E+00 0.22058712E+04</pdfrwt>
<totfact> 0.62115109E+00</totfact>
</mgrwt>
</event>
<event>
12    7  0.1675873E-007  0.2883474E+04  0.7818608E-02  0.8277812E-01
          2   -1    0    0  501    0  0.00000000000E+00  0.00000000000E+00  0.18745604294E+04  0.18745604294E+04  0.00000000000E+00 0. -1.
         -1   -1    0    0    0  501 -0.00000000000E+00 -0.00000000000E+00 -0.11088494609E+04  0.11088494609E+04  0.00000000000E+00 0.  1.
         24    2    1    2    0    0 -0.20562088933E+03 -0.56457060074E+03  0.15437528578E+04  0.16584249960E+04  0.78617224348E+02 0.  0.
        254    2    1    2    0    0  0.20562088933E+03  0.56457060074E+03 -0.77804188926E+03  0.13249848943E+04  0.88837822761E+03 0.  0.
         23    2    4    4    0    0  0.50428124697E+02  0.22191495566E+03  0.17372023292E+03  0.29759492911E+03  0.81208245893E+02 0.  0.
         23    2    4    4    0    0  0.15519276464E+03  0.34265564507E+03 -0.95176212218E+03  0.10273899652E+04  0.90450638584E+02 0.  0.
          2    1    3    3  502    0 -0.33178597309E+02 -0.10811707090E+03  0.38128562180E+03  0.39770447034E+03  0.00000000000E+00 0. -1.
         -1    1    3    3    0  502 -0.17244229202E+03 -0.45645352984E+03  0.11624672360E+04  0.12607205257E+04  0.00000000000E+00 0.  1.
         13    1    5    5    0    0  0.32124586921E+02  0.72573318161E+02  0.10645612717E+03  0.13278472279E+03  0.00000000000E+00 0. -1.
        -13    1    5    5    0    0  0.18303537776E+02  0.14934163750E+03  0.67264105751E+02  0.16481020633E+03  0.00000000000E+00 0.  1.
          1    1    6    6  503    0  0.13927985222E+03  0.33920112787E+03 -0.93343189784E+03  0.10028715722E+04  0.00000000000E+00 0. -1.
         -1    1    6    6    0  503  0.15912912411E+02  0.34545172071E+01 -0.18330224345E+02  0.24518392995E+02  0.00000000000E+00 0.  1.
<mgrwt>
<rscale>  0 0.28834738E+04</rscale>
<asrwt>0</asrwt>
<pdfrwt beam="1">  1        2 0.28839391E+00 0.28834738E+04</pdfrwt>
<pdfrwt beam="2">  1       -1 0.17059222E+00 0.28834738E+04</pdfrwt>
<totfact> 0.18792550E+00</totfact>
</mgrwt>
</event>
<event>
12    7  0.1675873E-007  0.1141407E+04  0.7818608E-02  0.9165748E-01
          2   -1    0    0  501    0  0.00000000000E+00  0.00000000000E+00  0.39330995288E+04  0.39330995288E+04  0.00000000000E+00 0. -1.
         -1   -1    0    0    0  501 -0.00000000000E+00 -0.00000000000E+00 -0.82810587817E+02  0.82810587817E+02  0.00000000000E+00 0.  1.
         24    2    1    2    0    0 -0.19219064351E+02 -0.20197810304E+03  0.68476237521E+03  0.72047827698E+03  0.94999529237E+02 0.  0.
        254    2    1    2    0    0  0.19219064351E+02  0.20197810304E+03  0.31655265657E+04  0.32954318396E+04  0.89339131657E+03 0.  0.
         23    2    4    4    0    0  0.18052806737E+03  0.47523270907E+03  0.24963115359E+04  0.25493087155E+04  0.94694941002E+02 0.  0.
         23    2    4    4    0    0 -0.16130900302E+03 -0.27325460604E+03  0.66921502984E+03  0.74612312409E+03  0.90345370453E+02 0.  0.
          4    1    3    3  502    0  0.14001621071E+02 -0.76803118448E+02  0.40142339859E+03  0.40894438415E+03  0.00000000000E+00 0. -1.
         -3    1    3    3    0  502 -0.33220685422E+02 -0.12517498459E+03  0.28333897663E+03  0.31153389283E+03  0.00000000000E+00 0.  1.
         13    1    5    5    0    0  0.70240944384E+02  0.20201283100E+03  0.12850560773E+04  0.13027325497E+04  0.00000000000E+00 0. -1.
        -13    1    5    5    0    0  0.11028712298E+03  0.27321987808E+03  0.12112554586E+04  0.12465761658E+04  0.00000000000E+00 0.  1.
          1    1    6    6  503    0 -0.84717465644E+02 -0.83193883462E+02  0.17896236479E+03  0.21476917665E+03  0.00000000000E+00 0. -1.
         -1    1    6    6    0  503 -0.76591537374E+02 -0.19006072257E+03  0.49025266506E+03  0.53135394744E+03  0.00000000000E+00 0.  1.
<mgrwt>
<rscale>  0 0.11414066E+04</rscale>
<asrwt>0</asrwt>
<pdfrwt beam="1">  1        2 0.60509209E+00 0.11414066E+04</pdfrwt>
<pdfrwt beam="2">  1       -1 0.12740093E-01 0.11414066E+04</pdfrwt>
<totfact> 0.19527404E+01</totfact>
</mgrwt>
</event>
<event>
12    7  0.1675873E-007  0.1168094E+04  0.7818608E-02  0.9141252E-01
          2   -1    0    0  501    0  0.00000000000E+00  0.00000000000E+00  0.33693918886E+03  0.33693918886E+03  0.00000000000E+00 0. -1.
         -1   -1    0    0    0  501 -0.00000000000E+00 -0.00000000000E+00 -0.10123806411E+04  0.10123806411E+04  0.00000000000E+00 0.  1.
         24    2    1    2    0    0 -0.57759714145E+02 -0.21160464666E+03 -0.52783445283E+02  0.23880889013E+03  0.78299954289E+02 0.  0.
        254    2    1    2    0    0  0.57759714145E+02  0.21160464666E+03 -0.62265800692E+03  0.11105109398E+04  0.89298311449E+03 0.  0.
         23    2    4    4    0    0 -0.19243099899E+03  0.55235960596E+02 -0.74580977177E+03  0.77781374076E+03  0.93173488312E+02 0.  0.
         23    2    4    4    0    0  0.25019071313E+03  0.15636868607E+03  0.12315176486E+03  0.33269719904E+03  0.92057102629E+02 0.  0.
          2    1    3    3  502    0 -0.36771508580E+02 -0.97705649609E+02 -0.63997120860E+02  0.12245068104E+03  0.00000000000E+00 0. -1.
         -1    1    3    3    0  502 -0.20988205565E+02 -0.11389899705E+03  0.11213675577E+02  0.11635820909E+03  0.00000000000E+00 0.  1.
         13    1    5    5    0    0 -0.12118303933E+03  0.64094227356E+02 -0.59769495329E+03  0.61321501628E+03  0.00000000000E+00 0. -1.
        -13    1    5    5    0    0 -0.71247959660E+02 -0.88582667601E+01 -0.14811481848E+03  0.16459872448E+03  0.00000000000E+00 0.  1.
          1    1    6    6  503    0  0.46778949435E+02  0.11871531324E+02  0.56759607943E+02  0.74504070090E+02  0.00000000000E+00 0. -1.
         -1    1    6    6    0  503  0.20341176370E+03  0.14449715474E+03  0.66392156913E+02  0.25819312895E+03  0.00000000000E+00 0.  1.
<mgrwt>
<rscale>  0 0.11680937E+04</rscale>
<asrwt>0</asrwt>
<pdfrwt beam="1">  1        2 0.51836799E-01 0.11680937E+04</pdfrwt>
<pdfrwt beam="2">  1       -1 0.15575087E+00 0.11680937E+04</pdfrwt>
<totfact> 0.34391222E+01</totfact>
</mgrwt>
</event>
<event>
12    7  0.1675873E-007  0.1075223E+04  0.7818608E-02  0.9229683E-01
         -1   -1    0    0    0  501 -0.00000000000E+00  0.00000000000E+00  0.31457294919E+03  0.31457294919E+03  0.00000000000E+00 0.  1.
          2   -1    0    0  501    0  0.00000000000E+00 -0.00000000000E+00 -0.91878894499E+03  0.91878894499E+03  0.00000000000E+00 0. -1.
         24    2    1    2    0    0  0.73399998247E+02  0.11882635419E+03 -0.19006691492E+02  0.16229989411E+03  0.80453335012E+02 0.  0.
        254    2    1    2    0    0 -0.73399998247E+02 -0.11882635419E+03 -0.58520930430E+03  0.10710620001E+04  0.88611320719E+03 0.  0.
         23    2    4    4    0    0  0.36470971203E+03 -0.22410475969E+03 -0.28598091772E+03  0.52282147395E+03  0.91220013978E+02 0.  0.
         23    2    4    4    0    0 -0.43810971028E+03  0.10527840550E+03 -0.29922838658E+03  0.54824052612E+03  0.89478412149E+02 0.  0.
          4    1    3    3  502    0  0.43686573229E+02  0.55693055649E+02 -0.49271090658E+02  0.86243106986E+02  0.00000000000E+00 0. -1.
         -3    1    3    3    0  502  0.29713425018E+02  0.63133298545E+02  0.30264399166E+02  0.76056787129E+02  0.00000000000E+00 0.  1.
         13    1    5    5    0    0  0.37021937095E+03 -0.22248957304E+03 -0.28214684072E+03  0.51591746672E+03  0.00000000000E+00 0. -1.
        -13    1    5    5    0    0 -0.55096589173E+01 -0.16151866462E+01 -0.38340769979E+01  0.69040072214E+01  0.00000000000E+00 0.  1.
          2    1    6    6  503    0 -0.36754864701E+03  0.99060418977E+02 -0.21146071668E+03  0.43545448583E+03  0.00000000000E+00 0. -1.
         -2    1    6    6    0  503 -0.70561063267E+02  0.62179865196E+01 -0.87767669893E+02  0.11278604029E+03  0.00000000000E+00 0.  1.
<mgrwt>
<rscale>  0 0.10752230E+04</rscale>
<asrwt>0</asrwt>
<pdfrwt beam="1">  1        2 0.14135214E+00 0.10752230E+04</pdfrwt>
<pdfrwt beam="2">  1       -1 0.48395840E-01 0.10752230E+04</pdfrwt>
<totfact> 0.13789489E+02</totfact>
</mgrwt>
</event>
<event>
12    7  0.1675873E-007  0.1698815E+04  0.7818608E-02  0.8762040E-01
         -1   -1    0    0    0  501 -0.00000000000E+00  0.00000000000E+00  0.45990999417E+03  0.45990999417E+03  0.00000000000E+00 0.  1.
          2   -1    0    0  501    0  0.00000000000E+00 -0.00000000000E+00 -0.15687705793E+04  0.15687705793E+04  0.00000000000E+00 0. -1.
         24    2    1    2    0    0  0.18635113765E+03  0.42596783582E+03 -0.88006855503E+03  0.99868777710E+03  0.81739041600E+02 0.  0.
        254    2    1    2    0    0 -0.18635113765E+03 -0.42596783582E+03 -0.22879203010E+03  0.10299927964E+04  0.89014831567E+03 0.  0.
         23    2    4    4    0    0 -0.35916413864E+03 -0.12967431655E+03 -0.46120323245E+03  0.60587130573E+03  0.92505732914E+02 0.  0.
         23    2    4    4    0    0  0.17281300098E+03 -0.29629351927E+03  0.23241120235E+03  0.42412149065E+03  0.90608437680E+02 0.  0.
          2    1    3    3  502    0  0.19288706702E+03  0.39618548147E+03 -0.83718500711E+03  0.94606928524E+03  0.00000000000E+00 0. -1.
         -1    1    3    3    0  502 -0.65359293626E+01  0.29782354352E+02 -0.42883547917E+02  0.52618491857E+02  0.00000000000E+00 0.  1.
         13    1    5    5    0    0 -0.21280969995E+03 -0.93537726343E+02 -0.34278615355E+03  0.41417341985E+03  0.00000000000E+00 0. -1.
        -13    1    5    5    0    0 -0.14635443868E+03 -0.36136590206E+02 -0.11841707891E+03  0.19169788588E+03  0.00000000000E+00 0.  1.
          4    1    6    6  503    0  0.16726282157E+03 -0.28899846007E+03  0.19732650963E+03  0.38785914042E+03  0.00000000000E+00 0.  1.
         -4    1    6    6    0  503  0.55501794070E+01 -0.72950591970E+01  0.35084692729E+02  0.36262350227E+02  0.00000000000E+00 0. -1.
<mgrwt>
<rscale>  0 0.16988152E+04</rscale>
<asrwt>0</asrwt>
<pdfrwt beam="1">  1        2 0.24134932E+00 0.16988152E+04</pdfrwt>
<pdfrwt beam="2">  1       -1 0.70755383E-01 0.16988152E+04</pdfrwt>
<totfact> 0.25405435E+01</totfact>
</mgrwt>
</event>
<event>
12    7  0.1675873E-007  0.1704756E+04  0.7818608E-02  0.8758657E-01
          2   -1    0    0  501    0  0.00000000000E+00  0.00000000000E+00  0.44658663291E+03  0.44658663291E+03  0.00000000000E+00 0. -1.
         -1   -1    0    0    0  501 -0.00000000000E+00 -0.00000000000E+00 -0.16268916140E+04  0.16268916140E+04  0.00000000000E+00 0.  1.
         24    2    1    2    0    0 -0.47833458148E+03 -0.35855216362E+03 -0.57639128675E+03  0.83423991474E+03  0.79785299561E+02 0.  0.
        254    2    1    2    0    0  0.47833458148E+03  0.35855216362E+03 -0.60391369432E+03  0.12392383321E+04  0.90201788663E+03 0.  0.
         23    2    4    4    0    0  0.64052628562E+03  0.68403337488E+01 -0.52600355266E+03  0.83385161505E+03  0.91148591721E+02 0.  0.
         23    2    4    4    0    0 -0.16219170414E+03  0.35171182987E+03 -0.77910141664E+02  0.40538671710E+03  0.90890263863E+02 0.  0.
          2    1    3    3  502    0 -0.42022714780E+02 -0.13707987227E+02 -0.65770627647E+02  0.79243882618E+02  0.00000000000E+00 0. -1.
         -3    1    3    3    0  502 -0.43631186670E+03 -0.34484417639E+03 -0.51062065910E+03  0.75499603212E+03  0.00000000000E+00 0.  1.
         13    1    5    5    0    0  0.60842539161E+03  0.85827431724E+01 -0.52150955978E+03  0.80139087940E+03  0.00000000000E+00 0. -1.
        -13    1    5    5    0    0  0.32100894012E+02 -0.17424094236E+01 -0.44939928711E+01  0.32460735649E+02  0.00000000000E+00 0.  1.
          1    1    6    6  503    0 -0.99548239304E+02  0.28603880314E+03 -0.34639926432E+02  0.30484089843E+03  0.00000000000E+00 0. -1.
         -1    1    6    6    0  503 -0.62643464836E+02  0.65673026729E+02 -0.43270215232E+02  0.10054581867E+03  0.00000000000E+00 0.  1.
<mgrwt>
<rscale>  0 0.17047558E+04</rscale>
<asrwt>0</asrwt>
<pdfrwt beam="1">  1        2 0.68705636E-01 0.17047558E+04</pdfrwt>
<pdfrwt beam="2">  1       -1 0.25029102E+00 0.17047558E+04</pdfrwt>
<totfact> 0.52971782E+00</totfact>
</mgrwt>
</event>
<event>
12    7  0.1675873E-007  0.2307413E+04  0.7818608E-02  0.8475004E-01
         -1   -1    0    0    0  501 -0.00000000000E+00  0.00000000000E+00  0.72757884869E+03  0.72757884869E+03  0.00000000000E+00 0.  1.
          2   -1    0    0  501    0  0.00000000000E+00 -0.00000000000E+00 -0.18294074684E+04  0.18294074684E+04  0.00000000000E+00 0. -1.
         24    2    1    2    0    0 -0.31567884123E+03  0.17705040354E+03  0.54841672435E+03  0.66194624566E+03  0.80074667680E+02 0.  0.
        254    2    1    2    0    0  0.31567884123E+03 -0.17705040354E+03 -0.16502453440E+04  0.18950400714E+04  0.85840969272E+03 0.  0.
         23    2    4    4    0    0 -0.16366027390E+03 -0.30819574390E+03 -0.10530332929E+04  0.11129176939E+04  0.89091951539E+02 0.  0.
         23    2    4    4    0    0  0.47933911513E+03  0.13114534035E+03 -0.59721205119E+03  0.78212237748E+03  0.89933818300E+02 0.  0.
          2    1    3    3  502    0 -0.53530864981E+02  0.15878097384E+02  0.13883535725E+03  0.14964265403E+03  0.00000000000E+00 0. -1.
         -1    1    3    3    0  502 -0.26214797625E+03  0.16117230616E+03  0.40958136709E+03  0.51230359163E+03  0.00000000000E+00 0.  1.
         13    1    5    5    0    0 -0.10031923879E+03 -0.15700965189E+03 -0.42899822220E+03  0.46771300506E+03  0.00000000000E+00 0. -1.
        -13    1    5    5    0    0 -0.63341035110E+02 -0.15118609201E+03 -0.62403507065E+03  0.64520468888E+03  0.00000000000E+00 0.  1.
          1    1    6    6  503    0  0.30737452956E+03  0.11557308968E+03 -0.43653569951E+03  0.54625969779E+03  0.00000000000E+00 0. -1.
         -1    1    6    6    0  503  0.17196458556E+03  0.15572250669E+02 -0.16067635168E+03  0.23586267968E+03  0.00000000000E+00 0.  1.
<mgrwt>
<rscale>  0 0.23074126E+04</rscale>
<asrwt>0</asrwt>
<pdfrwt beam="1">  1        2 0.28144730E+00 0.23074126E+04</pdfrwt>
<pdfrwt beam="2">  1       -1 0.11193521E+00 0.23074126E+04</pdfrwt>
<totfact> 0.62762915E+00</totfact>
</mgrwt>
</event>
<event>
12    7  0.1675873E-007  0.1325097E+04  0.7818608E-02  0.9009896E-01
         -1   -1    0    0    0  501 -0.00000000000E+00  0.00000000000E+00  0.15345881056E+03  0.15345881056E+03  0.00000000000E+00 0.  1.
          2   -1    0    0  501    0  0.00000000000E+00 -0.00000000000E+00 -0.28605123668E+04  0.28605123668E+04  0.00000000000E+00 0. -1.
         24    2    1    2    0    0  0.18853266974E+03 -0.25974928595E+03 -0.37775405415E+03  0.50185058984E+03  0.78368552320E+02 0.  0.
        254    2    1    2    0    0 -0.18853266974E+03  0.25974928595E+03 -0.23292995021E+04  0.25121205875E+04  0.88436384855E+03 0.  0.
         23    2    4    4    0    0 -0.43208910369E+02  0.56531879316E+03 -0.16600466828E+04  0.17568085754E+04  0.95755071295E+02 0.  0.
         23    2    4    4    0    0 -0.14532375937E+03 -0.30556950721E+03 -0.66925281930E+03  0.75531201212E+03  0.90028777263E+02 0.  0.
          2    1    3    3  502    0  0.15878192771E+03 -0.24959186978E+03 -0.35926149194E+03  0.46537793417E+03  0.00000000000E+00 0. -1.
         -1    1    3    3    0  502  0.29750742030E+02 -0.10157416169E+02 -0.18492562210E+02  0.36472655670E+02  0.00000000000E+00 0.  1.
         13    1    5    5    0    0 -0.44801326480E+02  0.26434280290E+03 -0.90841650921E+03  0.94715618063E+03  0.00000000000E+00 0. -1.
        -13    1    5    5    0    0  0.15924161118E+01  0.30097599026E+03 -0.75163017358E+03  0.80965239476E+03  0.00000000000E+00 0.  1.
          3    1    6    6  503    0 -0.10597749542E+02 -0.10990884585E+03 -0.17483472619E+03  0.20678357810E+03  0.00000000000E+00 0. -1.
         -3    1    6    6    0  503 -0.13472600983E+03 -0.19566066136E+03 -0.49441809311E+03  0.54852843402E+03  0.00000000000E+00 0.  1.
<mgrwt>
<rscale>  0 0.13250975E+04</rscale>
<asrwt>0</asrwt>
<pdfrwt beam="1">  1        2 0.44007879E+00 0.13250975E+04</pdfrwt>
<pdfrwt beam="2">  1       -1 0.23609049E-01 0.13250975E+04</pdfrwt>
<totfact> 0.36897930E+01</totfact>
</mgrwt>
</event>
<event>
12    7  0.1675873E-007  0.1245075E+04  0.7818608E-02  0.9074292E-01
         -1   -1    0    0    0  501 -0.00000000000E+00  0.00000000000E+00  0.15929320126E+03  0.15929320126E+03  0.00000000000E+00 0.  1.
          2   -1    0    0  501    0  0.00000000000E+00 -0.00000000000E+00 -0.24329532392E+04  0.24329532392E+04  0.00000000000E+00 0. -1.
         24    2    1    2    0    0  0.38008517556E+02  0.28903365468E+03 -0.41980820622E+03  0.51706044277E+03  0.78278161218E+02 0.  0.
        254    2    1    2    0    0 -0.38008517556E+02 -0.28903365468E+03 -0.18538518317E+04  0.20751859977E+04  0.88580201518E+03 0.  0.
         23    2    4    4    0    0 -0.68394040427E+02 -0.24667299226E+03 -0.59888733927E+02  0.27810782971E+03  0.90730340117E+02 0.  0.
         23    2    4    4    0    0  0.30385522872E+02 -0.42360662419E+02 -0.17939630978E+04  0.17970781680E+04  0.92025213320E+02 0.  0.
          4    1    3    3  502    0  0.14095494394E+02  0.58667417695E+01 -0.39196762334E+02  0.42065280205E+02  0.00000000000E+00 0. -1.
         -3    1    3    3    0  502  0.23913023161E+02  0.28316691291E+03 -0.38061144389E+03  0.47499516257E+03  0.00000000000E+00 0.  1.
         13    1    5    5    0    0 -0.56110771806E+02 -0.63391830816E+02  0.76370893739E+00  0.84661243661E+02  0.00000000000E+00 0. -1.
        -13    1    5    5    0    0 -0.12283268621E+02 -0.18328116144E+03 -0.60652442865E+02  0.19344658605E+03  0.00000000000E+00 0.  1.
          2    1    6    6  503    0  0.40615806614E+02  0.10480273623E+02 -0.42685994852E+03  0.42891595392E+03  0.00000000000E+00 0. -1.
         -2    1    6    6    0  503 -0.10230283742E+02 -0.52840936042E+02 -0.13671031492E+04  0.13681622140E+04  0.00000000000E+00 0.  1.
<mgrwt>
<rscale>  0 0.12450750E+04</rscale>
<asrwt>0</asrwt>
<pdfrwt beam="1">  1        2 0.37430047E+00 0.12450750E+04</pdfrwt>
<pdfrwt beam="2">  1       -1 0.24506648E-01 0.12450750E+04</pdfrwt>
<totfact> 0.62114849E+01</totfact>
</mgrwt>
</event>
<event>
12    7  0.1675873E-007  0.1378243E+04  0.7818608E-02  0.8969720E-01
         -1   -1    0    0    0  501 -0.00000000000E+00  0.00000000000E+00  0.29068008561E+03  0.29068008561E+03  0.00000000000E+00 0.  1.
          2   -1    0    0  501    0  0.00000000000E+00 -0.00000000000E+00 -0.16337149776E+04  0.16337149776E+04  0.00000000000E+00 0. -1.
         24    2    1    2    0    0 -0.26848157288E+02  0.10313592026E+03 -0.10469625967E+04  0.10553856364E+04  0.79688900939E+02 0.  0.
        254    2    1    2    0    0  0.26848157288E+02 -0.10313592026E+03 -0.29607229524E+03  0.86900942680E+03  0.81003749189E+03 0.  0.
         23    2    4    4    0    0 -0.36501372819E+03 -0.12844510920E+03 -0.66199214669E+02  0.40343709173E+03  0.92983778759E+02 0.  0.
         23    2    4    4    0    0  0.39186188548E+03  0.25309188939E+02 -0.22987308057E+03  0.46557233507E+03  0.98588405379E+02 0.  0.
          4    1    3    3  502    0 -0.19415309920E+02  0.11610495256E+03 -0.95271627960E+03  0.95996126155E+03  0.00000000000E+00 0. -1.
         -3    1    3    3    0  502 -0.74328473677E+01 -0.12969032303E+02 -0.94246317141E+02  0.95424374839E+02  0.00000000000E+00 0.  1.
         13    1    5    5    0    0 -0.11548636651E+03 -0.68846105903E+02  0.12657944715E+02  0.13504484704E+03  0.00000000000E+00 0.  1.
        -13    1    5    5    0    0 -0.24952736168E+03 -0.59599003295E+02 -0.78857159383E+02  0.26839224469E+03  0.00000000000E+00 0. -1.
          3    1    6    6  503    0  0.17682707575E+03  0.34588464806E+02 -0.15503634447E+03  0.23769822196E+03  0.00000000000E+00 0. -1.
         -3    1    6    6    0  503  0.21503480973E+03 -0.92792758665E+01 -0.74836736101E+02  0.22787411311E+03  0.00000000000E+00 0.  1.
<mgrwt>
<rscale>  0 0.13782430E+04</rscale>
<asrwt>0</asrwt>
<pdfrwt beam="1">  1        2 0.25134077E+00 0.13782430E+04</pdfrwt>
<pdfrwt beam="2">  1       -1 0.44720013E-01 0.13782430E+04</pdfrwt>
<totfact> 0.58755968E+01</totfact>
</mgrwt>
</event>
<event>
12    7  0.1675873E-007  0.2574523E+04  0.7818608E-02  0.8376907E-01
         -1   -1    0    0    0  501 -0.00000000000E+00  0.00000000000E+00  0.12459482304E+04  0.12459482304E+04  0.00000000000E+00 0.  1.
          2   -1    0    0  501    0  0.00000000000E+00 -0.00000000000E+00 -0.13299443702E+04  0.13299443702E+04  0.00000000000E+00 0. -1.
         24    2    1    2    0    0 -0.38400396977E+03 -0.54844244912E+03  0.88083008073E+03  0.11109057167E+04  0.10000855669E+03 0.  0.
        254    2    1    2    0    0  0.38400396977E+03  0.54844244912E+03 -0.96482622051E+03  0.14649868839E+04  0.87581320237E+03 0.  0.
         23    2    4    4    0    0 -0.12888892514E+03  0.45178028368E+03 -0.75673746038E+03  0.89539813557E+03  0.91479273565E+02 0.  0.
         23    2    4    4    0    0  0.51289289491E+03  0.96662165434E+02 -0.20808876013E+03  0.56958874834E+03  0.93422236441E+02 0.  0.
          4    1    3    3  502    0 -0.21684545364E+02 -0.90179917652E+01  0.13282332359E+02  0.26980808661E+02  0.00000000000E+00 0. -1.
         -3    1    3    3    0  502 -0.36231942441E+03 -0.53942445735E+03  0.86754774837E+03  0.10839249080E+04  0.00000000000E+00 0.  1.
         13    1    5    5    0    0 -0.19981680067E+02  0.21263719303E+02 -0.87412227363E+02  0.92153734539E+02  0.00000000000E+00 0. -1.
        -13    1    5    5    0    0 -0.10890724507E+03  0.43051656438E+03 -0.66932523302E+03  0.80324440103E+03  0.00000000000E+00 0.  1.
          2    1    6    6  503    0  0.71377543527E+02  0.29869978811E+02 -0.63891386567E+02  0.10034479873E+03  0.00000000000E+00 0. -1.
         -2    1    6    6    0  503  0.44151535139E+03  0.66792186623E+02 -0.14419737356E+03  0.46924394961E+03  0.00000000000E+00 0.  1.
<mgrwt>
<rscale>  0 0.25745227E+04</rscale>
<asrwt>0</asrwt>
<pdfrwt beam="1">  1        2 0.20460682E+00 0.25745227E+04</pdfrwt>
<pdfrwt beam="2">  1       -1 0.19168434E+00 0.25745227E+04</pdfrwt>
<totfact> 0.27580569E+00</totfact>
</mgrwt>
</event>
<event>
12    7  0.1675873E-007  0.2602712E+04  0.7818608E-02  0.8367281E-01
          2   -1    0    0  501    0  0.00000000000E+00  0.00000000000E+00  0.37788505148E+04  0.37788505148E+04  0.00000000000E+00 0. -1.
         -1   -1    0    0    0  501 -0.00000000000E+00 -0.00000000000E+00 -0.44815944354E+03  0.44815944354E+03  0.00000000000E+00 0.  1.
         24    2    1    2    0    0  0.10381820262E+04 -0.43164892201E+03  0.18292317215E+04  0.21486520566E+04  0.80462775929E+02 0.  0.
        254    2    1    2    0    0 -0.10381820262E+04  0.43164892201E+03  0.15014593498E+04  0.20783579017E+04  0.89501322742E+03 0.  0.
         23    2    4    4    0    0  0.43200347110E+02  0.58940219467E+02 -0.67629135588E+02  0.13457728600E+03  0.90537983549E+02 0.  0.
         23    2    4    4    0    0 -0.10813823733E+04  0.37270870255E+03  0.15690884854E+04  0.19437806157E+04  0.89133567937E+02 0.  0.
          2    1    3    3  502    0  0.89444044386E+03 -0.37410816634E+03  0.16268309640E+04  0.18938214312E+04  0.00000000000E+00 0. -1.
         -1    1    3    3    0  502  0.14374158230E+03 -0.57540755675E+02  0.20240075742E+03  0.25483062541E+03  0.00000000000E+00 0.  1.
         13    1    5    5    0    0  0.50603186196E+01  0.73628431875E+02 -0.54166509299E+02  0.91546510226E+02  0.00000000000E+00 0. -1.
        -13    1    5    5    0    0  0.38140028491E+02 -0.14688212408E+02 -0.13462626290E+02  0.43030775773E+02  0.00000000000E+00 0.  1.
          3    1    6    6  503    0 -0.97493957095E+03  0.35688340106E+03  0.14487489768E+04  0.17823429879E+04  0.00000000000E+00 0. -1.
         -3    1    6    6    0  503 -0.10644280232E+03  0.15825301483E+02  0.12033950863E+03  0.16143762780E+03  0.00000000000E+00 0.  1.
<mgrwt>
<rscale>  0 0.26027121E+04</rscale>
<asrwt>0</asrwt>
<pdfrwt beam="1">  1        2 0.58136160E+00 0.26027121E+04</pdfrwt>
<pdfrwt beam="2">  1       -1 0.68947609E-01 0.26027121E+04</pdfrwt>
<totfact> 0.10923251E+00</totfact>
</mgrwt>
</event>
<event>
12    7  0.1675873E-007  0.1801501E+04  0.7818608E-02  0.8705502E-01
          2   -1    0    0  501    0  0.00000000000E+00  0.00000000000E+00  0.91332481451E+03  0.91332481451E+03  0.00000000000E+00 0. -1.
         -1   -1    0    0    0  501 -0.00000000000E+00 -0.00000000000E+00 -0.88834917204E+03  0.88834917204E+03  0.00000000000E+00 0.  1.
         24    2    1    2    0    0  0.42032868844E+03  0.33249771173E+03 -0.39511436065E+03  0.67069970249E+03  0.80571696599E+02 0.  0.
        254    2    1    2    0    0 -0.42032868844E+03 -0.33249771173E+03  0.42009000311E+03  0.11309742841E+04  0.90299296003E+03 0.  0.
         23    2    4    4    0    0  0.11285019876E+03  0.22068654011E+03  0.18422559163E+03  0.32224599184E+03  0.92009207694E+02 0.  0.
         23    2    4    4    0    0 -0.53317888719E+03 -0.55318425184E+03  0.23586441148E+03  0.80872829222E+03  0.90093772273E+02 0.  0.
          4    1    3    3  502    0  0.12835683179E+03  0.10756672022E+03 -0.17097757567E+03  0.23933116585E+03  0.00000000000E+00 0. -1.
         -3    1    3    3    0  502  0.29197185665E+03  0.22493099150E+03 -0.22413678498E+03  0.43136853663E+03  0.00000000000E+00 0.  1.
         13    1    5    5    0    0  0.88124518569E+02  0.15342715748E+03  0.76274129174E+02  0.19267476796E+03  0.00000000000E+00 0. -1.
        -13    1    5    5    0    0  0.24725680188E+02  0.67259382631E+02  0.10795146246E+03  0.12957122389E+03  0.00000000000E+00 0.  1.
          1    1    6    6  503    0 -0.44804816438E+03 -0.47082633934E+03  0.23235708309E+03  0.69022779825E+03  0.00000000000E+00 0. -1.
         -1    1    6    6    0  503 -0.85130722817E+02 -0.82357912500E+02  0.35073283947E+01  0.11850049397E+03  0.00000000000E+00 0.  1.
<mgrwt>
<rscale>  0 0.18015009E+04</rscale>
<asrwt>0</asrwt>
<pdfrwt beam="1">  1        2 0.14051151E+00 0.18015009E+04</pdfrwt>
<pdfrwt beam="2">  1       -1 0.13666910E+00 0.18015009E+04</pdfrwt>
<totfact> 0.13808635E+01</totfact>
</mgrwt>
</event>
<event>
12    7  0.1675873E-007  0.1352646E+04  0.7818608E-02  0.8988827E-01
         -1   -1    0    0    0  501 -0.00000000000E+00  0.00000000000E+00  0.98161838739E+03  0.98161838739E+03  0.00000000000E+00 0.  1.
          2   -1    0    0  501    0  0.00000000000E+00 -0.00000000000E+00 -0.46597844681E+03  0.46597844681E+03  0.00000000000E+00 0. -1.
         24    2    1    2    0    0 -0.19703733832E+03 -0.27238526544E+03  0.35362994203E+03  0.49442366193E+03  0.79894781167E+02 0.  0.
        254    2    1    2    0    0  0.19703733832E+03  0.27238526544E+03  0.16200999856E+03  0.95317317227E+03  0.87708289869E+03 0.  0.
         23    2    4    4    0    0  0.40419834450E+03  0.14066629943E+03 -0.22062070344E+03  0.49002003673E+03  0.91010066034E+02 0.  0.
         23    2    4    4    0    0 -0.20716100618E+03  0.13171896602E+03  0.38263070200E+03  0.46315313554E+03  0.88538151993E+02 0.  0.
          4    1    3    3  502    0 -0.76453593366E+01  0.43670413597E+01  0.17626744365E+02  0.19703418143E+02  0.00000000000E+00 0. -1.
         -3    1    3    3    0  502 -0.18939197898E+03 -0.27675230680E+03  0.33600319766E+03  0.47472024379E+03  0.00000000000E+00 0.  1.
         13    1    5    5    0    0  0.28454091478E+02 -0.11128104882E+02 -0.49320122372E+01  0.30948259803E+02  0.00000000000E+00 0. -1.
        -13    1    5    5    0    0  0.37574425302E+03  0.15179440431E+03 -0.21568869120E+03  0.45907177693E+03  0.00000000000E+00 0.  1.
          4    1    6    6  503    0 -0.38291791413E+02  0.40970057603E+02  0.34824715378E+02  0.66011875529E+02  0.00000000000E+00 0. -1.
         -4    1    6    6    0  503 -0.16886921477E+03  0.90748908415E+02  0.34780598662E+03  0.39714126001E+03  0.00000000000E+00 0.  1.
<mgrwt>
<rscale>  0 0.13526463E+04</rscale>
<asrwt>0</asrwt>
<pdfrwt beam="1">  1        2 0.71688992E-01 0.13526463E+04</pdfrwt>
<pdfrwt beam="2">  1       -1 0.15101821E+00 0.13526463E+04</pdfrwt>
<totfact> 0.25568829E+01</totfact>
</mgrwt>
</event>
<event>
12    7  0.1675873E-007  0.1771436E+04  0.7818608E-02  0.8721639E-01
          2   -1    0    0  501    0  0.00000000000E+00  0.00000000000E+00  0.10642906021E+04  0.10642906021E+04  0.00000000000E+00 0. -1.
         -1   -1    0    0    0  501 -0.00000000000E+00 -0.00000000000E+00 -0.73710696350E+03  0.73710696350E+03  0.00000000000E+00 0.  1.
         24    2    1    2    0    0 -0.17134713611E+02 -0.28920921151E+03 -0.46153496871E+03  0.55226194922E+03  0.89683704054E+02 0.  0.
        254    2    1    2    0    0  0.17134713611E+02  0.28920921151E+03  0.78871860736E+03  0.12491356164E+04  0.92429820958E+03 0.  0.
         23    2    4    4    0    0 -0.29454937076E+03  0.32405914368E+03  0.60902725168E+02  0.45134897894E+03  0.90736422900E+02 0.  0.
         23    2    4    4    0    0  0.31168408437E+03 -0.34849932169E+02  0.72781588219E+03  0.79778663750E+03  0.91575511906E+02 0.  0.
          2    1    3    3  502    0  0.87109252246E+01 -0.48352532166E+02 -0.14868191513E+03  0.15658914226E+03  0.00000000000E+00 0. -1.
         -1    1    3    3    0  502 -0.25845638836E+02 -0.24085667935E+03 -0.31285305358E+03  0.39567280696E+03  0.00000000000E+00 0.  1.
         13    1    5    5    0    0 -0.63402500463E+02  0.11615607618E+03  0.46006013449E+02  0.14010233535E+03  0.00000000000E+00 0.  1.
        -13    1    5    5    0    0 -0.23114687029E+03  0.20790306750E+03  0.14896711719E+02  0.31124664359E+03  0.00000000000E+00 0. -1.
          4    1    6    6  503    0  0.20735193461E+03 -0.15324854152E+02  0.57737152643E+03  0.61366730031E+03  0.00000000000E+00 0. -1.
         -4    1    6    6    0  503  0.10433214976E+03 -0.19525078017E+02  0.15044435576E+03  0.18411933718E+03  0.00000000000E+00 0.  1.
<mgrwt>
<rscale>  0 0.17714356E+04</rscale>
<asrwt>0</asrwt>
<pdfrwt beam="1">  1        2 0.16373702E+00 0.17714356E+04</pdfrwt>
<pdfrwt beam="2">  1       -1 0.11340107E+00 0.17714356E+04</pdfrwt>
<totfact> 0.17569748E+01</totfact>
</mgrwt>
</event>
<event>
12    7  0.1675873E-007  0.2067311E+04  0.7818608E-02  0.8575782E-01
          2   -1    0    0  501    0  0.00000000000E+00  0.00000000000E+00  0.14834354771E+04  0.14834354771E+04  0.00000000000E+00 0. -1.
         -1   -1    0    0    0  501 -0.00000000000E+00 -0.00000000000E+00 -0.72024928257E+03  0.72024928257E+03  0.00000000000E+00 0.  1.
         24    2    1    2    0    0 -0.39695844384E+02 -0.30852381081E+03  0.11061265672E+04  0.11518444731E+04  0.80417694415E+02 0.  0.
        254    2    1    2    0    0  0.39695844384E+02  0.30852381081E+03 -0.34294037269E+03  0.10518402866E+04  0.94445602722E+03 0.  0.
         23    2    4    4    0    0 -0.19851071948E+02 -0.30630806399E+03  0.35312179156E+02  0.32186097196E+03  0.90160080703E+02 0.  0.
         23    2    4    4    0    0  0.59546916332E+02  0.61483187480E+03 -0.37825255185E+03  0.72997931462E+03  0.90723410851E+02 0.  0.
          2    1    3    3  502    0 -0.45533730243E+02 -0.24517428896E+03  0.97071506117E+03  0.10022332476E+04  0.00000000000E+00 0. -1.
         -1    1    3    3    0  502  0.58378858585E+01 -0.63349521850E+02  0.13541150607E+03  0.14961122554E+03  0.00000000000E+00 0.  1.
         13    1    5    5    0    0 -0.25103643281E+02 -0.31127351328E+03  0.32029594619E+02  0.31392242339E+03  0.00000000000E+00 0.  1.
        -13    1    5    5    0    0  0.52525713330E+01  0.49654492868E+01  0.32825845371E+01  0.79385485745E+01  0.00000000000E+00 0. -1.
          1    1    6    6  503    0 -0.20730300195E+02  0.10046589177E+03 -0.46214614875E+02  0.11251191662E+03  0.00000000000E+00 0. -1.
         -1    1    6    6    0  503  0.80277216527E+02  0.51436598303E+03 -0.33203793698E+03  0.61746739799E+03  0.00000000000E+00 0.  1.
<mgrwt>
<rscale>  0 0.20673107E+04</rscale>
<asrwt>0</asrwt>
<pdfrwt beam="1">  1        2 0.22822084E+00 0.20673107E+04</pdfrwt>
<pdfrwt beam="2">  1       -1 0.11080758E+00 0.20673107E+04</pdfrwt>
<totfact> 0.10242590E+01</totfact>
</mgrwt>
</event>
<event>
12    7  0.1675873E-007  0.1443022E+04  0.7818608E-02  0.8923253E-01
         -1   -1    0    0    0  501 -0.00000000000E+00  0.00000000000E+00  0.17835433268E+04  0.17835433268E+04  0.00000000000E+00 0.  1.
          2   -1    0    0  501    0  0.00000000000E+00 -0.00000000000E+00 -0.29187860181E+03  0.29187860181E+03  0.00000000000E+00 0. -1.
         24    2    1    2    0    0 -0.37067578423E+02 -0.25414974892E+03 -0.48709931577E+02  0.27353437610E+03  0.80512714722E+02 0.  0.
        254    2    1    2    0    0  0.37067578423E+02  0.25414974892E+03  0.15403746565E+04  0.18018875525E+04  0.89893190457E+03 0.  0.
         23    2    4    4    0    0 -0.21473768195E+03  0.28833144839E+03  0.17342955560E+03  0.40840609419E+03  0.86431654101E+02 0.  0.
         23    2    4    4    0    0  0.25180526038E+03 -0.34181699474E+02  0.13669451009E+04  0.13934814583E+04  0.93152498127E+02 0.  0.
          2    1    3    3  502    0 -0.29951810485E+02 -0.23413105637E+03 -0.18718423600E+02  0.23678015518E+03  0.00000000000E+00 0. -1.
         -1    1    3    3    0  502 -0.71157679379E+01 -0.20018692551E+02 -0.29991507977E+02  0.36754220921E+02  0.00000000000E+00 0.  1.
         13    1    5    5    0    0 -0.63048882344E+02  0.58072599969E+02  0.62391503813E+01  0.85944839458E+02  0.00000000000E+00 0.  1.
        -13    1    5    5    0    0 -0.15168879961E+03  0.23025884842E+03  0.16719040522E+03  0.32246125473E+03  0.00000000000E+00 0. -1.
          3    1    6    6  503    0  0.41263651335E+02 -0.33043265215E+02  0.16581222255E+03  0.17403516726E+03  0.00000000000E+00 0. -1.
         -3    1    6    6    0  503  0.21054160904E+03 -0.11384342594E+01  0.12011328784E+04  0.12194462910E+04  0.00000000000E+00 0.  1.
<mgrwt>
<rscale>  0 0.14430220E+04</rscale>
<asrwt>0</asrwt>
<pdfrwt beam="1">  1        2 0.44904402E-01 0.14430220E+04</pdfrwt>
<pdfrwt beam="2">  1       -1 0.27439127E+00 0.14430220E+04</pdfrwt>
<totfact> 0.60985206E+00</totfact>
</mgrwt>
</event>
<event>
12    7  0.1675873E-007  0.1366935E+04  0.7818608E-02  0.8978107E-01
         -1   -1    0    0    0  501 -0.00000000000E+00  0.00000000000E+00  0.25190820612E+03  0.25190820612E+03  0.00000000000E+00 0.  1.
          2   -1    0    0  501    0  0.00000000000E+00 -0.00000000000E+00 -0.18543560911E+04  0.18543560911E+04  0.00000000000E+00 0. -1.
         24    2    1    2    0    0  0.57815743978E+02 -0.47526471739E+02  0.11720687430E+03  0.16037280867E+03  0.79878411424E+02 0.  0.
        254    2    1    2    0    0 -0.57815743978E+02  0.47526471739E+02 -0.17196547593E+04  0.19458914885E+04  0.90756805162E+03 0.  0.
         23    2    4    4    0    0  0.14420909562E+03  0.38059730013E+03 -0.44607440957E+03  0.61067101413E+03  0.91028240136E+02 0.  0.
         23    2    4    4    0    0 -0.20202483959E+03 -0.33307082839E+03 -0.12735803497E+04  0.13352204744E+04  0.95166147271E+02 0.  0.
          4    1    3    3  502    0 -0.85813194075E+01 -0.39049999855E+02  0.27848559509E+02  0.48724570785E+02  0.00000000000E+00 0. -1.
         -3    1    3    3    0  502  0.66397063385E+02 -0.84764718833E+01  0.89358314788E+02  0.11164823789E+03  0.00000000000E+00 0.  1.
         13    1    5    5    0    0  0.13242876573E+03  0.37486505798E+03 -0.40486832885E+03  0.56743242187E+03  0.00000000000E+00 0. -1.
        -13    1    5    5    0    0  0.11780329887E+02  0.57322421537E+01 -0.41206080721E+02  0.43238592261E+02  0.00000000000E+00 0.  1.
          3    1    6    6  503    0 -0.14796753992E+03 -0.30119508580E+03 -0.10107354271E+04  0.10649877821E+04  0.00000000000E+00 0. -1.
         -3    1    6    6    0  503 -0.54057299673E+02 -0.31875742593E+02 -0.26284492266E+03  0.27023269229E+03  0.00000000000E+00 0.  1.
<mgrwt>
<rscale>  0 0.13669346E+04</rscale>
<asrwt>0</asrwt>
<pdfrwt beam="1">  1        2 0.28528554E+00 0.13669346E+04</pdfrwt>
<pdfrwt beam="2">  1       -1 0.38755110E-01 0.13669346E+04</pdfrwt>
<totfact> 0.57747108E+01</totfact>
</mgrwt>
</event>
<event>
12    7  0.1675873E-007  0.2195883E+04  0.7818608E-02  0.8520144E-01
          2   -1    0    0  501    0  0.00000000000E+00  0.00000000000E+00  0.18524182316E+04  0.18524182316E+04  0.00000000000E+00 0. -1.
         -1   -1    0    0    0  501 -0.00000000000E+00 -0.00000000000E+00 -0.65075787110E+03  0.65075787110E+03  0.00000000000E+00 0.  1.
         24    2    1    2    0    0  0.66813071087E+03  0.38186441217E+03 -0.55770459004E+02  0.77571845253E+03  0.80060585837E+02 0.  0.
        254    2    1    2    0    0 -0.66813071087E+03 -0.38186441217E+03  0.12574308195E+04  0.17274576502E+04  0.90042134097E+03 0.  0.
         23    2    4    4    0    0 -0.82866681644E+03 -0.12303358520E+03  0.75231336394E+03  0.11296121619E+04  0.90676804583E+02 0.  0.
         23    2    4    4    0    0  0.16053610557E+03 -0.25883082697E+03  0.50511745561E+03  0.59784548837E+03  0.97521001933E+02 0.  0.
          4    1    3    3  502    0  0.84822213630E+02  0.20043809719E+02 -0.16298691955E+01  0.87173497732E+02  0.00000000000E+00 0. -1.
         -3    1    3    3    0  502  0.58330849724E+03  0.36182060245E+03 -0.54140589809E+02  0.68854495479E+03  0.00000000000E+00 0.  1.
         13    1    5    5    0    0 -0.80725221591E+03 -0.12071481760E+03  0.70867767382E+03  0.10809496994E+04  0.00000000000E+00 0. -1.
        -13    1    5    5    0    0 -0.21414600530E+02 -0.23187675997E+01  0.43635690118E+02  0.48662462444E+02  0.00000000000E+00 0.  1.
          3    1    6    6  503    0  0.73559384076E+02 -0.81629670778E+02  0.26583318573E+03  0.28764851603E+03  0.00000000000E+00 0. -1.
         -3    1    6    6    0  503  0.86976721495E+02 -0.17720115619E+03  0.23928426988E+03  0.31019697234E+03  0.00000000000E+00 0.  1.
<mgrwt>
<rscale>  0 0.21958832E+04</rscale>
<asrwt>0</asrwt>
<pdfrwt beam="1">  1        2 0.28498742E+00 0.21958832E+04</pdfrwt>
<pdfrwt beam="2">  1       -1 0.10011660E+00 0.21958832E+04</pdfrwt>
<totfact> 0.79846522E+00</totfact>
</mgrwt>
</event>
<event>
12    7  0.1675873E-007  0.1247050E+04  0.7818608E-02  0.9072642E-01
          2   -1    0    0  501    0  0.00000000000E+00  0.00000000000E+00  0.49120227590E+03  0.49120227590E+03  0.00000000000E+00 0. -1.
         -1   -1    0    0    0  501 -0.00000000000E+00 -0.00000000000E+00 -0.79149412088E+03  0.79149412088E+03  0.00000000000E+00 0.  1.
         24    2    1    2    0    0  0.14429528380E+03 -0.21542689754E+03  0.10262866631E+03  0.28915414151E+03  0.76469584108E+02 0.  0.
        254    2    1    2    0    0 -0.14429528380E+03  0.21542689754E+03 -0.40292051130E+03  0.99354225527E+03  0.87037428585E+03 0.  0.
         23    2    4    4    0    0 -0.17764121572E+02 -0.19470198511E+03  0.16794111225E+03  0.27345461752E+03  0.91371678525E+02 0.  0.
         23    2    4    4    0    0 -0.12653116223E+03  0.41012888265E+03 -0.57086162355E+03  0.72008763775E+03  0.91800748359E+02 0.  0.
          4    1    3    3  502    0  0.71201687032E+02 -0.13994251082E+03  0.95636692514E+02  0.18384766392E+03  0.00000000000E+00 0. -1.
         -3    1    3    3    0  502  0.73093596765E+02 -0.75484386715E+02  0.69919737991E+01  0.10530647759E+03  0.00000000000E+00 0.  1.
         13    1    5    5    0    0  0.34768437634E+02 -0.43305388921E+02  0.44898115460E+02  0.71414576502E+02  0.00000000000E+00 0.  1.
        -13    1    5    5    0    0 -0.52532559205E+02 -0.15139659619E+03  0.12304299679E+03  0.20204004102E+03  0.00000000000E+00 0. -1.
          3    1    6    6  503    0  0.35880525746E+01  0.12953873921E+03 -0.17244656302E+03  0.21571039886E+03  0.00000000000E+00 0. -1.
         -3    1    6    6    0  503 -0.13011921480E+03  0.28059014344E+03 -0.39841506053E+03  0.50437723889E+03  0.00000000000E+00 0.  1.
<mgrwt>
<rscale>  0 0.12470505E+04</rscale>
<asrwt>0</asrwt>
<pdfrwt beam="1">  1        2 0.75569581E-01 0.12470505E+04</pdfrwt>
<pdfrwt beam="2">  1       -1 0.12176833E+00 0.12470505E+04</pdfrwt>
<totfact> 0.42250618E+01</totfact>
</mgrwt>
</event>
<event>
12    7  0.1675873E-007  0.1212990E+04  0.7818608E-02  0.9101562E-01
         -1   -1    0    0    0  501 -0.00000000000E+00  0.00000000000E+00  0.32231365741E+03  0.32231365741E+03  0.00000000000E+00 0.  1.
          2   -1    0    0  501    0  0.00000000000E+00 -0.00000000000E+00 -0.11412361855E+04  0.11412361855E+04  0.00000000000E+00 0. -1.
         24    2    1    2    0    0 -0.72267134539E+02  0.58153405169E+01 -0.48347633831E+03  0.49538518592E+03  0.80004723611E+02 0.  0.
        254    2    1    2    0    0  0.72267134539E+02 -0.58153405169E+01 -0.33544618983E+03  0.96816465704E+03  0.90529680213E+03 0.  0.
         23    2    4    4    0    0  0.57798041008E+02 -0.30908916992E+03 -0.51051904356E+03  0.60635222426E+03  0.90313883342E+02 0.  0.
         23    2    4    4    0    0  0.14469093530E+02  0.30327382940E+03  0.17507285373E+03  0.36181243278E+03  0.89851889970E+02 0.  0.
          4    1    3    3  502    0 -0.36882178930E+02 -0.22407897583E+02 -0.38000052447E+03  0.38244320833E+03  0.00000000000E+00 0. -1.
         -3    1    3    3    0  502 -0.35384955609E+02  0.28223238099E+02 -0.10347581384E+03  0.11294197759E+03  0.00000000000E+00 0.  1.
         13    1    5    5    0    0  0.22110844806E+02 -0.19655022827E+02 -0.20064997646E+02  0.35746517465E+02  0.00000000000E+00 0.  1.
        -13    1    5    5    0    0  0.35687196203E+02 -0.28943414709E+03 -0.49045404591E+03  0.57060570680E+03  0.00000000000E+00 0. -1.
          4    1    6    6  503    0 -0.25555001497E+02  0.21679438616E+03  0.14428613110E+03  0.26167031089E+03  0.00000000000E+00 0. -1.
         -4    1    6    6    0  503  0.40024095027E+02  0.86479443241E+02  0.30786722627E+02  0.10014212189E+03  0.00000000000E+00 0.  1.
<mgrwt>
<rscale>  0 0.12129897E+04</rscale>
<asrwt>0</asrwt>
<pdfrwt beam="1">  1        2 0.17557480E+00 0.12129897E+04</pdfrwt>
<pdfrwt beam="2">  1       -1 0.49586716E-01 0.12129897E+04</pdfrwt>
<totfact> 0.94187844E+01</totfact>
</mgrwt>
</event>
<event>
12    7  0.1675873E-007  0.1732145E+04  0.7818608E-02  0.8743240E-01
         -1   -1    0    0    0  501 -0.00000000000E+00  0.00000000000E+00  0.33866262099E+03  0.33866262099E+03  0.00000000000E+00 0.  1.
          2   -1    0    0  501    0  0.00000000000E+00 -0.00000000000E+00 -0.22148350835E+04  0.22148350835E+04  0.00000000000E+00 0. -1.
         24    2    1    2    0    0  0.80322101813E+02 -0.29373731268E+03  0.12545037639E+03  0.33891915411E+03  0.79969664184E+02 0.  0.
        254    2    1    2    0    0 -0.80322101813E+02  0.29373731268E+03 -0.20016228389E+04  0.22145785503E+04  0.89729087688E+03 0.  0.
         23    2    4    4    0    0  0.13333054357E+03 -0.85247046842E+02 -0.16142653266E+04  0.16245429671E+04  0.90792150068E+02 0.  0.
         23    2    4    4    0    0 -0.21365264538E+03  0.37898435952E+03 -0.38735751230E+03  0.59003558327E+03  0.93912456859E+02 0.  0.
          2    1    3    3  502    0  0.54451135101E+02 -0.15683982647E+03  0.10905542078E+03  0.19863721223E+03  0.00000000000E+00 0. -1.
         -1    1    3    3    0  502  0.25870966712E+02 -0.13689748620E+03  0.16394955602E+02  0.14028194188E+03  0.00000000000E+00 0.  1.
         13    1    5    5    0    0  0.10439525715E+03 -0.21206627140E+02 -0.11590727430E+04  0.11639577803E+04  0.00000000000E+00 0. -1.
        -13    1    5    5    0    0  0.28935286420E+02 -0.64040419702E+02 -0.45519258353E+03  0.46058518675E+03  0.00000000000E+00 0.  1.
          1    1    6    6  503    0 -0.21952343897E+03  0.35511210843E+03 -0.34740522123E+03  0.54312571063E+03  0.00000000000E+00 0. -1.
         -1    1    6    6    0  503  0.58707935891E+01  0.23872251089E+02 -0.39952291070E+02  0.46909872640E+02  0.00000000000E+00 0.  1.
<mgrwt>
<rscale>  0 0.17321453E+04</rscale>
<asrwt>0</asrwt>
<pdfrwt beam="1">  1        2 0.34074384E+00 0.17321453E+04</pdfrwt>
<pdfrwt beam="2">  1       -1 0.52101944E-01 0.17321453E+04</pdfrwt>
<totfact> 0.20320308E+01</totfact>
</mgrwt>
</event>
<event>
12    7  0.1675873E-007  0.1343638E+04  0.7818608E-02  0.8995658E-01
         -1   -1    0    0    0  501 -0.00000000000E+00  0.00000000000E+00  0.64254573632E+03  0.64254573632E+03  0.00000000000E+00 0.  1.
          2   -1    0    0  501    0  0.00000000000E+00 -0.00000000000E+00 -0.70242542835E+03  0.70242542835E+03  0.00000000000E+00 0. -1.
         24    2    1    2    0    0 -0.18172834764E+03  0.82638590606E+02 -0.32112687295E+03  0.38335347092E+03  0.63111695739E+02 0.  0.
        254    2    1    2    0    0  0.18172834764E+03 -0.82638590606E+02  0.26124718091E+03  0.96161769375E+03  0.90366153531E+03 0.  0.
         23    2    4    4    0    0 -0.10252697753E+03 -0.32096321815E+03  0.42170032497E+03  0.54753720024E+03  0.91851254968E+02 0.  0.
         23    2    4    4    0    0  0.28425532517E+03  0.23832462755E+03 -0.16045314406E+03  0.41408049351E+03  0.90098422209E+02 0.  0.
          4    1    3    3  502    0 -0.15649327719E+03  0.74977443691E+02 -0.30885808341E+03  0.35426695945E+03  0.00000000000E+00 0. -1.
         -3    1    3    3    0  502 -0.25235070450E+02  0.76611469147E+01 -0.12268789541E+02  0.29086511469E+02  0.00000000000E+00 0.  1.
         13    1    5    5    0    0 -0.79140828373E+02 -0.31281803628E+03  0.40426565150E+03  0.51725149736E+03  0.00000000000E+00 0.  1.
        -13    1    5    5    0    0 -0.23386149155E+02 -0.81451818759E+01  0.17434673468E+02  0.30285702882E+02  0.00000000000E+00 0. -1.
          1    1    6    6  503    0  0.25399713766E+02  0.53621371972E+02 -0.49543925769E+02  0.77298108464E+02  0.00000000000E+00 0. -1.
         -1    1    6    6    0  503  0.25885561141E+03  0.18470325557E+03 -0.11090921829E+03  0.33678238505E+03  0.00000000000E+00 0.  1.
<mgrwt>
<rscale>  0 0.13436375E+04</rscale>
<asrwt>0</asrwt>
<pdfrwt beam="1">  1        2 0.10806545E+00 0.13436375E+04</pdfrwt>
<pdfrwt beam="2">  1       -1 0.98853190E-01 0.13436375E+04</pdfrwt>
<totfact> 0.44578654E+01</totfact>
</mgrwt>
</event>
<event>
12    7  0.1675873E-007  0.2341866E+04  0.7818608E-02  0.8461594E-01
         -1   -1    0    0    0  501 -0.00000000000E+00  0.00000000000E+00  0.12757311004E+04  0.12757311004E+04  0.00000000000E+00 0.  1.
          2   -1    0    0  501    0  0.00000000000E+00 -0.00000000000E+00 -0.10747438973E+04  0.10747438973E+04  0.00000000000E+00 0. -1.
         24    2    1    2    0    0  0.28209276275E+03  0.60723114959E+03 -0.65896252992E+03  0.94257324055E+03  0.76855072286E+02 0.  0.
        254    2    1    2    0    0 -0.28209276275E+03 -0.60723114959E+03  0.85994973307E+03  0.14079017572E+04  0.89127314481E+03 0.  0.
         23    2    4    4    0    0  0.28224096842E+03 -0.41562088076E+03  0.36584292701E+03  0.62811999529E+03  0.91065912684E+02 0.  0.
         23    2    4    4    0    0 -0.56433373117E+03 -0.19161026883E+03  0.49410680606E+03  0.77978176190E+03  0.93439847707E+02 0.  0.
          4    1    3    3  502    0  0.24701711423E+03  0.45526333731E+03 -0.50268024469E+03  0.72178223130E+03  0.00000000000E+00 0. -1.
         -3    1    3    3    0  502  0.35075648514E+02  0.15196781228E+03 -0.15628228523E+03  0.22079100925E+03  0.00000000000E+00 0.  1.
         13    1    5    5    0    0  0.20128213982E+03 -0.31625575866E+03  0.22293869635E+03  0.43615807573E+03  0.00000000000E+00 0. -1.
        -13    1    5    5    0    0  0.80958828609E+02 -0.99365122107E+02  0.14290423065E+03  0.19196191956E+03  0.00000000000E+00 0.  1.
          2    1    6    6  503    0 -0.88999810233E+02 -0.28145450112E+02  0.37153902158E+02  0.10046663640E+03  0.00000000000E+00 0.  1.
         -2    1    6    6    0  503 -0.47533392094E+03 -0.16346481872E+03  0.45695290390E+03  0.67931512550E+03  0.00000000000E+00 0. -1.
<mgrwt>
<rscale>  0 0.23418661E+04</rscale>
<asrwt>0</asrwt>
<pdfrwt beam="1">  1        2 0.16534521E+00 0.23418661E+04</pdfrwt>
<pdfrwt beam="2">  1       -1 0.19626632E+00 0.23418661E+04</pdfrwt>
<totfact> 0.37167697E+00</totfact>
</mgrwt>
</event>
<event>
12    7  0.1675873E-007  0.1463322E+04  0.7818608E-02  0.8909216E-01
          2   -1    0    0  501    0  0.00000000000E+00  0.00000000000E+00  0.13438601110E+04  0.13438601110E+04  0.00000000000E+00 0. -1.
         -3   -1    0    0    0  501 -0.00000000000E+00 -0.00000000000E+00 -0.39835105956E+03  0.39835105956E+03  0.00000000000E+00 0.  1.
         24    2    1    2    0    0 -0.62679651375E+02  0.25279208301E+02  0.81642723278E+03  0.82290542312E+03  0.77795449086E+02 0.  0.
        254    2    1    2    0    0  0.62679651375E+02 -0.25279208301E+02  0.12908181863E+03  0.91930574742E+03  0.90768560872E+03 0.  0.
         23    2    4    4    0    0 -0.32294771060E+03  0.10342861230E+01 -0.21077192269E+03  0.39621844922E+03  0.90928337600E+02 0.  0.
         23    2    4    4    0    0  0.38562736197E+03 -0.26313494424E+02  0.33985374132E+03  0.52308729821E+03  0.93375016815E+02 0.  0.
          2    1    3    3  502    0 -0.32616373638E+02  0.36901912714E+02  0.21307137773E+03  0.21868925671E+03  0.00000000000E+00 0. -1.
         -1    1    3    3    0  502 -0.30063277737E+02 -0.11622704412E+02  0.60335585505E+03  0.60421616641E+03  0.00000000000E+00 0.  1.
         13    1    5    5    0    0 -0.84171447854E+02  0.38926602721E+02 -0.72442763315E+02  0.11767781010E+03  0.00000000000E+00 0.  1.
        -13    1    5    5    0    0 -0.23877626274E+03 -0.37892316598E+02 -0.13832915937E+03  0.27854063912E+03  0.00000000000E+00 0. -1.
          2    1    6    6  503    0  0.28843616051E+03  0.18450194762E+02  0.26831763090E+03  0.39437314745E+03  0.00000000000E+00 0. -1.
         -2    1    6    6    0  503  0.97191201465E+02 -0.44763689186E+02  0.71536110417E+02  0.12871415076E+03  0.00000000000E+00 0.  1.
<mgrwt>
<rscale>  0 0.14633224E+04</rscale>
<asrwt>0</asrwt>
<pdfrwt beam="1">  1        2 0.20674771E+00 0.14633224E+04</pdfrwt>
<pdfrwt beam="2">  1       -3 0.61284779E-01 0.14633224E+04</pdfrwt>
<totfact> 0.25030575E+01</totfact>
</mgrwt>
</event>
<event>
12    7  0.1675873E-007  0.1053174E+04  0.7818608E-02  0.9252073E-01
         -1   -1    0    0    0  501 -0.00000000000E+00  0.00000000000E+00  0.16051910428E+03  0.16051910428E+03  0.00000000000E+00 0.  1.
          2   -1    0    0  501    0  0.00000000000E+00 -0.00000000000E+00 -0.17274836506E+04  0.17274836506E+04  0.00000000000E+00 0. -1.
         24    2    1    2    0    0  0.14185499736E+00  0.86634735593E+02 -0.37797887095E+03  0.39628284020E+03  0.81648423222E+02 0.  0.
        254    2    1    2    0    0 -0.14185499736E+00 -0.86634735593E+02 -0.11889856754E+04  0.14917199147E+04  0.89668041692E+03 0.  0.
         23    2    4    4    0    0  0.23052118683E+03 -0.30987209398E+03 -0.19370474140E+03  0.44143003903E+03  0.90433513224E+02 0.  0.
         23    2    4    4    0    0 -0.23066304183E+03  0.22323735839E+03 -0.99528093396E+03  0.10502898756E+04  0.97387516246E+02 0.  0.
          2    1    3    3  502    0 -0.26369912819E+02  0.66134096171E+02 -0.33102814194E+03  0.33859817149E+03  0.00000000000E+00 0. -1.
         -1    1    3    3    0  502  0.26511767816E+02  0.20500639422E+02 -0.46950729015E+02  0.57684668713E+02  0.00000000000E+00 0.  1.
         13    1    5    5    0    0  0.17075193254E+03 -0.27697163408E+03 -0.17998255331E+03  0.37183763667E+03  0.00000000000E+00 0. -1.
        -13    1    5    5    0    0  0.59769254295E+02 -0.32900459905E+02 -0.13722188091E+02  0.69592402365E+02  0.00000000000E+00 0.  1.
          3    1    6    6  503    0 -0.23089155387E+03  0.22293958220E+03 -0.99759036348E+03  0.10479501421E+04  0.00000000000E+00 0. -1.
         -3    1    6    6    0  503  0.22851204425E+00  0.29777619059E+00  0.23094295250E+01  0.23397335628E+01  0.00000000000E+00 0.  1.
<mgrwt>
<rscale>  0 0.10531745E+04</rscale>
<asrwt>0</asrwt>
<pdfrwt beam="1">  1        2 0.26576672E+00 0.10531745E+04</pdfrwt>
<pdfrwt beam="2">  1       -1 0.24695247E-01 0.10531745E+04</pdfrwt>
<totfact> 0.15365602E+02</totfact>
</mgrwt>
</event>
<event>
12    7  0.1675873E-007  0.2410362E+04  0.7818608E-02  0.8435634E-01
          2   -1    0    0  501    0  0.00000000000E+00  0.00000000000E+00  0.69456089469E+03  0.69456089469E+03  0.00000000000E+00 0. -1.
         -1   -1    0    0    0  501 -0.00000000000E+00 -0.00000000000E+00 -0.20911933206E+04  0.20911933206E+04  0.00000000000E+00 0.  1.
         24    2    1    2    0    0  0.29020029200E+03 -0.34932252565E+03 -0.16373801863E+04  0.17010514968E+04  0.79497698000E+02 0.  0.
        254    2    1    2    0    0 -0.29020029200E+03  0.34932252565E+03  0.24074776040E+03  0.10847027185E+04  0.95518483389E+03 0.  0.
         23    2    4    4    0    0 -0.46158220946E+03  0.51168929431E+03  0.38287492227E+03  0.79511221685E+03  0.10356718247E+03 0.  0.
         23    2    4    4    0    0  0.17138191746E+03 -0.16236676866E+03 -0.14212716187E+03  0.28959050161E+03  0.89038190023E+02 0.  0.
          4    1    3    3  502    0  0.90115742996E+02 -0.16188672426E+03 -0.73091433531E+03  0.75403177929E+03  0.00000000000E+00 0. -1.
         -3    1    3    3    0  502  0.20008454900E+03 -0.18743580139E+03 -0.90646585100E+03  0.94701971755E+03  0.00000000000E+00 0.  1.
         13    1    5    5    0    0 -0.58991922147E+02  0.61362665886E+02  0.11142135828E+02  0.85846204541E+02  0.00000000000E+00 0. -1.
        -13    1    5    5    0    0 -0.40259028731E+03  0.45032662842E+03  0.37173278644E+03  0.70926601231E+03  0.00000000000E+00 0.  1.
          4    1    6    6  503    0 -0.29458473998E+01  0.76965319301E+01 -0.15353586184E+01  0.83828364376E+01  0.00000000000E+00 0. -1.
         -4    1    6    6    0  503  0.17432776486E+03 -0.17006330059E+03 -0.14059180325E+03  0.28120766517E+03  0.00000000000E+00 0.  1.
<mgrwt>
<rscale>  0 0.24103619E+04</rscale>
<asrwt>0</asrwt>
<pdfrwt beam="1">  1        2 0.10685552E+00 0.24103619E+04</pdfrwt>
<pdfrwt beam="2">  1       -1 0.32172204E+00 0.24103619E+04</pdfrwt>
<totfact> 0.10119696E+00</totfact>
</mgrwt>
</event>
<event>
12    7  0.1675873E-007  0.1632685E+04  0.7818608E-02  0.8800716E-01
          2   -1    0    0  501    0  0.00000000000E+00  0.00000000000E+00  0.98545791650E+03  0.98545791650E+03  0.00000000000E+00 0. -1.
         -1   -1    0    0    0  501 -0.00000000000E+00 -0.00000000000E+00 -0.67624940820E+03  0.67624940820E+03  0.00000000000E+00 0.  1.
         24    2    1    2    0    0  0.32948649994E+03 -0.45818729602E+03  0.64941995271E+02  0.57499075118E+03  0.88881659061E+02 0.  0.
        254    2    1    2    0    0 -0.32948649994E+03  0.45818729602E+03  0.24426651303E+03  0.10867165735E+04  0.89598539603E+03 0.  0.
         23    2    4    4    0    0 -0.12178545923E+03  0.30831923801E+03 -0.31358772489E+03  0.46560779020E+03  0.92525145129E+02 0.  0.
         23    2    4    4    0    0 -0.20770104071E+03  0.14986805801E+03  0.55785423792E+03  0.62110878333E+03  0.94734433180E+02 0.  0.
          4    1    3    3  502    0  0.28131153973E+03 -0.43343511425E+03  0.65265905637E+02  0.52082801297E+03  0.00000000000E+00 0. -1.
         -3    1    3    3    0  502  0.48174960204E+02 -0.24752181775E+02 -0.32391036570E+00  0.54162738217E+02  0.00000000000E+00 0.  1.
         13    1    5    5    0    0 -0.82701132331E+02  0.18703127525E+03 -0.25062916943E+03  0.32347357818E+03  0.00000000000E+00 0. -1.
        -13    1    5    5    0    0 -0.39084326894E+02  0.12128796277E+03 -0.62958555464E+02  0.14213421202E+03  0.00000000000E+00 0.  1.
          2    1    6    6  503    0 -0.18331875391E+03  0.83315232634E+02  0.43319816629E+03  0.47771104740E+03  0.00000000000E+00 0. -1.
         -2    1    6    6    0  503 -0.24382286799E+02  0.66552825376E+02  0.12465607163E+03  0.14339773593E+03  0.00000000000E+00 0.  1.
<mgrwt>
<rscale>  0 0.16326853E+04</rscale>
<asrwt>0</asrwt>
<pdfrwt beam="1">  1        2 0.15160891E+00 0.16326853E+04</pdfrwt>
<pdfrwt beam="2">  1       -1 0.10403837E+00 0.16326853E+04</pdfrwt>
<totfact> 0.24439000E+01</totfact>
</mgrwt>
</event>
<event>
12    7  0.1675873E-007  0.1411035E+04  0.7818608E-02  0.8945869E-01
         -1   -1    0    0    0  501 -0.00000000000E+00  0.00000000000E+00  0.33929791834E+03  0.33929791834E+03  0.00000000000E+00 0.  1.
          2   -1    0    0  501    0  0.00000000000E+00 -0.00000000000E+00 -0.14670154296E+04  0.14670154296E+04  0.00000000000E+00 0. -1.
         24    2    1    2    0    0  0.27329970496E+03  0.27855704347E+03 -0.47631294878E+03  0.62089896758E+03  0.79716670534E+02 0.  0.
        254    2    1    2    0    0 -0.27329970496E+03 -0.27855704347E+03 -0.65140456243E+03  0.11854143803E+04  0.91027061576E+03 0.  0.
         23    2    4    4    0    0 -0.42252454727E+01  0.45807509599E+01  0.21118886504E+03  0.23410659397E+03  0.10082819370E+03 0.  0.
         23    2    4    4    0    0 -0.26907445949E+03 -0.28313779443E+03 -0.86259342747E+03  0.95130778634E+03  0.91383849018E+02 0.  0.
          4    1    3    3  502    0  0.17229965428E+03  0.13989928630E+03 -0.31565184351E+03  0.38586923625E+03  0.00000000000E+00 0. -1.
         -3    1    3    3    0  502  0.10100005068E+03  0.13865775716E+03 -0.16066110527E+03  0.23502973133E+03  0.00000000000E+00 0.  1.
         13    1    5    5    0    0  0.12672593820E+02 -0.19449059831E+02  0.20199600876E+03  0.20332547336E+03  0.00000000000E+00 0.  1.
        -13    1    5    5    0    0 -0.16897839293E+02  0.24029810791E+02  0.91928562780E+01  0.30781120609E+02  0.00000000000E+00 0. -1.
          3    1    6    6  503    0 -0.25592630563E+02 -0.32537390439E+02 -0.39917629507E+02  0.57507231382E+02  0.00000000000E+00 0. -1.
         -3    1    6    6    0  503 -0.24348182892E+03 -0.25060040399E+03 -0.82267579796E+03  0.89380055496E+03  0.00000000000E+00 0.  1.
<mgrwt>
<rscale>  0 0.14110355E+04</rscale>
<asrwt>0</asrwt>
<pdfrwt beam="1">  1        2 0.22569468E+00 0.14110355E+04</pdfrwt>
<pdfrwt beam="2">  1       -1 0.52199681E-01 0.14110355E+04</pdfrwt>
<totfact> 0.54277633E+01</totfact>
</mgrwt>
</event>
<event>
12    7  0.1675873E-007  0.2079301E+04  0.7818608E-02  0.8570417E-01
          2   -1    0    0  501    0  0.00000000000E+00  0.00000000000E+00  0.35928628391E+04  0.35928628391E+04  0.00000000000E+00 0. -1.
         -1   -1    0    0    0  501 -0.00000000000E+00 -0.00000000000E+00 -0.30083900473E+03  0.30083900473E+03  0.00000000000E+00 0.  1.
         24    2    1    2    0    0 -0.21910383988E+03  0.56184050295E+03  0.23373885227E+04  0.24152400479E+04  0.79549602927E+02 0.  0.
        254    2    1    2    0    0  0.21910383988E+03 -0.56184050295E+03  0.95463531166E+03  0.14784617960E+04  0.95438433581E+03 0.  0.
         23    2    4    4    0    0 -0.14105292504E+03 -0.60887557889E+03  0.90133031144E+03  0.11006867863E+04  0.92139421265E+02 0.  0.
         23    2    4    4    0    0  0.36015676492E+03  0.47035075941E+02  0.53305000216E+02  0.37777500967E+03  0.89147861406E+02 0.  0.
          2    1    3    3  502    0 -0.88221244924E+02  0.28277378518E+03  0.10105566846E+04  0.10530758826E+04  0.00000000000E+00 0. -1.
         -1    1    3    3    0  502 -0.13088259496E+03  0.27906671778E+03  0.13268318381E+04  0.13621641653E+04  0.00000000000E+00 0.  1.
         13    1    5    5    0    0  0.71496867209E+01 -0.13589818712E+03  0.19088487585E+03  0.23442796572E+03  0.00000000000E+00 0. -1.
        -13    1    5    5    0    0 -0.14820261176E+03 -0.47297739177E+03  0.71044543559E+03  0.86625882057E+03  0.00000000000E+00 0.  1.
          2    1    6    6  503    0  0.15930192452E+03  0.38833427975E+02 -0.16924714832E+02  0.16483805464E+03  0.00000000000E+00 0. -1.
         -2    1    6    6    0  503  0.20085484040E+03  0.82016479660E+01  0.70229715047E+02  0.21293695503E+03  0.00000000000E+00 0.  1.
<mgrwt>
<rscale>  0 0.20793011E+04</rscale>
<asrwt>0</asrwt>
<pdfrwt beam="1">  1        2 0.55274810E+00 0.20793011E+04</pdfrwt>
<pdfrwt beam="2">  1       -1 0.46282926E-01 0.20793011E+04</pdfrwt>
<totfact> 0.34283771E+00</totfact>
</mgrwt>
</event>
<event>
12    7  0.1675873E-007  0.2165983E+04  0.7818608E-02  0.8532722E-01
         -1   -1    0    0    0  501 -0.00000000000E+00  0.00000000000E+00  0.70080313654E+03  0.70080313654E+03  0.00000000000E+00 0.  1.
          2   -1    0    0  501    0  0.00000000000E+00 -0.00000000000E+00 -0.16736086603E+04  0.16736086603E+04  0.00000000000E+00 0. -1.
         24    2    1    2    0    0 -0.17099325938E+03  0.27363120886E+03  0.51236721065E+03  0.61072852072E+03  0.79727249164E+02 0.  0.
        254    2    1    2    0    0  0.17099325938E+03 -0.27363120886E+03 -0.14851727344E+04  0.17636832761E+04  0.89483401487E+03 0.  0.
         23    2    4    4    0    0  0.25047030323E+03  0.20767100066E+03 -0.10486103148E+04  0.11025587167E+04  0.10094312320E+03 0.  0.
         23    2    4    4    0    0 -0.79477043854E+02 -0.48130220952E+03 -0.43656241963E+03  0.66112455944E+03  0.92360811334E+02 0.  0.
          2    1    3    3  502    0  0.61286529523E+01 -0.65577687755E-01  0.12885841524E+02  0.14269183552E+02  0.00000000000E+00 0. -1.
         -1    1    3    3    0  502 -0.17712191233E+03  0.27369678655E+03  0.49948136913E+03  0.59645933717E+03  0.00000000000E+00 0.  1.
         13    1    5    5    0    0 -0.27717963585E+01  0.32305576686E+02 -0.89099619894E+02  0.94816008170E+02  0.00000000000E+00 0.  1.
        -13    1    5    5    0    0  0.25324209959E+03  0.17536542397E+03 -0.95951069489E+03  0.10077427085E+04  0.00000000000E+00 0. -1.
          3    1    6    6  503    0 -0.95641906785E+02 -0.39504363157E+03 -0.33354550452E+03  0.52579411252E+03  0.00000000000E+00 0. -1.
         -3    1    6    6    0  503  0.16164862931E+02 -0.86258577951E+02 -0.10301691512E+03  0.13533044692E+03  0.00000000000E+00 0.  1.
<mgrwt>
<rscale>  0 0.21659826E+04</rscale>
<asrwt>0</asrwt>
<pdfrwt beam="1">  1        2 0.25747825E+00 0.21659826E+04</pdfrwt>
<pdfrwt beam="2">  1       -1 0.10781587E+00 0.21659826E+04</pdfrwt>
<totfact> 0.84733710E+00</totfact>
</mgrwt>
</event>
<event>
12    7  0.1675873E-007  0.1941153E+04  0.7818608E-02  0.8634639E-01
          2   -1    0    0  501    0  0.00000000000E+00  0.00000000000E+00  0.21361221859E+04  0.21361221859E+04  0.00000000000E+00 0. -1.
         -1   -1    0    0    0  501 -0.00000000000E+00 -0.00000000000E+00 -0.44099487169E+03  0.44099487169E+03  0.00000000000E+00 0.  1.
         24    2    1    2    0    0  0.57386091129E+03  0.23482711759E+03  0.12573892433E+04  0.14042316114E+04  0.79866066928E+02 0.  0.
        254    2    1    2    0    0 -0.57386091129E+03 -0.23482711759E+03  0.43773807086E+03  0.11728854461E+04  0.89419546543E+03 0.  0.
         23    2    4    4    0    0 -0.42547966562E+03  0.81587084891E+02 -0.16313904558E+03  0.47166213696E+03  0.90340605302E+02 0.  0.
         23    2    4    4    0    0 -0.14838124567E+03 -0.31641420248E+03  0.60087711644E+03  0.70122330918E+03  0.92335684702E+02 0.  0.
          4    1    3    3  502    0  0.25571499701E+03  0.13880102450E+03  0.64168872063E+03  0.70457100301E+03  0.00000000000E+00 0. -1.
         -3    1    3    3    0  502  0.31814591428E+03  0.96026093087E+02  0.61570052269E+03  0.69966060842E+03  0.00000000000E+00 0.  1.
         13    1    5    5    0    0 -0.10670071483E+03  0.71302163778E+01 -0.81008690400E+02  0.13415770738E+03  0.00000000000E+00 0.  1.
        -13    1    5    5    0    0 -0.31877895080E+03  0.74456868513E+02 -0.82130355180E+02  0.33750442957E+03  0.00000000000E+00 0. -1.
          2    1    6    6  503    0 -0.44793933173E+02 -0.19809207631E+03  0.31108845207E+03  0.37151445753E+03  0.00000000000E+00 0. -1.
         -2    1    6    6    0  503 -0.10358731250E+03 -0.11832212617E+03  0.28978866438E+03  0.32970885164E+03  0.00000000000E+00 0.  1.
<mgrwt>
<rscale>  0 0.19411532E+04</rscale>
<asrwt>0</asrwt>
<pdfrwt beam="1">  1        2 0.32863418E+00 0.19411532E+04</pdfrwt>
<pdfrwt beam="2">  1       -1 0.67845366E-01 0.19411532E+04</pdfrwt>
<totfact> 0.13112958E+01</totfact>
</mgrwt>
</event>
<event>
12    7  0.1675873E-007  0.1536330E+04  0.7818608E-02  0.8860647E-01
          2   -1    0    0  501    0  0.00000000000E+00  0.00000000000E+00  0.20293613544E+04  0.20293613544E+04  0.00000000000E+00 0. -1.
         -1   -1    0    0    0  501 -0.00000000000E+00 -0.00000000000E+00 -0.29077000428E+03  0.29077000428E+03  0.00000000000E+00 0.  1.
         24    2    1    2    0    0 -0.15834891735E+03 -0.35884530644E+03  0.42341716730E+03  0.58246416793E+03  0.78345872762E+02 0.  0.
        254    2    1    2    0    0  0.15834891735E+03  0.35884530644E+03  0.13151741828E+04  0.17376671907E+04  0.10658141494E+04 0.  0.
         23    2    4    4    0    0  0.39896547561E+03  0.24897093665E+03  0.98249975842E+02  0.48919561079E+03  0.92191701588E+02 0.  0.
         23    2    4    4    0    0 -0.24061655826E+03  0.10987436980E+03  0.12169242070E+04  0.12484715799E+04  0.88363200275E+02 0.  0.
          2    1    3    3  502    0 -0.77639815107E+02 -0.18657322686E+03  0.27453339019E+03  0.34089014683E+03  0.00000000000E+00 0. -1.
         -1    1    3    3    0  502 -0.80709102242E+02 -0.17227207958E+03  0.14888377710E+03  0.24157402110E+03  0.00000000000E+00 0.  1.
         13    1    5    5    0    0  0.90667831710E+02  0.82396015227E+02 -0.86852156017E+01  0.12282178961E+03  0.00000000000E+00 0. -1.
        -13    1    5    5    0    0  0.30829764390E+03  0.16657492142E+03  0.10693519144E+03  0.36637382119E+03  0.00000000000E+00 0.  1.
          4    1    6    6  503    0 -0.21061376074E+02  0.31545724515E+02  0.29962217220E+03  0.30201351025E+03  0.00000000000E+00 0. -1.
         -4    1    6    6    0  503 -0.21955518219E+03  0.78328645280E+02  0.91730203475E+03  0.94645806968E+03  0.00000000000E+00 0.  1.
<mgrwt>
<rscale>  0 0.15363299E+04</rscale>
<asrwt>0</asrwt>
<pdfrwt beam="1">  1        2 0.31220943E+00 0.15363299E+04</pdfrwt>
<pdfrwt beam="2">  1       -1 0.44733848E-01 0.15363299E+04</pdfrwt>
<totfact> 0.34984650E+01</totfact>
</mgrwt>
</event>
<event>
12    7  0.1675873E-007  0.1516713E+04  0.7818608E-02  0.8873414E-01
          2   -1    0    0  501    0  0.00000000000E+00  0.00000000000E+00  0.18389104621E+04  0.18389104621E+04  0.00000000000E+00 0. -1.
         -1   -1    0    0    0  501 -0.00000000000E+00 -0.00000000000E+00 -0.31274210839E+03  0.31274210839E+03  0.00000000000E+00 0.  1.
         24    2    1    2    0    0  0.22045022874E+03 -0.75324241406E+01  0.11502591056E+04  0.11738863347E+04  0.79108001423E+02 0.  0.
        254    2    1    2    0    0 -0.22045022874E+03  0.75324241406E+01  0.37590924810E+03  0.97776623582E+03  0.87525082596E+03 0.  0.
         23    2    4    4    0    0 -0.31311327736E+02  0.42432762238E+03  0.20566067412E+03  0.48093795837E+03  0.89278645623E+02 0.  0.
         23    2    4    4    0    0 -0.18913890100E+03 -0.41679519823E+03  0.17024857397E+03  0.49682827745E+03  0.91443967506E+02 0.  0.
          4    1    3    3  502    0  0.13220379233E+03  0.33909454987E+02  0.63864036716E+03  0.65306141550E+03  0.00000000000E+00 0. -1.
         -1    1    3    3    0  502  0.88246436409E+02 -0.41441879127E+02  0.51161873848E+03  0.52082491919E+03  0.00000000000E+00 0.  1.
         13    1    5    5    0    0 -0.53425750408E+02  0.35645694395E+03  0.19154457546E+03  0.40817298794E+03  0.00000000000E+00 0.  1.
        -13    1    5    5    0    0  0.22114422673E+02  0.67870678424E+02  0.14116098666E+02  0.72764970428E+02  0.00000000000E+00 0. -1.
          4    1    6    6  503    0 -0.15470013095E+03 -0.23890781749E+03  0.11928943460E+03  0.30860823868E+03  0.00000000000E+00 0. -1.
         -4    1    6    6    0  503 -0.34438770058E+02 -0.17788738074E+03  0.50959139375E+02  0.18822003878E+03  0.00000000000E+00 0.  1.
<mgrwt>
<rscale>  0 0.15167132E+04</rscale>
<asrwt>0</asrwt>
<pdfrwt beam="1">  1        2 0.28290929E+00 0.15167132E+04</pdfrwt>
<pdfrwt beam="2">  1       -1 0.48114172E-01 0.15167132E+04</pdfrwt>
<totfact> 0.38973047E+01</totfact>
</mgrwt>
</event>
<event>
12    7  0.1675873E-007  0.1750299E+04  0.7818608E-02  0.8733186E-01
          2   -1    0    0  501    0  0.00000000000E+00  0.00000000000E+00  0.48671723827E+03  0.48671723827E+03  0.00000000000E+00 0. -1.
         -1   -1    0    0    0  501 -0.00000000000E+00 -0.00000000000E+00 -0.15735759599E+04  0.15735759599E+04  0.00000000000E+00 0.  1.
         24    2    1    2    0    0  0.13819227195E+03 -0.59079242926E+03 -0.13525878749E+03  0.62681748376E+03  0.80451350896E+02 0.  0.
        254    2    1    2    0    0 -0.13819227195E+03  0.59079242926E+03 -0.95159993417E+03  0.14334757144E+04  0.88384240151E+03 0.  0.
         23    2    4    4    0    0 -0.25018421802E+03  0.77653459891E+03 -0.62222667254E+03  0.10294202177E+04  0.83317623191E+02 0.  0.
         23    2    4    4    0    0  0.11199194607E+03 -0.18574216965E+03 -0.32937326163E+03  0.40405549675E+03  0.87930366806E+02 0.  0.
          4    1    3    3  502    0  0.98441309173E+02 -0.39873469275E+03 -0.12937170319E+03  0.43060084085E+03  0.00000000000E+00 0. -1.
         -3    1    3    3    0  502  0.39750962780E+02 -0.19205773651E+03 -0.58870843009E+01  0.19621664291E+03  0.00000000000E+00 0.  1.
         13    1    5    5    0    0 -0.23794007051E+03  0.77039566025E+03 -0.60986695522E+03  0.10109711438E+04  0.00000000000E+00 0. -1.
        -13    1    5    5    0    0 -0.12244147509E+02  0.61389386546E+01 -0.12359717327E+02  0.18449073918E+02  0.00000000000E+00 0.  1.
          4    1    6    6  503    0  0.36145647353E+02 -0.13534295256E+03 -0.22969296774E+03  0.26904104159E+03  0.00000000000E+00 0. -1.
         -4    1    6    6    0  503  0.75846298718E+02 -0.50399217089E+02 -0.99680293889E+02  0.13501445516E+03  0.00000000000E+00 0.  1.
<mgrwt>
<rscale>  0 0.17502989E+04</rscale>
<asrwt>0</asrwt>
<pdfrwt beam="1">  1        2 0.74879576E-01 0.17502989E+04</pdfrwt>
<pdfrwt beam="2">  1       -1 0.24208861E+00 0.17502989E+04</pdfrwt>
<totfact> 0.54069471E+00</totfact>
</mgrwt>
</event>
<event>
12    7  0.1675873E-007  0.1931489E+04  0.7818608E-02  0.8639339E-01
          2   -1    0    0  501    0  0.00000000000E+00  0.00000000000E+00  0.32666026231E+04  0.32666026231E+04  0.00000000000E+00 0. -1.
         -1   -1    0    0    0  501 -0.00000000000E+00 -0.00000000000E+00 -0.28551456482E+03  0.28551456482E+03  0.00000000000E+00 0.  1.
         24    2    1    2    0    0 -0.64311612614E+03  0.11166463954E+03  0.48315345377E+03  0.81622708436E+03  0.81988108461E+02 0.  0.
        254    2    1    2    0    0  0.64311612614E+03 -0.11166463954E+03  0.24979346046E+04  0.27358901036E+04  0.90517955505E+03 0.  0.
         23    2    4    4    0    0  0.37509615998E+03 -0.27396590240E+02  0.23308421694E+03  0.45189049671E+03  0.91809947419E+02 0.  0.
         23    2    4    4    0    0  0.26801996617E+03 -0.84268049302E+02  0.22648503876E+04  0.22839996069E+04  0.90394245238E+02 0.  0.
          4    1    3    3  502    0 -0.43178146580E+03  0.97880381289E+02  0.28745651379E+03  0.52787029711E+03  0.00000000000E+00 0. -1.
         -3    1    3    3    0  502 -0.21133466034E+03  0.13784258253E+02  0.19569693998E+03  0.28835678725E+03  0.00000000000E+00 0.  1.
         13    1    5    5    0    0  0.63517179486E+02  0.19580721741E+02  0.13494540186E+02  0.67822852849E+02  0.00000000000E+00 0.  1.
        -13    1    5    5    0    0  0.31157898049E+03 -0.46977311981E+02  0.21958967675E+03  0.38406764386E+03  0.00000000000E+00 0. -1.
          1    1    6    6  503    0  0.18246684928E+03 -0.65340720850E+02  0.18418648030E+04  0.18520338856E+04  0.00000000000E+00 0. -1.
         -1    1    6    6    0  503  0.85553116882E+02 -0.18927328451E+02  0.42298558460E+03  0.43196572127E+03  0.00000000000E+00 0.  1.
<mgrwt>
<rscale>  0 0.19314892E+04</rscale>
<asrwt>0</asrwt>
<pdfrwt beam="1">  1        2 0.50255423E+00 0.19314892E+04</pdfrwt>
<pdfrwt beam="2">  1       -1 0.43925320E-01 0.19314892E+04</pdfrwt>
<totfact> 0.64162938E+00</totfact>
</mgrwt>
</event>
<event>
12    7  0.1675873E-007  0.1412487E+04  0.7818608E-02  0.8944829E-01
         -1   -1    0    0    0  501 -0.00000000000E+00  0.00000000000E+00  0.40770434480E+03  0.40770434480E+03  0.00000000000E+00 0.  1.
          2   -1    0    0  501    0  0.00000000000E+00 -0.00000000000E+00 -0.12233862006E+04  0.12233862006E+04  0.00000000000E+00 0. -1.
         24    2    1    2    0    0  0.10400909312E+03 -0.93680826312E+02  0.20395818920E+03  0.25980039544E+03  0.79393411937E+02 0.  0.
        254    2    1    2    0    0 -0.10400909312E+03  0.93680826312E+02 -0.10196400450E+04  0.13712901499E+04  0.90618809599E+03 0.  0.
         23    2    4    4    0    0  0.38099461089E+03 -0.67388288077E+02 -0.43256731321E+03  0.58770569313E+03  0.92657575986E+02 0.  0.
         23    2    4    4    0    0 -0.48500370401E+03  0.16106911439E+03 -0.58707273179E+03  0.78358445681E+03  0.90434263607E+02 0.  0.
          2    1    3    3  502    0  0.54464768304E+01 -0.35088297275E+02  0.95822791987E+02  0.10219031353E+03  0.00000000000E+00 0. -1.
         -1    1    3    3    0  502  0.98562616291E+02 -0.58592529037E+02  0.10813539722E+03  0.15761008191E+03  0.00000000000E+00 0.  1.
         13    1    5    5    0    0  0.34341332037E+03 -0.52560594699E+02 -0.33726279909E+03  0.48419161535E+03  0.00000000000E+00 0. -1.
        -13    1    5    5    0    0  0.37581290517E+02 -0.14827693378E+02 -0.95304514124E+02  0.10351407779E+03  0.00000000000E+00 0.  1.
          2    1    6    6  503    0 -0.96528363213E+02  0.36481418873E+02 -0.68873497214E+02  0.12406521449E+03  0.00000000000E+00 0.  1.
         -2    1    6    6    0  503 -0.38847534080E+03  0.12458769552E+03 -0.51819923457E+03  0.65951924232E+03  0.00000000000E+00 0. -1.
<mgrwt>
<rscale>  0 0.14124870E+04</rscale>
<asrwt>0</asrwt>
<pdfrwt beam="1">  1        2 0.18821326E+00 0.14124870E+04</pdfrwt>
<pdfrwt beam="2">  1       -1 0.62723745E-01 0.14124870E+04</pdfrwt>
<totfact> 0.52427464E+01</totfact>
</mgrwt>
</event>
<event>
12    7  0.1675873E-007  0.1881225E+04  0.7818608E-02  0.8664259E-01
          2   -1    0    0  501    0  0.00000000000E+00  0.00000000000E+00  0.69258242452E+03  0.69258242452E+03  0.00000000000E+00 0. -1.
         -1   -1    0    0    0  501 -0.00000000000E+00 -0.00000000000E+00 -0.12774684643E+04  0.12774684643E+04  0.00000000000E+00 0.  1.
         24    2    1    2    0    0 -0.64813464062E+03 -0.30648919713E+03 -0.17589220104E+03  0.74225783003E+03  0.77424024244E+02 0.  0.
        254    2    1    2    0    0  0.64813464062E+03  0.30648919713E+03 -0.40899383873E+03  0.12277930588E+04  0.90894757536E+03 0.  0.
         23    2    4    4    0    0  0.67631699571E+03  0.53238310255E+03 -0.45664109207E+03  0.97838374643E+03  0.88753713906E+02 0.  0.
         23    2    4    4    0    0 -0.28182355094E+02 -0.22589390542E+03  0.47647253346E+02  0.24940931236E+03  0.90069099557E+02 0.  0.
          4    1    3    3  502    0 -0.59373923993E+03 -0.25577310629E+03 -0.16373946003E+03  0.66690087547E+03  0.00000000000E+00 0. -1.
         -3    1    3    3    0  502 -0.54395400686E+02 -0.50716090847E+02 -0.12152741007E+02  0.75356954560E+02  0.00000000000E+00 0.  1.
         13    1    5    5    0    0  0.39579646933E+03  0.36534354594E+03 -0.29333055958E+03  0.61332990215E+03  0.00000000000E+00 0.  1.
        -13    1    5    5    0    0  0.28052052638E+03  0.16703955661E+03 -0.16331053250E+03  0.36505384427E+03  0.00000000000E+00 0. -1.
          2    1    6    6  503    0  0.26419116745E+02 -0.10713573750E+03  0.43573912145E+02  0.11863693269E+03  0.00000000000E+00 0.  1.
         -2    1    6    6    0  503 -0.54601471839E+02 -0.11875816792E+03  0.40733412011E+01  0.13077237966E+03  0.00000000000E+00 0. -1.
<mgrwt>
<rscale>  0 0.18812254E+04</rscale>
<asrwt>0</asrwt>
<pdfrwt beam="1">  1        2 0.10655114E+00 0.18812254E+04</pdfrwt>
<pdfrwt beam="2">  1       -1 0.19653361E+00 0.18812254E+04</pdfrwt>
<totfact> 0.70733206E+00</totfact>
</mgrwt>
</event>
<event>
12    7  0.1675873E-007  0.2189727E+04  0.7818608E-02  0.8522716E-01
         -1   -1    0    0    0  501 -0.00000000000E+00  0.00000000000E+00  0.44657045908E+03  0.44657045908E+03  0.00000000000E+00 0.  1.
          2   -1    0    0  501    0  0.00000000000E+00 -0.00000000000E+00 -0.26842941985E+04  0.26842941985E+04  0.00000000000E+00 0. -1.
         24    2    1    2    0    0 -0.26231518866E+03 -0.61111273574E+03 -0.18303158277E+04  0.19489963128E+04  0.79136364469E+02 0.  0.
        254    2    1    2    0    0  0.26231518866E+03  0.61111273574E+03 -0.40740791172E+03  0.11818683448E+04  0.88801100435E+03 0.  0.
         23    2    4    4    0    0 -0.27279655406E+03  0.33528600678E+03 -0.36134909628E+03  0.57142860999E+03  0.95513458083E+02 0.  0.
         23    2    4    4    0    0  0.53511174272E+03  0.27582672896E+03 -0.46058815437E+02  0.61043973478E+03  0.89946060031E+02 0.  0.
          4    1    3    3  502    0 -0.22027336633E+03 -0.56916943167E+03 -0.16625956849E+04  0.17710727284E+04  0.00000000000E+00 0. -1.
         -3    1    3    3    0  502 -0.42041822328E+02 -0.41943304071E+02 -0.16772014277E+03  0.17792358436E+03  0.00000000000E+00 0.  1.
         13    1    5    5    0    0 -0.53234342484E+02  0.82035541802E+02 -0.35702949399E+02  0.10410776116E+03  0.00000000000E+00 0.  1.
        -13    1    5    5    0    0 -0.21956221158E+03  0.25325046498E+03 -0.32564614688E+03  0.46732084883E+03  0.00000000000E+00 0. -1.
          2    1    6    6  503    0  0.40831849307E+03  0.25137581079E+03 -0.32311406980E+02  0.48058070816E+03  0.00000000000E+00 0. -1.
         -2    1    6    6    0  503  0.12679324965E+03  0.24450918169E+02 -0.13747408457E+02  0.12985902662E+03  0.00000000000E+00 0.  1.
<mgrwt>
<rscale>  0 0.21897274E+04</rscale>
<asrwt>0</asrwt>
<pdfrwt beam="1">  1        2 0.41296832E+00 0.21897274E+04</pdfrwt>
<pdfrwt beam="2">  1       -1 0.68703150E-01 0.21897274E+04</pdfrwt>
<totfact> 0.60583534E+00</totfact>
</mgrwt>
</event>
<event>
12    7  0.1675873E-007  0.1842357E+04  0.7818608E-02  0.8684093E-01
         -1   -1    0    0    0  501 -0.00000000000E+00  0.00000000000E+00  0.41904633567E+03  0.41904633567E+03  0.00000000000E+00 0.  1.
          2   -1    0    0  501    0  0.00000000000E+00 -0.00000000000E+00 -0.20250024332E+04  0.20250024332E+04  0.00000000000E+00 0. -1.
         24    2    1    2    0    0  0.28064931867E+03 -0.12277662867E+03 -0.14463982660E+04  0.14806035281E+04  0.79251012125E+02 0.  0.
        254    2    1    2    0    0 -0.28064931867E+03  0.12277662867E+03 -0.15955783152E+03  0.96344524076E+03  0.89940529781E+03 0.  0.
         23    2    4    4    0    0 -0.79576746659E+02 -0.14061316087E+03 -0.46672842045E+03  0.50262997392E+03  0.93257453373E+02 0.  0.
         23    2    4    4    0    0 -0.20107257201E+03  0.26338978954E+03  0.30717058893E+03  0.46081526684E+03  0.90512866504E+02 0.  0.
          2    1    3    3  502    0  0.20617958573E+03 -0.78540693624E+02 -0.11808755825E+04  0.12013100364E+04  0.00000000000E+00 0. -1.
         -1    1    3    3    0  502  0.74469732935E+02 -0.44235935045E+02 -0.26552268347E+03  0.27929349171E+03  0.00000000000E+00 0.  1.
         13    1    5    5    0    0 -0.40684384574E+02 -0.14147163109E+03 -0.38263596755E+03  0.40997527391E+03  0.00000000000E+00 0.  1.
        -13    1    5    5    0    0 -0.38892362086E+02  0.85847022755E+00 -0.84092452900E+02  0.92654700013E+02  0.00000000000E+00 0. -1.
          3    1    6    6  503    0  0.26944635788E+01 -0.54944194916E+01  0.60652106208E+01  0.86160060006E+01  0.00000000000E+00 0. -1.
         -3    1    6    6    0  503 -0.20376703559E+03  0.26888420903E+03  0.30110537831E+03  0.45219926084E+03  0.00000000000E+00 0.  1.
<mgrwt>
<rscale>  0 0.18423570E+04</rscale>
<asrwt>0</asrwt>
<pdfrwt beam="1">  1        2 0.31153883E+00 0.18423570E+04</pdfrwt>
<pdfrwt beam="2">  1       -1 0.64468668E-01 0.18423570E+04</pdfrwt>
<totfact> 0.16914037E+01</totfact>
</mgrwt>
</event>
<event>
12    7  0.1675873E-007  0.1290036E+04  0.7818608E-02  0.9037504E-01
          2   -1    0    0  501    0  0.00000000000E+00  0.00000000000E+00  0.34507002912E+03  0.34507002912E+03  0.00000000000E+00 0. -1.
         -1   -1    0    0    0  501 -0.00000000000E+00 -0.00000000000E+00 -0.12056917783E+04  0.12056917783E+04  0.00000000000E+00 0.  1.
         24    2    1    2    0    0  0.17101290992E+03  0.52395711292E+02  0.98262239098E+02  0.22027317812E+03  0.82910068412E+02 0.  0.
        254    2    1    2    0    0 -0.17101290992E+03 -0.52395711292E+02 -0.95888398825E+03  0.13304886293E+04  0.90484847560E+03 0.  0.
         23    2    4    4    0    0  0.34419992562E+03  0.11277454222E+03 -0.40727492987E+03  0.55244279889E+03  0.90158146471E+02 0.  0.
         23    2    4    4    0    0 -0.51521283554E+03 -0.16517025351E+03 -0.55160905838E+03  0.77804583039E+03  0.91418172937E+02 0.  0.
          2    1    3    3  502    0  0.17773872923E+03  0.56383702173E+02  0.85111736246E+02  0.20497362120E+03  0.00000000000E+00 0. -1.
         -1    1    3    3    0  502 -0.67258193123E+01 -0.39879908813E+01  0.13150502851E+02  0.15299556919E+02  0.00000000000E+00 0.  1.
         13    1    5    5    0    0  0.34542555542E+02 -0.12202631844E+02 -0.62649177185E+02  0.72574181147E+02  0.00000000000E+00 0. -1.
        -13    1    5    5    0    0  0.30965737008E+03  0.12497717406E+03 -0.34462575268E+03  0.47986861774E+03  0.00000000000E+00 0.  1.
          3    1    6    6  503    0 -0.12869254785E+03 -0.26376704763E+01 -0.11341105167E+03  0.17155406092E+03  0.00000000000E+00 0. -1.
         -3    1    6    6    0  503 -0.38652028769E+03 -0.16253258303E+03 -0.43819800671E+03  0.60649176946E+03  0.00000000000E+00 0.  1.
<mgrwt>
<rscale>  0 0.12900358E+04</rscale>
<asrwt>0</asrwt>
<pdfrwt beam="1">  1        2 0.53087696E-01 0.12900358E+04</pdfrwt>
<pdfrwt beam="2">  1       -1 0.18549104E+00 0.12900358E+04</pdfrwt>
<totfact> 0.20048714E+01</totfact>
</mgrwt>
</event>
<event>
12    7  0.1675873E-007  0.1289236E+04  0.7818608E-02  0.9038145E-01
         -1   -1    0    0    0  501 -0.00000000000E+00  0.00000000000E+00  0.69473041222E+03  0.69473041222E+03  0.00000000000E+00 0.  1.
          2   -1    0    0  501    0  0.00000000000E+00 -0.00000000000E+00 -0.59811988459E+03  0.59811988459E+03  0.00000000000E+00 0. -1.
         24    2    1    2    0    0  0.18025489650E+03 -0.20444801113E+03 -0.16299338797E+03  0.32746123580E+03  0.79832320916E+02 0.  0.
        254    2    1    2    0    0 -0.18025489650E+03  0.20444801113E+03  0.25960391560E+03  0.96538906101E+03  0.88898314334E+03 0.  0.
         23    2    4    4    0    0 -0.40714053014E+02  0.10028108330E+03 -0.32192635580E+03  0.35166198171E+03  0.91190136725E+02 0.  0.
         23    2    4    4    0    0 -0.13954084349E+03  0.10416692783E+03  0.58153027140E+03  0.61372707930E+03  0.90338670886E+02 0.  0.
          4    1    3    3  502    0  0.16969158624E+03 -0.18519696190E+03 -0.17124499511E+03  0.30400328532E+03  0.00000000000E+00 0. -1.
         -3    1    3    3    0  502  0.10563310265E+02 -0.19251049233E+02  0.82516071414E+01  0.23457950480E+02  0.00000000000E+00 0.  1.
         13    1    5    5    0    0 -0.30846548432E+02  0.54342457012E+02 -0.63833844116E+02  0.89327329743E+02  0.00000000000E+00 0. -1.
        -13    1    5    5    0    0 -0.98675045821E+01  0.45938626289E+02 -0.25809251169E+03  0.26233465196E+03  0.00000000000E+00 0.  1.
          2    1    6    6  503    0 -0.33941822703E+01 -0.14911508692E+02  0.46475209138E+02  0.48926665830E+02  0.00000000000E+00 0. -1.
         -2    1    6    6    0  503 -0.13614666122E+03  0.11907843652E+03  0.53505506226E+03  0.56480041347E+03  0.00000000000E+00 0.  1.
<mgrwt>
<rscale>  0 0.12892355E+04</rscale>
<asrwt>0</asrwt>
<pdfrwt beam="1">  1        2 0.92018443E-01 0.12892355E+04</pdfrwt>
<pdfrwt beam="2">  1       -1 0.10688160E+00 0.12892355E+04</pdfrwt>
<totfact> 0.45602891E+01</totfact>
</mgrwt>
</event>
<event>
12    7  0.1675873E-007  0.1148947E+04  0.7818608E-02  0.9158756E-01
          2   -1    0    0  501    0  0.00000000000E+00  0.00000000000E+00  0.26434494025E+04  0.26434494025E+04  0.00000000000E+00 0. -1.
         -1   -1    0    0    0  501 -0.00000000000E+00 -0.00000000000E+00 -0.12484435251E+03  0.12484435251E+03  0.00000000000E+00 0.  1.
         24    2    1    2    0    0 -0.26288264404E+02  0.14744390741E+03  0.84039763977E+03  0.85750446164E+03  0.81332220693E+02 0.  0.
        254    2    1    2    0    0  0.26288264404E+02 -0.14744390741E+03  0.16782074102E+04  0.19107892933E+04  0.90127955332E+03 0.  0.
         23    2    4    4    0    0  0.13977866938E+01 -0.19867238062E+03  0.17639703340E+04  0.17773236731E+04  0.88404926113E+02 0.  0.
         23    2    4    4    0    0  0.24890477710E+02  0.51228473215E+02 -0.85762923835E+02  0.13346562025E+03  0.84934682762E+02 0.  0.
          4    1    3    3  502    0 -0.53380473662E+02  0.68093590341E+02  0.43790545993E+03  0.44637137437E+03  0.00000000000E+00 0. -1.
         -3    1    3    3    0  502  0.27092209258E+02  0.79350317066E+02  0.40249217984E+03  0.41113308727E+03  0.00000000000E+00 0.  1.
         13    1    5    5    0    0  0.33989500077E+01 -0.20784302072E+03  0.16706639707E+04  0.16835463691E+04  0.00000000000E+00 0.  1.
        -13    1    5    5    0    0 -0.20011633139E+01  0.91706400942E+01  0.93306363372E+02  0.93777303971E+02  0.00000000000E+00 0. -1.
          1    1    6    6  503    0 -0.30748520424E+02  0.80528451580E+01 -0.28651917002E+02  0.42793132291E+02  0.00000000000E+00 0. -1.
         -1    1    6    6    0  503  0.55638998134E+02  0.43175628057E+02 -0.57111006832E+02  0.90672487960E+02  0.00000000000E+00 0.  1.
<mgrwt>
<rscale>  0 0.11489469E+04</rscale>
<asrwt>0</asrwt>
<pdfrwt beam="1">  1        2 0.40668448E+00 0.11489469E+04</pdfrwt>
<pdfrwt beam="2">  1       -1 0.19206825E-01 0.11489469E+04</pdfrwt>
<totfact> 0.71501173E+01</totfact>
</mgrwt>
</event>
<event>
12    7  0.1675873E-007  0.1299627E+04  0.7818608E-02  0.9029861E-01
          2   -1    0    0  501    0  0.00000000000E+00  0.00000000000E+00  0.12123707173E+04  0.12123707173E+04  0.00000000000E+00 0. -1.
         -1   -1    0    0    0  501 -0.00000000000E+00 -0.00000000000E+00 -0.34829056914E+03  0.34829056914E+03  0.00000000000E+00 0.  1.
         24    2    1    2    0    0 -0.18437630547E+03 -0.18864586776E+03 -0.24664308132E+02  0.27689503609E+03  0.80502468750E+02 0.  0.
        254    2    1    2    0    0  0.18437630547E+03  0.18864586776E+03  0.88874445624E+03  0.12837662503E+04  0.88803558009E+03 0.  0.
         23    2    4    4    0    0  0.34620377854E+03 -0.33207639751E+02  0.11533352231E+02  0.35984075071E+03  0.91610829298E+02 0.  0.
         23    2    4    4    0    0 -0.16182747307E+03  0.22185350751E+03  0.87721110401E+03  0.92392549961E+03  0.93444625231E+02 0.  0.
          2    1    3    3  502    0 -0.36208750515E+02 -0.50348155450E+02  0.27144268877E+02  0.67696541300E+02  0.00000000000E+00 0. -1.
         -1    1    3    3    0  502 -0.14816755495E+03 -0.13829771231E+03 -0.51808577009E+02  0.20919849479E+03  0.00000000000E+00 0.  1.
         13    1    5    5    0    0  0.34663413399E+03 -0.30349241176E+02  0.22318231869E+02  0.34867521100E+03  0.00000000000E+00 0.  1.
        -13    1    5    5    0    0 -0.43035545701E+00 -0.28583985749E+01 -0.10784879638E+02  0.11165539711E+02  0.00000000000E+00 0. -1.
          2    1    6    6  503    0 -0.16392895317E+03  0.21199688690E+03  0.87263583111E+03  0.91285742341E+03  0.00000000000E+00 0.  1.
         -2    1    6    6    0  503  0.21014801049E+01  0.98566206100E+01  0.45752729038E+01  0.11068076193E+02  0.00000000000E+00 0. -1.
<mgrwt>
<rscale>  0 0.12996265E+04</rscale>
<asrwt>0</asrwt>
<pdfrwt beam="1">  1        2 0.18651857E+00 0.12996265E+04</pdfrwt>
<pdfrwt beam="2">  1       -1 0.53583165E-01 0.12996265E+04</pdfrwt>
<totfact> 0.73121367E+01</totfact>
</mgrwt>
</event>
<event>
12    7  0.1675873E-007  0.2400918E+04  0.7818608E-02  0.8439160E-01
          2   -1    0    0  501    0  0.00000000000E+00  0.00000000000E+00  0.27558347871E+04  0.27558347871E+04  0.00000000000E+00 0. -1.
         -1   -1    0    0    0  501 -0.00000000000E+00 -0.00000000000E+00 -0.52292766624E+03  0.52292766624E+03  0.00000000000E+00 0.  1.
         24    2    1    2    0    0 -0.70093445271E+03  0.72569603413E+03  0.66357674342E+03  0.12102359045E+04  0.79956295498E+02 0.  0.
        254    2    1    2    0    0  0.70093445271E+03 -0.72569603413E+03  0.15693303774E+04  0.20685265488E+04  0.89334226848E+03 0.  0.
         23    2    4    4    0    0  0.67632233251E+03 -0.11529571301E+03  0.10716200815E+04  0.12757956060E+04  0.92627373871E+02 0.  0.
         23    2    4    4    0    0  0.24612120208E+02 -0.61040032112E+03  0.49771029591E+03  0.79273094277E+03  0.86674681967E+02 0.  0.
          4    1    3    3  502    0 -0.65795119467E+03  0.70337932692E+03  0.62317960092E+03  0.11471682819E+04  0.00000000000E+00 0. -1.
         -3    1    3    3    0  502 -0.42983258040E+02  0.22316707213E+02  0.40397142502E+02  0.63067622556E+02  0.00000000000E+00 0.  1.
         13    1    5    5    0    0  0.58497943205E+02  0.88398953104E+01  0.12914584262E+03  0.14205210936E+03  0.00000000000E+00 0. -1.
        -13    1    5    5    0    0  0.61782438930E+03 -0.12413560832E+03  0.94247423887E+03  0.11337434967E+04  0.00000000000E+00 0.  1.
          1    1    6    6  503    0  0.17203448959E+02 -0.65621285825E+02  0.87619360964E+02  0.11081184154E+03  0.00000000000E+00 0. -1.
         -1    1    6    6    0  503  0.74086712487E+01 -0.54477903529E+03  0.41009093495E+03  0.68191910123E+03  0.00000000000E+00 0.  1.
<mgrwt>
<rscale>  0 0.24009184E+04</rscale>
<asrwt>0</asrwt>
<pdfrwt beam="1">  1        2 0.42397458E+00 0.24009184E+04</pdfrwt>
<pdfrwt beam="2">  1       -1 0.80450412E-01 0.24009184E+04</pdfrwt>
<totfact> 0.38764252E+00</totfact>
</mgrwt>
</event>
<event>
12    7  0.1675873E-007  0.1573726E+04  0.7818608E-02  0.8836854E-01
         -1   -1    0    0    0  501 -0.00000000000E+00  0.00000000000E+00  0.40309729777E+03  0.40309729777E+03  0.00000000000E+00 0.  1.
          2   -1    0    0  501    0  0.00000000000E+00 -0.00000000000E+00 -0.15359897399E+04  0.15359897399E+04  0.00000000000E+00 0. -1.
         24    2    1    2    0    0 -0.19099750421E+03  0.20355829401E+03 -0.93281697653E+03  0.97696637238E+03  0.79998471096E+02 0.  0.
        254    2    1    2    0    0  0.19099750421E+03 -0.20355829401E+03 -0.20007546561E+03  0.96212066530E+03  0.89873798016E+03 0.  0.
         23    2    4    4    0    0 -0.58741813392E+02  0.27175727906E+03 -0.28802541682E+03  0.41043210426E+03  0.90516584739E+02 0.  0.
         23    2    4    4    0    0  0.24973931760E+03 -0.47531557307E+03  0.87949951211E+02  0.55168856103E+03  0.91271319137E+02 0.  0.
          4    1    3    3  502    0 -0.16533677478E+03  0.14806952515E+03 -0.80878962287E+03  0.83869034061E+03  0.00000000000E+00 0. -1.
         -3    1    3    3    0  502 -0.25660729432E+02  0.55488768866E+02 -0.12402735366E+03  0.13827603177E+03  0.00000000000E+00 0.  1.
         13    1    5    5    0    0 -0.17334609337E+01  0.38228207036E+02 -0.94070722977E+02  0.10155639626E+03  0.00000000000E+00 0. -1.
        -13    1    5    5    0    0 -0.57008352458E+02  0.23352907202E+03 -0.19395469384E+03  0.30887570800E+03  0.00000000000E+00 0.  1.
          3    1    6    6  503    0  0.76579239624E+02 -0.10698406231E+03  0.57387169639E+02  0.14353834599E+03  0.00000000000E+00 0. -1.
         -3    1    6    6    0  503  0.17316007798E+03 -0.36833151076E+03  0.30562781572E+02  0.40815021504E+03  0.00000000000E+00 0.  1.
<mgrwt>
<rscale>  0 0.15737259E+04</rscale>
<asrwt>0</asrwt>
<pdfrwt beam="1">  1        2 0.23630612E+00 0.15737259E+04</pdfrwt>
<pdfrwt beam="2">  1       -1 0.62014968E-01 0.15737259E+04</pdfrwt>
<totfact> 0.34977205E+01</totfact>
</mgrwt>
</event>
<event>
12    7  0.1675873E-007  0.1742442E+04  0.7818608E-02  0.8737521E-01
          2   -1    0    0  501    0  0.00000000000E+00  0.00000000000E+00  0.96533596127E+03  0.96533596127E+03  0.00000000000E+00 0. -1.
         -1   -1    0    0    0  501 -0.00000000000E+00 -0.00000000000E+00 -0.78628187526E+03  0.78628187526E+03  0.00000000000E+00 0.  1.
         24    2    1    2    0    0  0.46061369362E+03 -0.37291281961E+03  0.30223336120E+03  0.66987702570E+03  0.78493816006E+02 0.  0.
        254    2    1    2    0    0 -0.46061369362E+03  0.37291281961E+03 -0.12317927518E+03  0.10817408108E+04  0.89652724566E+03 0.  0.
         23    2    4    4    0    0 -0.22156467574E+03  0.64896309640E+03 -0.14038775504E+03  0.70575763005E+03  0.90228069820E+02 0.  0.
         23    2    4    4    0    0 -0.23904901788E+03 -0.27605027679E+03  0.17208479859E+02  0.37598318079E+03  0.87858022925E+02 0.  0.
          4    1    3    3  502    0  0.27818228067E+03 -0.23213993566E+03  0.22663969694E+03  0.42736387685E+03  0.00000000000E+00 0. -1.
         -1    1    3    3    0  502  0.18243141295E+03 -0.14077288395E+03  0.75593664263E+02  0.24251314885E+03  0.00000000000E+00 0.  1.
         13    1    5    5    0    0 -0.62469628147E+02  0.29206335904E+03 -0.32814045451E+02  0.30046667321E+03  0.00000000000E+00 0. -1.
        -13    1    5    5    0    0 -0.15909504760E+03  0.35689973736E+03 -0.10757370959E+03  0.40529095683E+03  0.00000000000E+00 0.  1.
          3    1    6    6  503    0 -0.17901720053E+03 -0.14134782706E+03  0.84495781018E+01  0.22824934100E+03  0.00000000000E+00 0. -1.
         -3    1    6    6    0  503 -0.60031817354E+02 -0.13470244972E+03  0.87589017574E+01  0.14773383978E+03  0.00000000000E+00 0.  1.
<mgrwt>
<rscale>  0 0.17424422E+04</rscale>
<asrwt>0</asrwt>
<pdfrwt beam="1">  1        2 0.14851323E+00 0.17424422E+04</pdfrwt>
<pdfrwt beam="2">  1       -1 0.12096644E+00 0.17424422E+04</pdfrwt>
<totfact> 0.17426936E+01</totfact>
</mgrwt>
</event>
<event>
12    7  0.1675873E-007  0.1858501E+04  0.7818608E-02  0.8675793E-01
         -1   -1    0    0    0  501 -0.00000000000E+00  0.00000000000E+00  0.82343018915E+03  0.82343018915E+03  0.00000000000E+00 0.  1.
          2   -1    0    0  501    0  0.00000000000E+00 -0.00000000000E+00 -0.10486698931E+04  0.10486698931E+04  0.00000000000E+00 0. -1.
         24    2    1    2    0    0 -0.39102530534E+03 -0.19976425288E+03  0.47890485829E+03  0.65464761663E+03  0.80044316009E+02 0.  0.
        254    2    1    2    0    0  0.39102530534E+03  0.19976425288E+03 -0.70414456224E+03  0.12174524656E+04  0.89082231415E+03 0.  0.
         23    2    4    4    0    0  0.65390020111E+03  0.96646656400E+02 -0.61460431534E+03  0.90739247656E+03  0.93255524707E+02 0.  0.
         23    2    4    4    0    0 -0.26287489577E+03  0.10311759648E+03 -0.89540246899E+02  0.31005998906E+03  0.91560316020E+02 0.  0.
          4    1    3    3  502    0 -0.10637195875E+03 -0.48769633599E+02  0.79498792220E+02  0.14146917945E+03  0.00000000000E+00 0. -1.
         -3    1    3    3    0  502 -0.28465334658E+03 -0.15099461928E+03  0.39940606607E+03  0.51317843718E+03  0.00000000000E+00 0.  1.
         13    1    5    5    0    0  0.27815783650E+03  0.41439676304E+02 -0.19969617853E+03  0.34491679069E+03  0.00000000000E+00 0. -1.
        -13    1    5    5    0    0  0.37574236461E+03  0.55206980096E+02 -0.41490813681E+03  0.56247568588E+03  0.00000000000E+00 0.  1.
          3    1    6    6  503    0 -0.13692757865E+02  0.10550349263E+02 -0.34518792408E+02  0.38605032273E+02  0.00000000000E+00 0. -1.
         -3    1    6    6    0  503 -0.24918213791E+03  0.92567247219E+02 -0.55021454491E+02  0.27145495679E+03  0.00000000000E+00 0.  1.
<mgrwt>
<rscale>  0 0.18585010E+04</rscale>
<asrwt>0</asrwt>
<pdfrwt beam="1">  1        2 0.16133383E+00 0.18585010E+04</pdfrwt>
<pdfrwt beam="2">  1       -1 0.12668157E+00 0.18585010E+04</pdfrwt>
<totfact> 0.13608062E+01</totfact>
</mgrwt>
</event>
<event>
12    7  0.1675873E-007  0.1607376E+04  0.7818608E-02  0.8816029E-01
          2   -1    0    0  501    0  0.00000000000E+00  0.00000000000E+00  0.18787162630E+04  0.18787162630E+04  0.00000000000E+00 0. -1.
         -1   -1    0    0    0  501 -0.00000000000E+00 -0.00000000000E+00 -0.34380626155E+03  0.34380626155E+03  0.00000000000E+00 0.  1.
         24    2    1    2    0    0 -0.20968798684E+02  0.34766377146E+03  0.10749002304E+04  0.11327265967E+04  0.79682174933E+02 0.  0.
        254    2    1    2    0    0  0.20968798684E+02 -0.34766377146E+03  0.46000977110E+03  0.10897959279E+04  0.92451954359E+03 0.  0.
         23    2    4    4    0    0 -0.56724297498E+02 -0.50574174239E+03  0.63950498486E+03  0.82234707935E+03  0.91080938397E+02 0.  0.
         23    2    4    4    0    0  0.77693096182E+02  0.15807797093E+03 -0.17949521375E+03  0.26744884856E+03  0.91024682091E+02 0.  0.
          2    1    3    3  502    0 -0.49131234938E+02  0.26925661359E+03  0.84259114831E+03  0.88593049694E+03  0.00000000000E+00 0. -1.
         -1    1    3    3    0  502  0.28162436254E+02  0.78407157868E+02  0.23230908207E+03  0.24679609971E+03  0.00000000000E+00 0.  1.
         13    1    5    5    0    0 -0.28665638116E+02 -0.40653796183E+02  0.80437826853E+02  0.94576392094E+02  0.00000000000E+00 0. -1.
        -13    1    5    5    0    0 -0.28058659383E+02 -0.46508794621E+03  0.55906715800E+03  0.72777068726E+03  0.00000000000E+00 0.  1.
          2    1    6    6  503    0  0.95983265156E+02  0.12909623639E+03 -0.12793538015E+03  0.20553852907E+03  0.00000000000E+00 0.  1.
         -2    1    6    6    0  503 -0.18290168974E+02  0.28981734545E+02 -0.51559833603E+02  0.61910319491E+02  0.00000000000E+00 0. -1.
<mgrwt>
<rscale>  0 0.16073760E+04</rscale>
<asrwt>0</asrwt>
<pdfrwt beam="1">  1        2 0.28903326E+00 0.16073760E+04</pdfrwt>
<pdfrwt beam="2">  1       -1 0.52893272E-01 0.16073760E+04</pdfrwt>
<totfact> 0.30697274E+01</totfact>
</mgrwt>
</event>
<event>
12    7  0.1675873E-007  0.2071817E+04  0.7818608E-02  0.8573761E-01
          2   -1    0    0  501    0  0.00000000000E+00  0.00000000000E+00  0.11909807628E+04  0.11909807628E+04  0.00000000000E+00 0. -1.
         -1   -1    0    0    0  501 -0.00000000000E+00 -0.00000000000E+00 -0.90102735310E+03  0.90102735310E+03  0.00000000000E+00 0.  1.
         24    2    1    2    0    0 -0.66380324629E+03  0.33606090050E+03 -0.28910479328E+03  0.80309800585E+03  0.88392006866E+02 0.  0.
        254    2    1    2    0    0  0.66380324629E+03 -0.33606090050E+03  0.57905820296E+03  0.12889101100E+04  0.87886813043E+03 0.  0.
         23    2    4    4    0    0  0.27719344573E+03 -0.60516551339E+03  0.31821778133E+03  0.74347376774E+03  0.91810576808E+02 0.  0.
         23    2    4    4    0    0  0.38660980057E+03  0.26910461289E+03  0.26084042163E+03  0.54543634229E+03  0.87055426959E+02 0.  0.
          4    1    3    3  502    0 -0.57741349846E+03  0.30117881149E+03 -0.22109138288E+03  0.68774735498E+03  0.00000000000E+00 0. -1.
         -3    1    3    3    0  502 -0.86389747832E+02  0.34882089013E+02 -0.68013410393E+02  0.11535065088E+03  0.00000000000E+00 0.  1.
         13    1    5    5    0    0  0.21849850356E+03 -0.43494834092E+03  0.19037669193E+03  0.52265183455E+03  0.00000000000E+00 0. -1.
        -13    1    5    5    0    0  0.58694942160E+02 -0.17021717247E+03  0.12784108940E+03  0.22082193319E+03  0.00000000000E+00 0.  1.
          3    1    6    6  503    0  0.19070662471E+03  0.15378918792E+03  0.18061912385E+03  0.30437378161E+03  0.00000000000E+00 0. -1.
         -3    1    6    6    0  503  0.19590317585E+03  0.11531542497E+03  0.80221297781E+02  0.24106256068E+03  0.00000000000E+00 0.  1.
<mgrwt>
<rscale>  0 0.20718168E+04</rscale>
<asrwt>0</asrwt>
<pdfrwt beam="1">  1        2 0.18322781E+00 0.20718168E+04</pdfrwt>
<pdfrwt beam="2">  1       -1 0.13861959E+00 0.20718168E+04</pdfrwt>
<totfact> 0.86882844E+00</totfact>
</mgrwt>
</event>
<event>
12    7  0.1675873E-007  0.1672389E+04  0.7818608E-02  0.8777270E-01
          2   -1    0    0  501    0  0.00000000000E+00  0.00000000000E+00  0.27163636844E+04  0.27163636844E+04  0.00000000000E+00 0. -1.
         -1   -1    0    0    0  501 -0.00000000000E+00 -0.00000000000E+00 -0.25741076206E+03  0.25741076206E+03  0.00000000000E+00 0.  1.
         24    2    1    2    0    0 -0.19092128426E+03 -0.10080723652E+03  0.18392952610E+04  0.18536641978E+04  0.80317277955E+02 0.  0.
        254    2    1    2    0    0  0.19092128426E+03  0.10080723652E+03  0.61965766135E+03  0.11201102487E+04  0.90777657841E+03 0.  0.
         23    2    4    4    0    0  0.91576720953E+02 -0.34061486886E+03  0.54118500822E+03  0.65212284429E+03  0.89320805006E+02 0.  0.
         23    2    4    4    0    0  0.99344563308E+02  0.44142210538E+03  0.78472653124E+02  0.46798740444E+03  0.90174475600E+02 0.  0.
          2    1    3    3  502    0 -0.19397174970E+03 -0.91888704767E+02  0.18142807043E+04  0.18269326883E+04  0.00000000000E+00 0. -1.
         -1    1    3    3    0  502  0.30504654385E+01 -0.89185317525E+01  0.25014556758E+02  0.26731509457E+02  0.00000000000E+00 0.  1.
         13    1    5    5    0    0  0.15548192618E+02 -0.18292146752E+03  0.33174581141E+03  0.37915338975E+03  0.00000000000E+00 0. -1.
        -13    1    5    5    0    0  0.76028528336E+02 -0.15769340134E+03  0.20943919682E+03  0.27296945453E+03  0.00000000000E+00 0.  1.
          1    1    6    6  503    0  0.48794303273E+02  0.64915371521E+02  0.19920546968E+02  0.83616491693E+02  0.00000000000E+00 0. -1.
         -1    1    6    6    0  503  0.50550260035E+02  0.37650673386E+03  0.58552106156E+02  0.38437091274E+03  0.00000000000E+00 0.  1.
<mgrwt>
<rscale>  0 0.16723890E+04</rscale>
<asrwt>0</asrwt>
<pdfrwt beam="1">  1        2 0.41790208E+00 0.16723890E+04</pdfrwt>
<pdfrwt beam="2">  1       -1 0.39601658E-01 0.16723890E+04</pdfrwt>
<totfact> 0.17542814E+01</totfact>
</mgrwt>
</event>
<event>
12    7  0.1675873E-007  0.1465769E+04  0.7818608E-02  0.8907541E-01
         -1   -1    0    0    0  501 -0.00000000000E+00  0.00000000000E+00  0.25598709637E+03  0.25598709637E+03  0.00000000000E+00 0.  1.
          2   -1    0    0  501    0  0.00000000000E+00 -0.00000000000E+00 -0.20982287696E+04  0.20982287696E+04  0.00000000000E+00 0. -1.
         24    2    1    2    0    0 -0.15091340394E+03  0.12914663396E+03 -0.12369782672E+04  0.12555301059E+04  0.82382672611E+02 0.  0.
        254    2    1    2    0    0  0.15091340394E+03 -0.12914663396E+03 -0.60526340613E+03  0.10986857602E+04  0.89516082366E+03 0.  0.
         23    2    4    4    0    0  0.22940233380E+03 -0.33637913620E+03  0.31639350734E+02  0.41833729920E+03  0.90712145644E+02 0.  0.
         23    2    4    4    0    0 -0.78488929860E+02  0.20723250224E+03 -0.63690275686E+03  0.68034846096E+03  0.90128156165E+02 0.  0.
          4    1    3    3  502    0 -0.11814180397E+03  0.11563381944E+03 -0.78795457007E+03  0.80510935316E+03  0.00000000000E+00 0. -1.
         -3    1    3    3    0  502 -0.32771599970E+02  0.13512814524E+02 -0.44902369708E+03  0.45042075270E+03  0.00000000000E+00 0.  1.
         13    1    5    5    0    0  0.17845785639E+03 -0.27972138903E+03  0.59724670359E+02  0.33713246393E+03  0.00000000000E+00 0. -1.
        -13    1    5    5    0    0  0.50944477412E+02 -0.56657747169E+02 -0.28085319625E+02  0.81204835272E+02  0.00000000000E+00 0.  1.
          1    1    6    6  503    0 -0.92789271563E+02  0.12793088325E+03 -0.44420313377E+03  0.47147914467E+03  0.00000000000E+00 0. -1.
         -1    1    6    6    0  503  0.14300341703E+02  0.79301618989E+02 -0.19269962309E+03  0.20886931629E+03  0.00000000000E+00 0.  1.
<mgrwt>
<rscale>  0 0.14657687E+04</rscale>
<asrwt>0</asrwt>
<pdfrwt beam="1">  1        2 0.32280442E+00 0.14657687E+04</pdfrwt>
<pdfrwt beam="2">  1       -1 0.39382630E-01 0.14657687E+04</pdfrwt>
<totfact> 0.40753827E+01</totfact>
</mgrwt>
</event>
<event>
12    7  0.1675873E-007  0.2128188E+04  0.7818608E-02  0.8548927E-01
          2   -1    0    0  501    0  0.00000000000E+00  0.00000000000E+00  0.17475927594E+04  0.17475927594E+04  0.00000000000E+00 0. -1.
         -1   -1    0    0    0  501 -0.00000000000E+00 -0.00000000000E+00 -0.64791742035E+03  0.64791742035E+03  0.00000000000E+00 0.  1.
         24    2    1    2    0    0 -0.56215755002E+03  0.56630514533E+03  0.62127528769E+02  0.80652501689E+03  0.99499469177E+02 0.  0.
        254    2    1    2    0    0  0.56215755002E+03 -0.56630514533E+03  0.10375478103E+04  0.15889851628E+04  0.90091384741E+03 0.  0.
         23    2    4    4    0    0  0.55462685690E+03 -0.68893383161E+02  0.90278860882E+03  0.10657482985E+04  0.91841793323E+02 0.  0.
         23    2    4    4    0    0  0.75306931290E+01 -0.49741176217E+03  0.13475920144E+03  0.52323686430E+03  0.90230822336E+02 0.  0.
          4    1    3    3  502    0 -0.26889182921E+03  0.31774260630E+03 -0.49843613497E+01  0.41627878103E+03  0.00000000000E+00 0. -1.
         -3    1    3    3    0  502 -0.29326572081E+03  0.24856253903E+03  0.67111890119E+02  0.39024623587E+03  0.00000000000E+00 0.  1.
         13    1    5    5    0    0  0.13864826929E+03  0.18738536310E+02  0.25661913833E+03  0.29228044320E+03  0.00000000000E+00 0.  1.
        -13    1    5    5    0    0  0.41597858760E+03 -0.87631919472E+02  0.64616947049E+03  0.77346785534E+03  0.00000000000E+00 0. -1.
          3    1    6    6  503    0 -0.20474144820E+02 -0.44428572120E+03  0.10918724142E+03  0.45796380464E+03  0.00000000000E+00 0. -1.
         -3    1    6    6    0  503  0.28004837949E+02 -0.53126040970E+02  0.25571960024E+02  0.65273059658E+02  0.00000000000E+00 0.  1.
<mgrwt>
<rscale>  0 0.21281878E+04</rscale>
<asrwt>0</asrwt>
<pdfrwt beam="1">  1        2 0.26886042E+00 0.21281878E+04</pdfrwt>
<pdfrwt beam="2">  1       -1 0.99679604E-01 0.21281878E+04</pdfrwt>
<totfact> 0.92753442E+00</totfact>
</mgrwt>
</event>
<event>
12    7  0.1675873E-007  0.2116912E+04  0.7818608E-02  0.8553830E-01
         -1   -1    0    0    0  501 -0.00000000000E+00  0.00000000000E+00  0.53589714657E+03  0.53589714657E+03  0.00000000000E+00 0.  1.
          2   -1    0    0  501    0  0.00000000000E+00 -0.00000000000E+00 -0.20905675414E+04  0.20905675414E+04  0.00000000000E+00 0. -1.
         24    2    1    2    0    0  0.15977039005E+03  0.35431711847E+03 -0.15500045454E+04  0.16000133155E+04  0.80382343282E+02 0.  0.
        254    2    1    2    0    0 -0.15977039005E+03 -0.35431711847E+03 -0.46658494447E+01  0.10264513725E+04  0.95000707992E+03 0.  0.
         23    2    4    4    0    0 -0.45253013967E+02 -0.66741561245E+03 -0.54062256898E+02  0.67723454798E+03  0.90732961743E+02 0.  0.
         23    2    4    4    0    0 -0.11451737608E+03  0.31309849398E+03  0.49396407453E+02  0.34921682448E+03  0.91473980335E+02 0.  0.
          4    1    3    3  502    0  0.16357078091E+03  0.30422738111E+03 -0.13920173008E+04  0.14342321519E+04  0.00000000000E+00 0. -1.
         -3    1    3    3    0  502 -0.38003908605E+01  0.50089737360E+02 -0.15798724459E+03  0.16578116363E+03  0.00000000000E+00 0.  1.
         13    1    5    5    0    0 -0.26273890824E+02 -0.41849793266E+03 -0.77764252062E+02  0.42647170584E+03  0.00000000000E+00 0. -1.
        -13    1    5    5    0    0 -0.18979123143E+02 -0.24891767978E+03  0.23701995165E+02  0.25076284214E+03  0.00000000000E+00 0.  1.
          4    1    6    6  503    0 -0.56008597341E+02  0.24090047564E+03  0.63187786951E+02  0.25526985439E+03  0.00000000000E+00 0. -1.
         -4    1    6    6    0  503 -0.58508778744E+02  0.72198018334E+02 -0.13791379498E+02  0.93946970094E+02  0.00000000000E+00 0.  1.
<mgrwt>
<rscale>  0 0.21169121E+04</rscale>
<asrwt>0</asrwt>
<pdfrwt beam="1">  1        2 0.32162577E+00 0.21169121E+04</pdfrwt>
<pdfrwt beam="2">  1       -1 0.82445715E-01 0.21169121E+04</pdfrwt>
<totfact> 0.91111204E+00</totfact>
</mgrwt>
</event>
<event>
12    7  0.1675873E-007  0.1746436E+04  0.7818608E-02  0.8735315E-01
         -1   -1    0    0    0  501 -0.00000000000E+00  0.00000000000E+00  0.33804417272E+03  0.33804417272E+03  0.00000000000E+00 0.  1.
          2   -1    0    0  501    0  0.00000000000E+00 -0.00000000000E+00 -0.22556508320E+04  0.22556508320E+04  0.00000000000E+00 0. -1.
         24    2    1    2    0    0  0.21908722106E+03  0.10312460732E+03 -0.16109418991E+04  0.16310806509E+04  0.81586717637E+02 0.  0.
        254    2    1    2    0    0 -0.21908722106E+03 -0.10312460732E+03 -0.30666476020E+03  0.96261435381E+03  0.87974383996E+03 0.  0.
         23    2    4    4    0    0 -0.81536750205E+02 -0.47884560798E+03 -0.22958853959E+03  0.54495037625E+03  0.91206672674E+02 0.  0.
         23    2    4    4    0    0 -0.13755047085E+03  0.37572100066E+03 -0.77076220611E+02  0.41766397756E+03  0.91739042941E+02 0.  0.
          4    1    3    3  502    0  0.17856521576E+03  0.62499820527E+02 -0.13897305637E+04  0.14025486813E+04  0.00000000000E+00 0. -1.
         -3    1    3    3    0  502  0.40522005294E+02  0.40624786793E+02 -0.22121133540E+03  0.22853196959E+03  0.00000000000E+00 0.  1.
         13    1    5    5    0    0 -0.64461626997E+02 -0.29184373555E+03 -0.93916276453E+02  0.31328634557E+03  0.00000000000E+00 0. -1.
        -13    1    5    5    0    0 -0.17075123208E+02 -0.18700187243E+03 -0.13567226314E+03  0.23166403068E+03  0.00000000000E+00 0.  1.
          4    1    6    6  503    0 -0.88711562359E+02  0.33144007978E+03 -0.77444639424E+02  0.35173845391E+03  0.00000000000E+00 0. -1.
         -4    1    6    6    0  503 -0.48838908494E+02  0.44280920884E+02  0.36841881246E+00  0.65925523658E+02  0.00000000000E+00 0.  1.
<mgrwt>
<rscale>  0 0.17464359E+04</rscale>
<asrwt>0</asrwt>
<pdfrwt beam="1">  1        2 0.34702320E+00 0.17464359E+04</pdfrwt>
<pdfrwt beam="2">  1       -1 0.52006797E-01 0.17464359E+04</pdfrwt>
<totfact> 0.19317169E+01</totfact>
</mgrwt>
</event>
<event>
12    7  0.1675873E-007  0.1333554E+04  0.7818608E-02  0.9003372E-01
         -1   -1    0    0    0  501 -0.00000000000E+00  0.00000000000E+00  0.23243148693E+03  0.23243148693E+03  0.00000000000E+00 0.  1.
          2   -1    0    0  501    0  0.00000000000E+00 -0.00000000000E+00 -0.19127856640E+04  0.19127856640E+04  0.00000000000E+00 0. -1.
         24    2    1    2    0    0  0.31425001170E+03  0.13144584715E+03 -0.65701590662E+03  0.74355126032E+03  0.71885287687E+02 0.  0.
        254    2    1    2    0    0 -0.31425001170E+03 -0.13144584715E+03 -0.10233382705E+04  0.14016658907E+04  0.89521783527E+03 0.  0.
         23    2    4    4    0    0 -0.35466177949E+03  0.32470085826E+03 -0.51607268815E+03  0.71222025346E+03  0.98544633534E+02 0.  0.
         23    2    4    4    0    0  0.40411767788E+02 -0.45614670542E+03 -0.50726558234E+03  0.68944563719E+03  0.91181071368E+02 0.  0.
          4    1    3    3  502    0  0.23445055927E+03  0.73431530135E+02 -0.51535534870E+03  0.57092065105E+03  0.00000000000E+00 0. -1.
         -3    1    3    3    0  502  0.79799452435E+02  0.58014317020E+02 -0.14166055791E+03  0.17263060927E+03  0.00000000000E+00 0.  1.
         13    1    5    5    0    0 -0.30529105321E+02  0.14854662564E+02 -0.79250858122E+02  0.86217085224E+02  0.00000000000E+00 0. -1.
        -13    1    5    5    0    0 -0.32413267417E+03  0.30984619570E+03 -0.43682183003E+03  0.62600316824E+03  0.00000000000E+00 0.  1.
          1    1    6    6  503    0 -0.27776892209E+02 -0.10010488482E+03 -0.12688430460E+03  0.16398832415E+03  0.00000000000E+00 0. -1.
         -1    1    6    6    0  503  0.68188659997E+02 -0.35604182060E+03 -0.38038127774E+03  0.52545731304E+03  0.00000000000E+00 0.  1.
<mgrwt>
<rscale>  0 0.13335541E+04</rscale>
<asrwt>0</asrwt>
<pdfrwt beam="1">  1        2 0.29427470E+00 0.13335541E+04</pdfrwt>
<pdfrwt beam="2">  1       -1 0.35758692E-01 0.13335541E+04</pdfrwt>
<totfact> 0.62161006E+01</totfact>
</mgrwt>
</event>
<event>
12    7  0.1675873E-007  0.1178860E+04  0.7818608E-02  0.9131564E-01
         -1   -1    0    0    0  501 -0.00000000000E+00  0.00000000000E+00  0.10189631170E+03  0.10189631170E+03  0.00000000000E+00 0.  1.
          2   -1    0    0  501    0  0.00000000000E+00 -0.00000000000E+00 -0.34096186074E+04  0.34096186074E+04  0.00000000000E+00 0. -1.
         24    2    1    2    0    0 -0.18273638606E+03 -0.14398594051E+03 -0.70125562582E+03  0.74301237296E+03  0.78634571127E+02 0.  0.
        254    2    1    2    0    0  0.18273638606E+03  0.14398594051E+03 -0.26064666699E+04  0.27685025462E+04  0.90377724521E+03 0.  0.
         23    2    4    4    0    0 -0.29234557625E+03 -0.16592115666E+03 -0.11981628064E+04  0.12476724630E+04  0.89981653842E+02 0.  0.
         23    2    4    4    0    0  0.47508196231E+03  0.30990709716E+03 -0.14083038635E+04  0.15208300832E+04  0.88651509979E+02 0.  0.
          2    1    3    3  502    0 -0.13396595564E+03 -0.11140162913E+03 -0.61112662745E+03  0.63547852443E+03  0.00000000000E+00 0. -1.
         -1    1    3    3    0  502 -0.48770430422E+02 -0.32584311371E+02 -0.90128998369E+02  0.10753384852E+03  0.00000000000E+00 0.  1.
         13    1    5    5    0    0 -0.13588570674E+03 -0.38709185499E+02 -0.39246763051E+03  0.41712608086E+03  0.00000000000E+00 0.  1.
        -13    1    5    5    0    0 -0.15645986951E+03 -0.12721197116E+03 -0.80569517590E+03  0.83054638211E+03  0.00000000000E+00 0. -1.
          3    1    6    6  503    0  0.15017796779E+03  0.10699081769E+03 -0.35498214434E+03  0.40001597453E+03  0.00000000000E+00 0. -1.
         -3    1    6    6    0  503  0.32490399452E+03  0.20291627947E+03 -0.10533217192E+04  0.11208141087E+04  0.00000000000E+00 0.  1.
<mgrwt>
<rscale>  0 0.11788597E+04</rscale>
<asrwt>0</asrwt>
<pdfrwt beam="1">  1        2 0.52455671E+00 0.11788597E+04</pdfrwt>
<pdfrwt beam="2">  1       -1 0.15676356E-01 0.11788597E+04</pdfrwt>
<totfact> 0.33161930E+01</totfact>
</mgrwt>
</event>
<event>
12    7  0.1675873E-007  0.1133600E+04  0.7818608E-02  0.9173048E-01
         -1   -1    0    0    0  501 -0.00000000000E+00  0.00000000000E+00  0.79009697487E+02  0.79009697487E+02  0.00000000000E+00 0.  1.
          2   -1    0    0  501    0  0.00000000000E+00 -0.00000000000E+00 -0.40661085999E+04  0.40661085999E+04  0.00000000000E+00 0. -1.
         24    2    1    2    0    0  0.18022721796E+03 -0.73702891894E+02 -0.88031372373E+03  0.90511012628E+03  0.79737833800E+02 0.  0.
        254    2    1    2    0    0 -0.18022721796E+03  0.73702891894E+02 -0.31067851787E+04  0.32400081711E+04  0.89867949570E+03 0.  0.
         23    2    4    4    0    0  0.23351811872E+03 -0.15296694832E+03 -0.43037293117E+03  0.52085167819E+03  0.90199843324E+02 0.  0.
         23    2    4    4    0    0 -0.41374533669E+03  0.22666984022E+03 -0.26764122475E+04  0.27191564929E+04  0.89805869823E+02 0.  0.
          4    1    3    3  502    0  0.10677293593E+03 -0.47999235964E+02 -0.68379708558E+03  0.69374551584E+03  0.00000000000E+00 0. -1.
         -3    1    3    3    0  502  0.73454282029E+02 -0.25703655929E+02 -0.19651663815E+03  0.21136461044E+03  0.00000000000E+00 0.  1.
         13    1    5    5    0    0  0.23804207290E+03 -0.15786827678E+03 -0.41219722159E+03  0.50149074844E+03  0.00000000000E+00 0.  1.
        -13    1    5    5    0    0 -0.45239541768E+01  0.49013284540E+01 -0.18175709579E+02  0.19360929748E+02  0.00000000000E+00 0. -1.
          1    1    6    6  503    0 -0.89567277013E+01  0.77689037480E+01 -0.20589663459E+02  0.23759483958E+02  0.00000000000E+00 0. -1.
         -1    1    6    6    0  503 -0.40478860899E+03  0.21890093647E+03 -0.26558225841E+04  0.26953970090E+04  0.00000000000E+00 0.  1.
<mgrwt>
<rscale>  0 0.11335996E+04</rscale>
<asrwt>0</asrwt>
<pdfrwt beam="1">  1        2 0.62555527E+00 0.11335996E+04</pdfrwt>
<pdfrwt beam="2">  1       -1 0.12155336E-01 0.11335996E+04</pdfrwt>
<totfact> 0.16523139E+01</totfact>
</mgrwt>
</event>
<event>
12    7  0.1675873E-007  0.2317486E+04  0.7818608E-02  0.8471058E-01
          2   -1    0    0  501    0  0.00000000000E+00  0.00000000000E+00  0.26884395167E+04  0.26884395167E+04  0.00000000000E+00 0. -1.
         -1   -1    0    0    0  501 -0.00000000000E+00 -0.00000000000E+00 -0.49942914828E+03  0.49942914828E+03  0.00000000000E+00 0.  1.
         24    2    1    2    0    0 -0.66291693119E+03  0.18581785776E+03 -0.38393827563E+02  0.69369611199E+03  0.75849033386E+02 0.  0.
        254    2    1    2    0    0  0.66291693119E+03 -0.18581785776E+03  0.22274041960E+04  0.24941725530E+04  0.88632958762E+03 0.  0.
         23    2    4    4    0    0  0.38935591814E+03 -0.19110658852E+03  0.21491699015E+04  0.21943948741E+04  0.91202185499E+02 0.  0.
         23    2    4    4    0    0  0.27356101306E+03  0.52887307611E+01  0.78234294455E+02  0.29977767890E+03  0.94246768651E+02 0.  0.
          2    1    3    3  502    0 -0.26669324930E+03  0.10545701992E+03 -0.38843324063E+02  0.28940503813E+03  0.00000000000E+00 0. -1.
         -1    1    3    3    0  502 -0.39622368189E+03  0.80360837846E+02  0.44949649999E+00  0.40429107385E+03  0.00000000000E+00 0.  1.
         13    1    5    5    0    0  0.18172062770E+03 -0.13804199911E+03  0.11697491572E+04  0.11918016071E+04  0.00000000000E+00 0. -1.
        -13    1    5    5    0    0  0.20763529043E+03 -0.53064589413E+02  0.97942074435E+03  0.10025932670E+04  0.00000000000E+00 0.  1.
          3    1    6    6  503    0  0.15400992792E+03 -0.43803320237E+02  0.41042331327E+02  0.16529446973E+03  0.00000000000E+00 0.  1.
         -3    1    6    6    0  503  0.11955108514E+03  0.49092050998E+02  0.37191963127E+02  0.13448320917E+03  0.00000000000E+00 0. -1.
<mgrwt>
<rscale>  0 0.23174858E+04</rscale>
<asrwt>0</asrwt>
<pdfrwt beam="1">  1        2 0.41360607E+00 0.23174858E+04</pdfrwt>
<pdfrwt beam="2">  1       -1 0.76835255E-01 0.23174858E+04</pdfrwt>
<totfact> 0.47227807E+00</totfact>
</mgrwt>
</event>
<event>
12    7  0.1675873E-007  0.1337094E+04  0.7818608E-02  0.9000656E-01
          2   -1    0    0  501    0  0.00000000000E+00  0.00000000000E+00  0.69811605069E+03  0.69811605069E+03  0.00000000000E+00 0. -1.
         -1   -1    0    0    0  501 -0.00000000000E+00 -0.00000000000E+00 -0.64023003740E+03  0.64023003740E+03  0.00000000000E+00 0.  1.
         24    2    1    2    0    0  0.18228317478E+03 -0.30723097033E+03 -0.16980453351E+02  0.36473380047E+03  0.71584806179E+02 0.  0.
        254    2    1    2    0    0 -0.18228317478E+03  0.30723097033E+03  0.74866466639E+02  0.97361228761E+03  0.90260615654E+03 0.  0.
         23    2    4    4    0    0  0.65762274979E+02  0.25612141279E+03  0.43833121124E+03  0.52011287246E+03  0.91979858955E+02 0.  0.
         23    2    4    4    0    0 -0.24804544976E+03  0.51109557538E+02 -0.36346474460E+03  0.45349941515E+03  0.97037966581E+02 0.  0.
          2    1    3    3  502    0  0.14923377969E+03 -0.23508371687E+03 -0.41833978792E+02  0.28157620056E+03  0.00000000000E+00 0. -1.
         -1    1    3    3    0  502  0.33049395093E+02 -0.72147253452E+02  0.24853525442E+02  0.83157599915E+02  0.00000000000E+00 0.  1.
         13    1    5    5    0    0  0.61029455802E+02  0.23992814238E+03  0.43813397957E+03  0.50324098803E+03  0.00000000000E+00 0.  1.
        -13    1    5    5    0    0  0.47328191775E+01  0.16193270405E+02  0.19723166906E+00  0.16871884427E+02  0.00000000000E+00 0. -1.
          2    1    6    6  503    0 -0.23717115757E+02 -0.17494392005E+02 -0.81767395258E+02  0.86916409606E+02  0.00000000000E+00 0. -1.
         -2    1    6    6    0  503 -0.22432833400E+03  0.68603949543E+02 -0.28169734934E+03  0.36658300555E+03  0.00000000000E+00 0.  1.
<mgrwt>
<rscale>  0 0.13370937E+04</rscale>
<asrwt>0</asrwt>
<pdfrwt beam="1">  1        2 0.10740247E+00 0.13370937E+04</pdfrwt>
<pdfrwt beam="2">  1       -1 0.98496929E-01 0.13370937E+04</pdfrwt>
<totfact> 0.45321093E+01</totfact>
</mgrwt>
</event>
<event>
12    7  0.1675873E-007  0.2288205E+04  0.7818608E-02  0.8482586E-01
         -1   -1    0    0    0  501 -0.00000000000E+00  0.00000000000E+00  0.12123037922E+04  0.12123037922E+04  0.00000000000E+00 0.  1.
          2   -1    0    0  501    0  0.00000000000E+00 -0.00000000000E+00 -0.10797379327E+04  0.10797379327E+04  0.00000000000E+00 0. -1.
         24    2    1    2    0    0  0.86249319191E+02 -0.27857746297E+03  0.97772850251E+03  0.10233189393E+04  0.78640187168E+02 0.  0.
        254    2    1    2    0    0 -0.86249319191E+02  0.27857746297E+03 -0.84516264303E+03  0.12687227855E+04  0.90017401947E+03 0.  0.
         23    2    4    4    0    0 -0.94272543765E+01 -0.11038817050E+03  0.14259326954E+03  0.20093824889E+03  0.88141466055E+02 0.  0.
         23    2    4    4    0    0 -0.76822064814E+02  0.38896563347E+03 -0.98775591257E+03  0.10677845366E+04  0.85476196293E+02 0.  0.
          4    1    3    3  502    0  0.18546686995E+02 -0.12021720842E+03  0.29263366661E+03  0.31690790402E+03  0.00000000000E+00 0. -1.
         -3    1    3    3    0  502  0.67702632195E+02 -0.15836025455E+03  0.68509483590E+03  0.70641103531E+03  0.00000000000E+00 0.  1.
         13    1    5    5    0    0  0.58881127332E+01 -0.53866633043E+02  0.13027737906E+03  0.14109741146E+03  0.00000000000E+00 0. -1.
        -13    1    5    5    0    0 -0.15315367110E+02 -0.56521537455E+02  0.12315890483E+02  0.59840837431E+02  0.00000000000E+00 0.  1.
          1    1    6    6  503    0 -0.94514122086E+02  0.33872941769E+03 -0.87726868864E+03  0.94513009144E+03  0.00000000000E+00 0. -1.
         -1    1    6    6    0  503  0.17692057271E+02  0.50236215778E+02 -0.11048722393E+03  0.12265444517E+03  0.00000000000E+00 0.  1.
<mgrwt>
<rscale>  0 0.22882049E+04</rscale>
<asrwt>0</asrwt>
<pdfrwt beam="1">  1        2 0.16611353E+00 0.22882049E+04</pdfrwt>
<pdfrwt beam="2">  1       -1 0.18650828E+00 0.22882049E+04</pdfrwt>
<totfact> 0.43393293E+00</totfact>
</mgrwt>
</event>
<event>
12    7  0.1675873E-007  0.1739491E+04  0.7818608E-02  0.8739156E-01
         -1   -1    0    0    0  501 -0.00000000000E+00  0.00000000000E+00  0.63443345607E+03  0.63443345607E+03  0.00000000000E+00 0.  1.
          2   -1    0    0  501    0  0.00000000000E+00 -0.00000000000E+00 -0.11923351546E+04  0.11923351546E+04  0.00000000000E+00 0. -1.
         24    2    1    2    0    0 -0.71803431074E+02 -0.42152095540E+03  0.30410992565E+03  0.53074430065E+03  0.79818652165E+02 0.  0.
        254    2    1    2    0    0  0.71803431074E+02  0.42152095540E+03 -0.86201162420E+03  0.12960243100E+04  0.86820465526E+03 0.  0.
         23    2    4    4    0    0 -0.31871316909E+03  0.55159928819E+00 -0.53692184000E+03  0.62982942444E+03  0.82593299965E+02 0.  0.
         23    2    4    4    0    0  0.39051660017E+03  0.42096935611E+03 -0.32508978420E+03  0.66619488561E+03  0.91727008193E+02 0.  0.
          2    1    3    3  502    0 -0.42766793854E+01 -0.10887217370E+02  0.30603402498E+02  0.32762627078E+02  0.00000000000E+00 0. -1.
         -1    1    3    3    0  502 -0.67526751689E+02 -0.41063373803E+03  0.27350652316E+03  0.49798167357E+03  0.00000000000E+00 0.  1.
         13    1    5    5    0    0 -0.18584643522E+03  0.22214179914E+02 -0.24457458361E+03  0.30797580136E+03  0.00000000000E+00 0. -1.
        -13    1    5    5    0    0 -0.13286673387E+03 -0.21662580626E+02 -0.29234725639E+03  0.32185362308E+03  0.00000000000E+00 0.  1.
          2    1    6    6  503    0  0.31525716550E+03  0.29485226284E+03 -0.27107003432E+03  0.50970962401E+03  0.00000000000E+00 0. -1.
         -2    1    6    6    0  503  0.75259434669E+02  0.12611709327E+03 -0.54019749879E+02  0.15648526160E+03  0.00000000000E+00 0.  1.
<mgrwt>
<rscale>  0 0.17394911E+04</rscale>
<asrwt>0</asrwt>
<pdfrwt beam="1">  1        2 0.18343618E+00 0.17394911E+04</pdfrwt>
<pdfrwt beam="2">  1       -1 0.97605147E-01 0.17394911E+04</pdfrwt>
<totfact> 0.20858888E+01</totfact>
</mgrwt>
</event>
<event>
12    7  0.2196139E-007  0.1516602E+04  0.7818608E-02  0.8873487E-01
         -1   -1    0    0    0  501 -0.00000000000E+00  0.00000000000E+00  0.43963630752E+03  0.43963630752E+03  0.00000000000E+00 0.  1.
          2   -1    0    0  501    0  0.00000000000E+00 -0.00000000000E+00 -0.13079459628E+04  0.13079459628E+04  0.00000000000E+00 0. -1.
         24    2    1    2    0    0  0.25975781436E+03  0.24536540716E+03  0.10138099688E+03  0.37990671240E+03  0.79829182908E+02 0.  0.
        254    2    1    2    0    0 -0.25975781436E+03 -0.24536540716E+03 -0.96969065217E+03  0.13676755579E+04  0.89585610770E+03 0.  0.
         23    2    4    4    0    0  0.22395011655E+03  0.18568440539E+03 -0.36942834631E+03  0.47956158807E+03  0.94178875478E+02 0.  0.
         23    2    4    4    0    0 -0.48370793092E+03 -0.43104981255E+03 -0.60026230586E+03  0.88811396986E+03  0.93028405869E+02 0.  0.
          4    1    3    3  502    0  0.12689146427E+02  0.22621949374E+01 -0.94735398422E+01  0.15996247064E+02  0.00000000000E+00 0. -1.
         -3    1    3    3    0  502  0.24706866794E+03  0.24310321222E+03  0.11085453672E+03  0.36391046533E+03  0.00000000000E+00 0.  1.
         13    1    5    5    0    0  0.67676709088E+01  0.35895524329E+02 -0.79925179560E+02  0.87876756677E+02  0.00000000000E+00 0. -1.
        -13    1    5    5    0    0  0.21718244564E+03  0.14978888106E+03 -0.28950316675E+03  0.39168483139E+03  0.00000000000E+00 0.  1.
          1    1    6    6  503    0 -0.10891993754E+03 -0.13740775966E+03 -0.12462046809E+03  0.21511556493E+03  0.00000000000E+00 0. -1.
         -1    1    6    6    0  503 -0.37478799338E+03 -0.29364205289E+03 -0.47564183777E+03  0.67299840493E+03  0.00000000000E+00 0.  1.
<mgrwt>
<rscale>  0 0.15166022E+04</rscale>
<asrwt>0</asrwt>
<pdfrwt beam="1">  1        2 0.20122245E+00 0.15166022E+04</pdfrwt>
<pdfrwt beam="2">  1       -1 0.67636356E-01 0.15166022E+04</pdfrwt>
<totfact> 0.39828785E+01</totfact>
</mgrwt>
</event>
<event>
12    7  0.1675873E-007  0.1635910E+04  0.7818608E-02  0.8798786E-01
          2   -1    0    0  501    0  0.00000000000E+00  0.00000000000E+00  0.45471312414E+03  0.45471312414E+03  0.00000000000E+00 0. -1.
         -1   -1    0    0    0  501 -0.00000000000E+00 -0.00000000000E+00 -0.14713680775E+04  0.14713680775E+04  0.00000000000E+00 0.  1.
         24    2    1    2    0    0  0.21936724336E+03  0.35452497598E+03 -0.80470527636E+03  0.90981095452E+03  0.79971526895E+02 0.  0.
        254    2    1    2    0    0 -0.21936724336E+03 -0.35452497598E+03 -0.21194967701E+03  0.10162702471E+04  0.90225972068E+03 0.  0.
         23    2    4    4    0    0  0.19144839757E+03  0.18678174356E+03  0.40028243799E+02  0.28546440794E+03  0.91366072703E+02 0.  0.
         23    2    4    4    0    0 -0.41081564093E+03 -0.54130671954E+03 -0.25197792081E+03  0.73080583919E+03  0.93818156925E+02 0.  0.
          4    1    3    3  502    0  0.43802035625E+02  0.60823862762E+02 -0.87869362115E+02  0.11549539127E+03  0.00000000000E+00 0. -1.
         -3    1    3    3    0  502  0.17556520774E+03  0.29370111322E+03 -0.71683591424E+03  0.79431556325E+03  0.00000000000E+00 0.  1.
         13    1    5    5    0    0  0.16127205261E+03  0.12837388349E+03  0.63453471751E+02  0.21567306738E+03  0.00000000000E+00 0. -1.
        -13    1    5    5    0    0  0.30176344960E+02  0.58407860072E+02 -0.23425227952E+02  0.69791340566E+02  0.00000000000E+00 0.  1.
          2    1    6    6  503    0 -0.20333384876E+03 -0.19269956351E+03 -0.11101433532E+03  0.30133363316E+03  0.00000000000E+00 0.  1.
         -2    1    6    6    0  503 -0.20748179217E+03 -0.34860715603E+03 -0.14096358549E+03  0.42947220603E+03  0.00000000000E+00 0. -1.
<mgrwt>
<rscale>  0 0.16359100E+04</rscale>
<asrwt>0</asrwt>
<pdfrwt beam="1">  1        2 0.69955865E-01 0.16359100E+04</pdfrwt>
<pdfrwt beam="2">  1       -1 0.22636432E+00 0.16359100E+04</pdfrwt>
<totfact> 0.74980088E+00</totfact>
</mgrwt>
</event>
<event>
12    7  0.1675873E-007  0.1831357E+04  0.7818608E-02  0.8689800E-01
          2   -1    0    0  501    0  0.00000000000E+00  0.00000000000E+00  0.18197048891E+04  0.18197048891E+04  0.00000000000E+00 0. -1.
         -1   -1    0    0    0  501 -0.00000000000E+00 -0.00000000000E+00 -0.46077077948E+03  0.46077077948E+03  0.00000000000E+00 0.  1.
         24    2    1    2    0    0 -0.23088926454E+03 -0.67548793952E+03  0.38655006590E+03  0.81581342543E+03  0.80850372631E+02 0.  0.
        254    2    1    2    0    0  0.23088926454E+03  0.67548793952E+03  0.97238404374E+03  0.14646622432E+04  0.83072916715E+03 0.  0.
         23    2    4    4    0    0  0.89294402623E+02  0.48637525438E+03  0.10786180140E+04  0.11899416901E+04  0.89498755287E+02 0.  0.
         23    2    4    4    0    0  0.14159486192E+03  0.18911268514E+03 -0.10623397027E+03  0.27472055311E+03  0.91504170722E+02 0.  0.
          4    1    3    3  502    0 -0.44685752361E+02 -0.80619262373E+02  0.26235250420E+02  0.95836163813E+02  0.00000000000E+00 0. -1.
         -3    1    3    3    0  502 -0.18620351218E+03 -0.59486867714E+03  0.36031481548E+03  0.71997726162E+03  0.00000000000E+00 0.  1.
         13    1    5    5    0    0  0.91805725888E+02  0.48294402834E+03  0.10317212424E+04  0.11428525486E+04  0.00000000000E+00 0. -1.
        -13    1    5    5    0    0 -0.25113232652E+01  0.34312260434E+01  0.46896771646E+02  0.47089141503E+02  0.00000000000E+00 0.  1.
          4    1    6    6  503    0  0.34211349845E+02  0.11054694746E+03 -0.23626231458E+02  0.11810691285E+03  0.00000000000E+00 0.  1.
         -4    1    6    6    0  503  0.10738351207E+03  0.78565737674E+02 -0.82607738811E+02  0.15661364025E+03  0.00000000000E+00 0. -1.
<mgrwt>
<rscale>  0 0.18313567E+04</rscale>
<asrwt>0</asrwt>
<pdfrwt beam="1">  1        2 0.27995459E+00 0.18313567E+04</pdfrwt>
<pdfrwt beam="2">  1       -1 0.70887813E-01 0.18313567E+04</pdfrwt>
<totfact> 0.18141206E+01</totfact>
</mgrwt>
</event>
<event>
12    7  0.1675873E-007  0.1199177E+04  0.7818608E-02  0.9113577E-01
          2   -1    0    0  501    0  0.00000000000E+00  0.00000000000E+00  0.11088910175E+04  0.11088910175E+04  0.00000000000E+00 0. -1.
         -1   -1    0    0    0  501 -0.00000000000E+00 -0.00000000000E+00 -0.32420334161E+03  0.32420334161E+03  0.00000000000E+00 0.  1.
         24    2    1    2    0    0 -0.23513417646E+03  0.93190368555E+02  0.20669435522E+03  0.33752494324E+03  0.85017675189E+02 0.  0.
        254    2    1    2    0    0  0.23513417646E+03 -0.93190368555E+02  0.57799332064E+03  0.10955694159E+04  0.89566932543E+03 0.  0.
         23    2    4    4    0    0  0.47991046301E+03  0.40479908380E+02  0.51675515185E+02  0.49320127053E+03  0.92867964839E+02 0.  0.
         23    2    4    4    0    0 -0.24477628656E+03 -0.13367027694E+03  0.52631780545E+03  0.60236814532E+03  0.89742836835E+02 0.  0.
          2    1    3    3  502    0 -0.17269080025E+03  0.73032853142E+02  0.19564464423E+03  0.27098475408E+03  0.00000000000E+00 0. -1.
         -1    1    3    3    0  502 -0.62443376206E+02  0.20157515413E+02  0.11049710998E+02  0.66540189155E+02  0.00000000000E+00 0.  1.
         13    1    5    5    0    0  0.74726571147E+02  0.34257004249E+02 -0.11736181128E+02  0.83038188341E+02  0.00000000000E+00 0.  1.
        -13    1    5    5    0    0  0.40518389187E+03  0.62229041315E+01  0.63411696313E+02  0.41016308219E+03  0.00000000000E+00 0. -1.
          4    1    6    6  503    0 -0.18088304127E+03 -0.12788423960E+03  0.45734746773E+03  0.50817296229E+03  0.00000000000E+00 0. -1.
         -4    1    6    6    0  503 -0.63893245288E+02 -0.57860373323E+01  0.68970337718E+02  0.94195183031E+02  0.00000000000E+00 0.  1.
<mgrwt>
<rscale>  0 0.11991767E+04</rscale>
<asrwt>0</asrwt>
<pdfrwt beam="1">  1        2 0.17059862E+00 0.11991767E+04</pdfrwt>
<pdfrwt beam="2">  1       -1 0.49877438E-01 0.11991767E+04</pdfrwt>
<totfact> 0.97588110E+01</totfact>
</mgrwt>
</event>
<event>
12    7  0.1675873E-007  0.1200133E+04  0.7818608E-02  0.9112740E-01
         -1   -1    0    0    0  501 -0.00000000000E+00  0.00000000000E+00  0.37093806354E+03  0.37093806354E+03  0.00000000000E+00 0.  1.
          2   -1    0    0  501    0  0.00000000000E+00 -0.00000000000E+00 -0.97072768817E+03  0.97072768817E+03  0.00000000000E+00 0. -1.
         24    2    1    2    0    0  0.31065490732E+02  0.23437228221E+03 -0.89603355651E+02  0.26499545577E+03  0.79362452402E+02 0.  0.
        254    2    1    2    0    0 -0.31065490732E+02 -0.23437228221E+03 -0.51018626898E+03  0.10766702959E+04  0.91816853884E+03 0.  0.
         23    2    4    4    0    0  0.23068144532E+03 -0.39349928385E+03  0.10542262303E+02  0.46544509916E+03  0.92045561705E+02 0.  0.
         23    2    4    4    0    0 -0.26174693605E+03  0.15912700164E+03 -0.52072853128E+03  0.61122519678E+03  0.92764091694E+02 0.  0.
          4    1    3    3  502    0 -0.14814501382E+02  0.11360043815E+02 -0.18952540721E+02  0.26602985668E+02  0.00000000000E+00 0. -1.
         -3    1    3    3    0  502  0.45879992114E+02  0.22301223839E+03 -0.70650814930E+02  0.23839247010E+03  0.00000000000E+00 0.  1.
         13    1    5    5    0    0  0.40924399905E+02 -0.78341741103E+02 -0.34379175900E+02  0.94837559237E+02  0.00000000000E+00 0.  1.
        -13    1    5    5    0    0  0.18975704541E+03 -0.31515754275E+03  0.44921438203E+02  0.37060753992E+03  0.00000000000E+00 0. -1.
          1    1    6    6  503    0 -0.19795408096E+03  0.99788617652E+02 -0.43885714064E+03  0.49166978377E+03  0.00000000000E+00 0. -1.
         -1    1    6    6    0  503 -0.63792855084E+02  0.59338383992E+02 -0.81871390642E+02  0.11955541301E+03  0.00000000000E+00 0.  1.
<mgrwt>
<rscale>  0 0.12001331E+04</rscale>
<asrwt>0</asrwt>
<pdfrwt beam="1">  1        2 0.14934272E+00 0.12001331E+04</pdfrwt>
<pdfrwt beam="2">  1       -1 0.57067394E-01 0.12001331E+04</pdfrwt>
<totfact> 0.92082666E+01</totfact>
</mgrwt>
</event>
<event>
12    7  0.1675873E-007  0.2511169E+04  0.7818608E-02  0.8399017E-01
          2   -1    0    0  501    0  0.00000000000E+00  0.00000000000E+00  0.23291710241E+04  0.23291710241E+04  0.00000000000E+00 0. -1.
         -1   -1    0    0    0  501 -0.00000000000E+00 -0.00000000000E+00 -0.67684685255E+03  0.67684685255E+03  0.00000000000E+00 0.  1.
         24    2    1    2    0    0 -0.95793698971E+03 -0.51723621141E+03  0.60639443998E+03  0.12486317992E+04  0.78680229197E+02 0.  0.
        254    2    1    2    0    0  0.95793698971E+03  0.51723621141E+03  0.10459297315E+04  0.17573860774E+04  0.89958893234E+03 0.  0.
         23    2    4    4    0    0  0.22468481783E+03  0.59985654622E+03  0.33197316698E+03  0.72670167657E+03  0.87051707181E+02 0.  0.
         23    2    4    4    0    0  0.73325217188E+03 -0.82620334811E+02  0.71395656457E+03  0.10306844009E+04  0.89952714339E+02 0.  0.
          2    1    3    3  502    0 -0.99931638334E+02 -0.39580327737E+02  0.38054093357E+02  0.11402214129E+03  0.00000000000E+00 0. -1.
         -1    1    3    3    0  502 -0.85800535137E+03 -0.47765588367E+03  0.56834034663E+03  0.11346096579E+04  0.00000000000E+00 0.  1.
         13    1    5    5    0    0  0.72326306097E+02  0.17137181116E+03  0.53917969242E+02  0.19366605180E+03  0.00000000000E+00 0. -1.
        -13    1    5    5    0    0  0.15235851173E+03  0.42848473506E+03  0.27805519774E+03  0.53303562476E+03  0.00000000000E+00 0.  1.
          1    1    6    6  503    0  0.59639855775E+03 -0.76280835937E+02  0.62545058720E+03  0.86758195155E+03  0.00000000000E+00 0. -1.
         -1    1    6    6    0  503  0.13685361412E+03 -0.63394988735E+01  0.88505977367E+02  0.16310244932E+03  0.00000000000E+00 0.  1.
<mgrwt>
<rscale>  0 0.25111687E+04</rscale>
<asrwt>0</asrwt>
<pdfrwt beam="1">  1        2 0.35833400E+00 0.25111687E+04</pdfrwt>
<pdfrwt beam="2">  1       -1 0.10413029E+00 0.25111687E+04</pdfrwt>
<totfact> 0.38384548E+00</totfact>
</mgrwt>
</event>
<event>
12    7  0.1675873E-007  0.1816566E+04  0.7818608E-02  0.8697539E-01
         -1   -1    0    0    0  501 -0.00000000000E+00  0.00000000000E+00  0.98574143504E+03  0.98574143504E+03  0.00000000000E+00 0.  1.
          2   -1    0    0  501    0  0.00000000000E+00 -0.00000000000E+00 -0.83691079928E+03  0.83691079928E+03  0.00000000000E+00 0. -1.
         24    2    1    2    0    0 -0.51598741416E+03  0.39683745388E+03 -0.15643145487E+03  0.67419863035E+03  0.79686992104E+02 0.  0.
        254    2    1    2    0    0  0.51598741416E+03 -0.39683745388E+03  0.30526209064E+03  0.11484536040E+04  0.89556560905E+03 0.  0.
         23    2    4    4    0    0  0.65036124449E+03  0.29954853208E+01  0.80654507588E+02  0.66168563933E+03  0.91345576996E+02 0.  0.
         23    2    4    4    0    0 -0.13437383033E+03 -0.39983293921E+03  0.22460758305E+03  0.48676796463E+03  0.92583905079E+02 0.  0.
          2    1    3    3  502    0 -0.21460993976E+03  0.13216807362E+03 -0.30974054941E+02  0.25393939830E+03  0.00000000000E+00 0. -1.
         -1    1    3    3    0  502 -0.30137747440E+03  0.26466938026E+03 -0.12545739993E+03  0.42025923205E+03  0.00000000000E+00 0.  1.
         13    1    5    5    0    0  0.15889199956E+03 -0.37560015220E+02  0.29299485222E+02  0.16587911894E+03  0.00000000000E+00 0.  1.
        -13    1    5    5    0    0  0.49146924494E+03  0.40555500541E+02  0.51355022366E+02  0.49580652039E+03  0.00000000000E+00 0. -1.
          2    1    6    6  503    0 -0.10572379648E+03 -0.38520123986E+03  0.21197310244E+03  0.45220582978E+03  0.00000000000E+00 0. -1.
         -2    1    6    6    0  503 -0.28650033846E+02 -0.14631699345E+02  0.12634480613E+02  0.34562134851E+02  0.00000000000E+00 0.  1.
<mgrwt>
<rscale>  0 0.18165656E+04</rscale>
<asrwt>0</asrwt>
<pdfrwt beam="1">  1        2 0.12875551E+00 0.18165656E+04</pdfrwt>
<pdfrwt beam="2">  1       -1 0.15165253E+00 0.18165656E+04</pdfrwt>
<totfact> 0.11816112E+01</totfact>
</mgrwt>
</event>
<event>
12    7  0.1675873E-007  0.1388359E+04  0.7818608E-02  0.8962288E-01
         -1   -1    0    0    0  501 -0.00000000000E+00  0.00000000000E+00  0.24845249046E+03  0.24845249046E+03  0.00000000000E+00 0.  1.
          2   -1    0    0  501    0  0.00000000000E+00 -0.00000000000E+00 -0.19395471178E+04  0.19395471178E+04  0.00000000000E+00 0. -1.
         24    2    1    2    0    0  0.94867395207E+01 -0.39612222694E+02 -0.11225828058E+04  0.11263745283E+04  0.82875181687E+02 0.  0.
        254    2    1    2    0    0 -0.94867395207E+01  0.39612222694E+02 -0.56851182156E+03  0.10616250800E+04  0.89564668970E+03 0.  0.
         23    2    4    4    0    0  0.54728946516E+02  0.14224240414E+03  0.20650301216E+03  0.27184995885E+03  0.89614435061E+02 0.  0.
         23    2    4    4    0    0 -0.64215686037E+02 -0.10263018145E+03 -0.77501483373E+03  0.78977512113E+03  0.91870239902E+02 0.  0.
          4    1    3    3  502    0  0.12957855306E+02 -0.59947783448E+02 -0.10137591230E+04  0.10156127225E+04  0.00000000000E+00 0. -1.
         -3    1    3    3    0  502 -0.34711157851E+01  0.20335560754E+02 -0.10882368280E+03  0.11076180575E+03  0.00000000000E+00 0.  1.
         13    1    5    5    0    0  0.66458094659E+02  0.49290533447E+02  0.10565522119E+03  0.13419858717E+03  0.00000000000E+00 0.  1.
        -13    1    5    5    0    0 -0.11729148142E+02  0.92951870692E+02  0.10084779097E+03  0.13765137168E+03  0.00000000000E+00 0. -1.
          1    1    6    6  503    0  0.47599601550E+01 -0.46945944918E+02 -0.46340633911E+03  0.46580254840E+03  0.00000000000E+00 0. -1.
         -1    1    6    6    0  503 -0.68975646192E+02 -0.55684236528E+02 -0.31160849462E+03  0.32397257273E+03  0.00000000000E+00 0.  1.
<mgrwt>
<rscale>  0 0.13883592E+04</rscale>
<asrwt>0</asrwt>
<pdfrwt beam="1">  1        2 0.29839186E+00 0.13883592E+04</pdfrwt>
<pdfrwt beam="2">  1       -1 0.38223461E-01 0.13883592E+04</pdfrwt>
<totfact> 0.53035183E+01</totfact>
</mgrwt>
</event>
<event>
12    7  0.1675873E-007  0.1800734E+04  0.7818608E-02  0.8705909E-01
         -1   -1    0    0    0  501 -0.00000000000E+00  0.00000000000E+00  0.43604195609E+03  0.43604195609E+03  0.00000000000E+00 0.  1.
          2   -1    0    0  501    0  0.00000000000E+00 -0.00000000000E+00 -0.18591356169E+04  0.18591356169E+04  0.00000000000E+00 0. -1.
         24    2    1    2    0    0  0.15305321369E+03  0.43856410994E+03 -0.11563862136E+04  0.12487036799E+04  0.79170958132E+02 0.  0.
        254    2    1    2    0    0 -0.15305321369E+03 -0.43856410994E+03 -0.26670744727E+03  0.10464738931E+04  0.89900555156E+03 0.  0.
         23    2    4    4    0    0 -0.30621365130E+03  0.14936445349E+03  0.46451373328E+02  0.35690431979E+03  0.95636934218E+02 0.  0.
         23    2    4    4    0    0  0.15316043761E+03 -0.58792856343E+03 -0.31315882060E+03  0.68956957330E+03  0.91212028575E+02 0.  0.
          4    1    3    3  502    0  0.15260619846E+03  0.44041248856E+03 -0.11314574104E+04  0.12237024489E+04  0.00000000000E+00 0. -1.
         -3    1    3    3    0  502  0.44701523099E+00 -0.18483786224E+01 -0.24928803159E+02  0.25001231031E+02  0.00000000000E+00 0.  1.
         13    1    5    5    0    0 -0.56250680063E+02  0.51579073401E+02 -0.22900261572E+02  0.79680372743E+02  0.00000000000E+00 0. -1.
        -13    1    5    5    0    0 -0.24996297124E+03  0.97785380093E+02  0.69351634901E+02  0.27722394704E+03  0.00000000000E+00 0.  1.
          1    1    6    6  503    0  0.66765968837E+02 -0.14249322259E+03 -0.50354954862E+02  0.16521995811E+03  0.00000000000E+00 0. -1.
         -1    1    6    6    0  503  0.86394468773E+02 -0.44543534085E+03 -0.26280386573E+03  0.52434961519E+03  0.00000000000E+00 0.  1.
<mgrwt>
<rscale>  0 0.18007344E+04</rscale>
<asrwt>0</asrwt>
<pdfrwt beam="1">  1        2 0.28602086E+00 0.18007344E+04</pdfrwt>
<pdfrwt beam="2">  1       -1 0.67083378E-01 0.18007344E+04</pdfrwt>
<totfact> 0.19361957E+01</totfact>
</mgrwt>
</event>
<event>
12    7  0.1675873E-007  0.1397065E+04  0.7818608E-02  0.8955946E-01
         -1   -1    0    0    0  501 -0.00000000000E+00  0.00000000000E+00  0.28676949241E+03  0.28676949241E+03  0.00000000000E+00 0.  1.
          2   -1    0    0  501    0  0.00000000000E+00 -0.00000000000E+00 -0.17015328376E+04  0.17015328376E+04  0.00000000000E+00 0. -1.
         24    2    1    2    0    0  0.13562782977E+03  0.36718762355E+03 -0.28504884109E+03  0.49096174182E+03  0.81048942202E+02 0.  0.
        254    2    1    2    0    0 -0.13562782977E+03 -0.36718762355E+03 -0.11297145041E+04  0.14973405882E+04  0.90141683874E+03 0.  0.
         23    2    4    4    0    0 -0.53314465642E+02 -0.46817991435E+03 -0.14680161941E+03  0.50170428873E+03  0.90119994587E+02 0.  0.
         23    2    4    4    0    0 -0.82313364125E+02  0.10099229080E+03 -0.98291288468E+03  0.99563629945E+03  0.90548159564E+02 0.  0.
          2    1    3    3  502    0  0.48089078156E+02  0.10637197599E+03 -0.13172158427E+03  0.17600605807E+03  0.00000000000E+00 0. -1.
         -1    1    3    3    0  502  0.87538751611E+02  0.26081564756E+03 -0.15332725681E+03  0.31495568375E+03  0.00000000000E+00 0.  1.
         13    1    5    5    0    0 -0.16225144897E+02 -0.27302396023E+03 -0.40767539486E+02  0.27652726893E+03  0.00000000000E+00 0. -1.
        -13    1    5    5    0    0 -0.37089320745E+02 -0.19515595412E+03 -0.10603407992E+03  0.22517701980E+03  0.00000000000E+00 0.  1.
          3    1    6    6  503    0 -0.55529590203E+02  0.82030315556E+01 -0.50150071861E+03  0.50463233733E+03  0.00000000000E+00 0. -1.
         -3    1    6    6    0  503 -0.26783773922E+02  0.92789259243E+02 -0.48141216607E+03  0.49100396211E+03  0.00000000000E+00 0.  1.
<mgrwt>
<rscale>  0 0.13970651E+04</rscale>
<asrwt>0</asrwt>
<pdfrwt beam="1">  1        2 0.26177428E+00 0.13970651E+04</pdfrwt>
<pdfrwt beam="2">  1       -1 0.44118385E-01 0.13970651E+04</pdfrwt>
<totfact> 0.55161624E+01</totfact>
</mgrwt>
</event>
<event>
12    7  0.1675873E-007  0.1507309E+04  0.7818608E-02  0.8879607E-01
          2   -1    0    0  501    0  0.00000000000E+00  0.00000000000E+00  0.13063232234E+04  0.13063232234E+04  0.00000000000E+00 0. -1.
         -1   -1    0    0    0  501 -0.00000000000E+00 -0.00000000000E+00 -0.43480440412E+03  0.43480440412E+03  0.00000000000E+00 0.  1.
         24    2    1    2    0    0  0.17482605355E+03  0.46849140834E+02  0.79183907619E+03  0.81635341153E+03  0.81638097386E+02 0.  0.
        254    2    1    2    0    0 -0.17482605355E+03 -0.46849140834E+02  0.79679743093E+02  0.92477421599E+03  0.90338225470E+03 0.  0.
         23    2    4    4    0    0 -0.11546488137E+03  0.41695797142E+03  0.64191963442E+02  0.44661275999E+03  0.90312017211E+02 0.  0.
         23    2    4    4    0    0 -0.59361172182E+02 -0.46380711226E+03  0.15487779651E+02  0.47816145600E+03  0.98781175056E+02 0.  0.
          4    1    3    3  502    0  0.69137857282E+02  0.57701845696E+02  0.42516981160E+03  0.43460201910E+03  0.00000000000E+00 0. -1.
         -3    1    3    3    0  502  0.10568819627E+03 -0.10852704863E+02  0.36666926459E+03  0.38175139243E+03  0.00000000000E+00 0.  1.
         13    1    5    5    0    0 -0.11334331670E+03  0.42088975414E+03  0.59154723485E+02  0.43987972662E+03  0.00000000000E+00 0.  1.
        -13    1    5    5    0    0 -0.21215646712E+01 -0.39317827172E+01  0.50372399566E+01  0.67330333706E+01  0.00000000000E+00 0. -1.
          2    1    6    6  503    0 -0.15225514076E+02 -0.10950982396E+03 -0.38484060276E+02  0.11706938421E+03  0.00000000000E+00 0. -1.
         -2    1    6    6    0  503 -0.44135658106E+02 -0.35429728829E+03  0.53971839927E+02  0.36109207179E+03  0.00000000000E+00 0.  1.
<mgrwt>
<rscale>  0 0.15073090E+04</rscale>
<asrwt>0</asrwt>
<pdfrwt beam="1">  1        2 0.20097280E+00 0.15073090E+04</pdfrwt>
<pdfrwt beam="2">  1       -1 0.66892986E-01 0.15073090E+04</pdfrwt>
<totfact> 0.40852781E+01</totfact>
</mgrwt>
</event>
<event>
12    7  0.1675873E-007  0.1671637E+04  0.7818608E-02  0.8777708E-01
         -1   -1    0    0    0  501 -0.00000000000E+00  0.00000000000E+00  0.38914385058E+03  0.38914385058E+03  0.00000000000E+00 0.  1.
          2   -1    0    0  501    0  0.00000000000E+00 -0.00000000000E+00 -0.17952034795E+04  0.17952034795E+04  0.00000000000E+00 0. -1.
         24    2    1    2    0    0 -0.36118682102E+03  0.19601090731E+03  0.61741864040E+02  0.42271357577E+03  0.77450073596E+02 0.  0.
        254    2    1    2    0    0  0.36118682102E+03 -0.19601090731E+03 -0.14678014930E+04  0.17616337543E+04  0.88319650482E+03 0.  0.
         23    2    4    4    0    0 -0.15453267855E+03 -0.37757121211E+03 -0.67826529157E+03  0.79670402606E+03  0.90846741471E+02 0.  0.
         23    2    4    4    0    0  0.51571949957E+03  0.18156030479E+03 -0.78953620139E+03  0.96492972825E+03  0.93761509400E+02 0.  0.
          4    1    3    3  502    0 -0.14225721535E+03  0.57872424057E+02 -0.10552831001E+02  0.15394055680E+03  0.00000000000E+00 0. -1.
         -3    1    3    3    0  502 -0.21892960567E+03  0.13813848326E+03  0.72294695041E+02  0.26877301897E+03  0.00000000000E+00 0.  1.
         13    1    5    5    0    0 -0.12793223121E+03 -0.34031277682E+03 -0.53938808656E+03  0.65047594097E+03  0.00000000000E+00 0.  1.
        -13    1    5    5    0    0 -0.26600447345E+02 -0.37258435284E+02 -0.13887720501E+03  0.14622808509E+03  0.00000000000E+00 0. -1.
          3    1    6    6  503    0  0.78156860595E+01  0.11693589683E+02 -0.48024106219E+01  0.14862305879E+02  0.00000000000E+00 0. -1.
         -3    1    6    6    0  503  0.50790381351E+03  0.16986671511E+03 -0.78473379077E+03  0.95006742238E+03  0.00000000000E+00 0.  1.
<mgrwt>
<rscale>  0 0.16716368E+04</rscale>
<asrwt>0</asrwt>
<pdfrwt beam="1">  1        2 0.27618515E+00 0.16716368E+04</pdfrwt>
<pdfrwt beam="2">  1       -1 0.59868286E-01 0.16716368E+04</pdfrwt>
<totfact> 0.26678421E+01</totfact>
</mgrwt>
</event>
<event>
12    7  0.1675873E-007  0.2976910E+04  0.7818608E-02  0.8250355E-01
          2   -1    0    0  501    0  0.00000000000E+00  0.00000000000E+00  0.23445295041E+04  0.23445295041E+04  0.00000000000E+00 0. -1.
         -1   -1    0    0    0  501 -0.00000000000E+00 -0.00000000000E+00 -0.94496503136E+03  0.94496503136E+03  0.00000000000E+00 0.  1.
         24    2    1    2    0    0  0.59589927874E+03  0.87116268273E+03 -0.30148534208E+03  0.11005717877E+04  0.79652232523E+02 0.  0.
        254    2    1    2    0    0 -0.59589927874E+03 -0.87116268273E+03  0.17010498148E+04  0.21889227477E+04  0.88532025448E+03 0.  0.
         23    2    4    4    0    0 -0.13227619234E+03 -0.26781395068E+03 -0.11944370727E+02  0.31236518897E+03  0.90598234234E+02 0.  0.
         23    2    4    4    0    0 -0.46362308640E+03 -0.60334873205E+03  0.17129941855E+04  0.18765575588E+04  0.90239310052E+02 0.  0.
          4    1    3    3  502    0  0.25398193995E+02  0.17147076071E+02 -0.17878710004E+01  0.30696692960E+02  0.00000000000E+00 0. -1.
         -3    1    3    3    0  502  0.57050108475E+03  0.85401560666E+03 -0.29969747108E+03  0.10698750947E+04  0.00000000000E+00 0.  1.
         13    1    5    5    0    0 -0.32859405807E+02 -0.66152444476E+02  0.36468731339E+02  0.82376300145E+02  0.00000000000E+00 0.  1.
        -13    1    5    5    0    0 -0.99416786537E+02 -0.20166150620E+03 -0.48413102066E+02  0.22998888882E+03  0.00000000000E+00 0. -1.
          3    1    6    6  503    0 -0.16455784241E+03 -0.28303814796E+03  0.69549930089E+03  0.76870615598E+03  0.00000000000E+00 0. -1.
         -3    1    6    6    0  503 -0.29906524399E+03 -0.32031058409E+03  0.10174948846E+04  0.11078514028E+04  0.00000000000E+00 0.  1.
<mgrwt>
<rscale>  0 0.29769101E+04</rscale>
<asrwt>0</asrwt>
<pdfrwt beam="1">  1        2 0.36069685E+00 0.29769101E+04</pdfrwt>
<pdfrwt beam="2">  1       -1 0.14537924E+00 0.29769101E+04</pdfrwt>
<totfact> 0.15819750E+00</totfact>
</mgrwt>
</event>
<event>
12    7  0.1675873E-007  0.2872350E+04  0.7818608E-02  0.8281152E-01
          2   -1    0    0  501    0  0.00000000000E+00  0.00000000000E+00  0.24478458240E+04  0.24478458240E+04  0.00000000000E+00 0. -1.
         -1   -1    0    0    0  501 -0.00000000000E+00 -0.00000000000E+00 -0.84261761654E+03  0.84261761654E+03  0.00000000000E+00 0.  1.
         24    2    1    2    0    0  0.52523346023E+03 -0.62664390687E+03  0.18771279652E+04  0.20490741242E+04  0.80886307439E+02 0.  0.
        254    2    1    2    0    0 -0.52523346023E+03  0.62664390687E+03 -0.27189975772E+03  0.12413893164E+04  0.89362474391E+03 0.  0.
         23    2    4    4    0    0 -0.56577623102E+03  0.85259738805E+02 -0.36170575307E+03  0.68279464509E+03  0.89473509507E+02 0.  0.
         23    2    4    4    0    0  0.40542770794E+02  0.54138416806E+03  0.89805995358E+02  0.55859467133E+03  0.96033100262E+02 0.  0.
          2    1    3    3  502    0  0.39379536451E+03 -0.41262431103E+03  0.12881752386E+04  0.14088041228E+04  0.00000000000E+00 0. -1.
         -1    1    3    3    0  502  0.13143809572E+03 -0.21401959584E+03  0.58895272661E+03  0.64027000132E+03  0.00000000000E+00 0.  1.
         13    1    5    5    0    0 -0.66813148276E+02  0.54306060980E+01 -0.11549136004E+02  0.68021105603E+02  0.00000000000E+00 0.  1.
        -13    1    5    5    0    0 -0.49896308275E+03  0.79829132707E+02 -0.35015661707E+03  0.61477353949E+03  0.00000000000E+00 0. -1.
          3    1    6    6  503    0  0.10953281825E+01  0.37965774082E+03  0.97398950817E+02  0.39195376708E+03  0.00000000000E+00 0. -1.
         -3    1    6    6    0  503  0.39447442611E+02  0.16172642725E+03 -0.75929554589E+01  0.16664090426E+03  0.00000000000E+00 0.  1.
<mgrwt>
<rscale>  0 0.28723496E+04</rscale>
<asrwt>0</asrwt>
<pdfrwt beam="1">  1        2 0.37659166E+00 0.28723496E+04</pdfrwt>
<pdfrwt beam="2">  1       -1 0.12963348E+00 0.28723496E+04</pdfrwt>
<totfact> 0.18738654E+00</totfact>
</mgrwt>
</event>
<event>
12    7  0.1675873E-007  0.1774518E+04  0.7818608E-02  0.8719969E-01
         -1   -1    0    0    0  501 -0.00000000000E+00  0.00000000000E+00  0.57160102607E+03  0.57160102607E+03  0.00000000000E+00 0.  1.
          2   -1    0    0  501    0  0.00000000000E+00 -0.00000000000E+00 -0.13772335425E+04  0.13772335425E+04  0.00000000000E+00 0. -1.
         24    2    1    2    0    0  0.53039095655E+03  0.29947101624E+03 -0.32698162195E+02  0.61552697843E+03  0.82503545383E+02 0.  0.
        254    2    1    2    0    0 -0.53039095655E+03 -0.29947101624E+03 -0.77293435419E+03  0.13333075901E+04  0.89960222187E+03 0.  0.
         23    2    4    4    0    0 -0.25040982296E+03 -0.47287654851E+03 -0.82465234151E+03  0.98769613011E+03  0.95785445202E+02 0.  0.
         23    2    4    4    0    0 -0.27998113358E+03  0.17340553227E+03  0.51717987320E+02  0.34561145999E+03  0.91179039694E+02 0.  0.
          4    1    3    3  502    0  0.39511376140E+03  0.20920742667E+03  0.10696230774E+02  0.44721028743E+03  0.00000000000E+00 0. -1.
         -3    1    3    3    0  502  0.13527719514E+03  0.90263589569E+02 -0.43394392969E+02  0.16831669100E+03  0.00000000000E+00 0.  1.
         13    1    5    5    0    0 -0.11069693380E+03 -0.27599111444E+03 -0.51957990683E+03  0.59865531484E+03  0.00000000000E+00 0. -1.
        -13    1    5    5    0    0 -0.13971288916E+03 -0.19688543407E+03 -0.30507243467E+03  0.38904081527E+03  0.00000000000E+00 0.  1.
          2    1    6    6  503    0 -0.28574939318E+03  0.16096521240E+03  0.48596334118E+02  0.33154806438E+03  0.00000000000E+00 0. -1.
         -2    1    6    6    0  503  0.57682595983E+01  0.12440319871E+02  0.31216532016E+01  0.14063395607E+02  0.00000000000E+00 0.  1.
<mgrwt>
<rscale>  0 0.17745175E+04</rscale>
<asrwt>0</asrwt>
<pdfrwt beam="1">  1        2 0.21188208E+00 0.17745175E+04</pdfrwt>
<pdfrwt beam="2">  1       -1 0.87938620E-01 0.17745175E+04</pdfrwt>
<totfact> 0.20440264E+01</totfact>
</mgrwt>
</event>
<event>
12    7  0.1675873E-007  0.2789656E+04  0.7818608E-02  0.8306487E-01
         -1   -1    0    0    0  501 -0.00000000000E+00  0.00000000000E+00  0.10600697010E+04  0.10600697010E+04  0.00000000000E+00 0.  1.
          2   -1    0    0  501    0  0.00000000000E+00 -0.00000000000E+00 -0.18352993542E+04  0.18352993542E+04  0.00000000000E+00 0. -1.
         24    2    1    2    0    0  0.11319143863E+03 -0.10347011649E+04  0.36268176874E+03  0.11051229302E+04  0.79623005744E+02 0.  0.
        254    2    1    2    0    0 -0.11319143863E+03  0.10347011649E+04 -0.11379114219E+04  0.17902461249E+04  0.90924143184E+03 0.  0.
         23    2    4    4    0    0 -0.45415428638E+03  0.86399830116E+03 -0.90599113678E+03  0.13347482240E+04  0.89351559804E+02 0.  0.
         23    2    4    4    0    0  0.34096284775E+03  0.17070286374E+03 -0.23192028511E+03  0.45549790097E+03  0.91083411806E+02 0.  0.
          4    1    3    3  502    0  0.80877376442E+02 -0.68829886298E+03  0.20178348615E+03  0.72181233716E+03  0.00000000000E+00 0. -1.
         -3    1    3    3    0  502  0.32314062192E+02 -0.34640230193E+03  0.16089828258E+03  0.38331059303E+03  0.00000000000E+00 0.  1.
         13    1    5    5    0    0 -0.43302613318E+03  0.82524581573E+03 -0.88736659495E+03  0.12868417782E+04  0.00000000000E+00 0. -1.
        -13    1    5    5    0    0 -0.21128153200E+02  0.38752485426E+02 -0.18624541833E+02  0.47906445734E+02  0.00000000000E+00 0.  1.
          3    1    6    6  503    0  0.32482365094E+03  0.14813810440E+03 -0.23526150321E+03  0.42755499890E+03  0.00000000000E+00 0. -1.
         -3    1    6    6    0  503  0.16139196808E+02  0.22564759343E+02  0.33412181053E+01  0.27942902073E+02  0.00000000000E+00 0.  1.
<mgrwt>
<rscale>  0 0.27896561E+04</rscale>
<asrwt>0</asrwt>
<pdfrwt beam="1">  1        2 0.28235375E+00 0.27896561E+04</pdfrwt>
<pdfrwt beam="2">  1       -1 0.16308765E+00 0.27896561E+04</pdfrwt>
<totfact> 0.22641651E+00</totfact>
</mgrwt>
</event>
<event>
12    7  0.1675873E-007  0.1284293E+04  0.7818608E-02  0.9042114E-01
         -1   -1    0    0    0  501 -0.00000000000E+00  0.00000000000E+00  0.50959518110E+03  0.50959518110E+03  0.00000000000E+00 0.  1.
          2   -1    0    0  501    0  0.00000000000E+00 -0.00000000000E+00 -0.80917622884E+03  0.80917622884E+03  0.00000000000E+00 0. -1.
         24    2    1    2    0    0 -0.44068217364E+02  0.80721945702E+02  0.23953070369E+03  0.26858063037E+03  0.79388643420E+02 0.  0.
        254    2    1    2    0    0  0.44068217364E+02 -0.80721945702E+02 -0.53911175142E+03  0.10501907796E+04  0.89654958181E+03 0.  0.
         23    2    4    4    0    0  0.36060483456E+03  0.22633855427E+03 -0.17032099370E+03  0.46738453152E+03  0.90410572124E+02 0.  0.
         23    2    4    4    0    0 -0.31653661719E+03 -0.30706049997E+03 -0.36879075773E+03  0.58280624804E+03  0.95785798056E+02 0.  0.
          4    1    3    3  502    0  0.91971784570E+01  0.99259907066E+01  0.36969165770E+00  0.13536988402E+02  0.00000000000E+00 0. -1.
         -3    1    3    3    0  502 -0.53265395821E+02  0.70795954995E+02  0.23916101203E+03  0.25504364197E+03  0.00000000000E+00 0.  1.
         13    1    5    5    0    0  0.14405771307E+03  0.90834945725E+02 -0.21260685610E+02  0.17162642224E+03  0.00000000000E+00 0. -1.
        -13    1    5    5    0    0  0.21654712149E+03  0.13550360854E+03 -0.14906030809E+03  0.29575810927E+03  0.00000000000E+00 0.  1.
          3    1    6    6  503    0 -0.11120105370E+03 -0.10474620316E+03 -0.71364805531E+02  0.16861309821E+03  0.00000000000E+00 0. -1.
         -3    1    6    6    0  503 -0.20533556349E+03 -0.20231429682E+03 -0.29742595220E+03  0.41419314984E+03  0.00000000000E+00 0.  1.
<mgrwt>
<rscale>  0 0.12842933E+04</rscale>
<asrwt>0</asrwt>
<pdfrwt beam="1">  1        2 0.12448865E+00 0.12842933E+04</pdfrwt>
<pdfrwt beam="2">  1       -1 0.78399259E-01 0.12842933E+04</pdfrwt>
<totfact> 0.61909665E+01</totfact>
</mgrwt>
</event>
<event>
12    7  0.1675873E-007  0.1209649E+04  0.7818608E-02  0.9104453E-01
         -1   -1    0    0    0  501 -0.00000000000E+00  0.00000000000E+00  0.27277450465E+03  0.27277450465E+03  0.00000000000E+00 0.  1.
          2   -1    0    0  501    0  0.00000000000E+00 -0.00000000000E+00 -0.13410805482E+04  0.13410805482E+04  0.00000000000E+00 0. -1.
         24    2    1    2    0    0 -0.89877085664E+02 -0.19744720114E+02  0.95967709417E+02  0.15184934830E+03  0.73353110551E+02 0.  0.
        254    2    1    2    0    0  0.89877085664E+02  0.19744720114E+02 -0.11642737529E+04  0.14620057045E+04  0.87946549892E+03 0.  0.
         23    2    4    4    0    0  0.60969102850E+02  0.29455267979E+03 -0.11261838853E+04  0.11691669985E+04  0.90458909393E+02 0.  0.
         23    2    4    4    0    0  0.28907982814E+02 -0.27480795967E+03 -0.38089867668E+02  0.29283870602E+03  0.89154829109E+02 0.  0.
          2    1    3    3  502    0 -0.26037978665E+01  0.17962738404E+02  0.21421181446E+01  0.18276443977E+02  0.00000000000E+00 0. -1.
         -1    1    3    3    0  502 -0.87273287797E+02 -0.37707458517E+02  0.93825591273E+02  0.13357290432E+03  0.00000000000E+00 0.  1.
         13    1    5    5    0    0  0.73782704759E+02  0.28497775101E+03 -0.10978324711E+04  0.11366144205E+04  0.00000000000E+00 0. -1.
        -13    1    5    5    0    0 -0.12813601909E+02  0.95749287724E+01 -0.28351414136E+02  0.32552578060E+02  0.00000000000E+00 0.  1.
          1    1    6    6  503    0  0.53423743549E+02 -0.23073010144E+03 -0.47449449909E+02  0.24154073442E+03  0.00000000000E+00 0. -1.
         -1    1    6    6    0  503 -0.24515760735E+02 -0.44077858233E+02  0.93595822415E+01  0.51297971603E+02  0.00000000000E+00 0.  1.
<mgrwt>
<rscale>  0 0.12096488E+04</rscale>
<asrwt>0</asrwt>
<pdfrwt beam="1">  1        2 0.20632009E+00 0.12096488E+04</pdfrwt>
<pdfrwt beam="2">  1       -1 0.41965308E-01 0.12096488E+04</pdfrwt>
<totfact> 0.98007145E+01</totfact>
</mgrwt>
</event>
<event>
12    7  0.1675873E-007  0.1291278E+04  0.7818608E-02  0.9036510E-01
         -1   -1    0    0    0  501 -0.00000000000E+00  0.00000000000E+00  0.34851257744E+03  0.34851257744E+03  0.00000000000E+00 0.  1.
          2   -1    0    0  501    0  0.00000000000E+00 -0.00000000000E+00 -0.11960825306E+04  0.11960825306E+04  0.00000000000E+00 0. -1.
         24    2    1    2    0    0  0.32237178417E+03 -0.85601455703E+02 -0.17055910682E+03  0.37868500156E+03  0.55324000564E+02 0.  0.
        254    2    1    2    0    0 -0.32237178417E+03  0.85601455703E+02 -0.67701084632E+03  0.11659101064E+04  0.88867964635E+03 0.  0.
         23    2    4    4    0    0 -0.11692591478E+02 -0.31392496138E+03 -0.14471932546E+02  0.32719367915E+03  0.90336419984E+02 0.  0.
         23    2    4    4    0    0 -0.31067919270E+03  0.39952641708E+03 -0.66253891377E+03  0.83871642729E+03  0.91348313794E+02 0.  0.
          2    1    3    3  502    0  0.14784221463E+03 -0.50253942869E+02 -0.10834669644E+03  0.19005732249E+03  0.00000000000E+00 0. -1.
         -1    1    3    3    0  502  0.17452956954E+03 -0.35347512834E+02 -0.62212410380E+02  0.18862767907E+03  0.00000000000E+00 0.  1.
         13    1    5    5    0    0 -0.93464128535E+01 -0.13451839911E+02 -0.21009463235E+02  0.26640288580E+02  0.00000000000E+00 0.  1.
        -13    1    5    5    0    0 -0.23461786248E+01 -0.30047312147E+03  0.65375306894E+01  0.30055339057E+03  0.00000000000E+00 0. -1.
          3    1    6    6  503    0 -0.23308982017E+03  0.35503635867E+03 -0.54002848096E+03  0.68703161535E+03  0.00000000000E+00 0. -1.
         -3    1    6    6    0  503 -0.77589372529E+02  0.44490058409E+02 -0.12251043281E+03  0.15168481194E+03  0.00000000000E+00 0.  1.
<mgrwt>
<rscale>  0 0.12912781E+04</rscale>
<asrwt>0</asrwt>
<pdfrwt beam="1">  1        2 0.18401270E+00 0.12912781E+04</pdfrwt>
<pdfrwt beam="2">  1       -1 0.53617320E-01 0.12912781E+04</pdfrwt>
<totfact> 0.74732514E+01</totfact>
</mgrwt>
</event>
<event>
12    7  0.1675873E-007  0.1585021E+04  0.7818608E-02  0.8829803E-01
          2   -1    0    0  501    0  0.00000000000E+00  0.00000000000E+00  0.34818634866E+04  0.34818634866E+04  0.00000000000E+00 0. -1.
         -1   -1    0    0    0  501 -0.00000000000E+00 -0.00000000000E+00 -0.18038418962E+03  0.18038418962E+03  0.00000000000E+00 0.  1.
         24    2    1    2    0    0 -0.15287942027E+03  0.50947554954E+03  0.12023880527E+04  0.13172175554E+04  0.79922502231E+02 0.  0.
        254    2    1    2    0    0  0.15287942027E+03 -0.50947554954E+03  0.20990912443E+04  0.23450301208E+04  0.90002486791E+03 0.  0.
         23    2    4    4    0    0 -0.24595655996E+03 -0.36753394068E+03  0.16897022140E+04  0.17489316226E+04  0.89957887907E+02 0.  0.
         23    2    4    4    0    0  0.39883598022E+03 -0.14194160886E+03  0.40938903032E+03  0.59609849822E+03  0.92284787427E+02 0.  0.
          4    1    3    3  502    0 -0.25324290173E+02  0.90703227065E+02  0.29656690263E+03  0.31115964200E+03  0.00000000000E+00 0. -1.
         -1    1    3    3    0  502 -0.12755513009E+03  0.41877232248E+03  0.90582115007E+03  0.10060579134E+04  0.00000000000E+00 0.  1.
         13    1    5    5    0    0 -0.24571762721E+03 -0.36261560999E+03  0.16876991294E+04  0.17436156642E+04  0.00000000000E+00 0. -1.
        -13    1    5    5    0    0 -0.23893275266E+00 -0.49183306952E+01  0.20030845132E+01  0.53159583571E+01  0.00000000000E+00 0.  1.
          4    1    6    6  503    0  0.40073874735E+03 -0.14600517649E+03  0.40994460249E+03  0.59157724120E+03  0.00000000000E+00 0. -1.
         -4    1    6    6    0  503 -0.19027671223E+01  0.40635676340E+01 -0.55557217702E+00  0.45212570245E+01  0.00000000000E+00 0.  1.
<mgrwt>
<rscale>  0 0.15850213E+04</rscale>
<asrwt>0</asrwt>
<pdfrwt beam="1">  1        2 0.53567126E+00 0.15850213E+04</pdfrwt>
<pdfrwt beam="2">  1       -1 0.27751416E-01 0.15850213E+04</pdfrwt>
<totfact> 0.10828495E+01</totfact>
</mgrwt>
</event>
<event>
12    7  0.1675873E-007  0.2235332E+04  0.7818608E-02  0.8503864E-01
          2   -1    0    0  501    0  0.00000000000E+00  0.00000000000E+00  0.16287599248E+04  0.16287599248E+04  0.00000000000E+00 0. -1.
         -1   -1    0    0    0  501 -0.00000000000E+00 -0.00000000000E+00 -0.76695008534E+03  0.76695008534E+03  0.00000000000E+00 0.  1.
         24    2    1    2    0    0 -0.52262788776E+03  0.68478123611E+03 -0.26007145627E+02  0.86545599154E+03  0.79198808505E+02 0.  0.
        254    2    1    2    0    0  0.52262788776E+03 -0.68478123611E+03  0.88781698514E+03  0.15302540186E+04  0.90077361867E+03 0.  0.
         23    2    4    4    0    0  0.12561810256E+03  0.18160039743E+03  0.22580075431E+02  0.23986981959E+03  0.90934363732E+02 0.  0.
         23    2    4    4    0    0  0.39700978520E+03 -0.86638163354E+03  0.86523690971E+03  0.12903841991E+04  0.90678369973E+02 0.  0.
          4    1    3    3  502    0 -0.20996056247E+03  0.27487310865E+03 -0.49311714818E+02  0.34938561629E+03  0.00000000000E+00 0. -1.
         -3    1    3    3    0  502 -0.31266732529E+03  0.40990812746E+03  0.23304569191E+02  0.51607037525E+03  0.00000000000E+00 0.  1.
         13    1    5    5    0    0  0.12860211158E+03  0.18601852124E+03  0.10181661513E+02  0.22637371662E+03  0.00000000000E+00 0. -1.
        -13    1    5    5    0    0 -0.29840090124E+01 -0.44181238098E+01  0.12398413917E+02  0.13496102973E+02  0.00000000000E+00 0.  1.
          2    1    6    6  503    0  0.36853231152E+03 -0.83996455568E+03  0.81613406407E+03  0.12277749509E+04  0.00000000000E+00 0. -1.
         -2    1    6    6    0  503  0.28477473674E+02 -0.26417077857E+02  0.49102845639E+02  0.62609248193E+02  0.00000000000E+00 0.  1.
<mgrwt>
<rscale>  0 0.22353322E+04</rscale>
<asrwt>0</asrwt>
<pdfrwt beam="1">  1        2 0.25057845E+00 0.22353322E+04</pdfrwt>
<pdfrwt beam="2">  1       -1 0.11799232E+00 0.22353322E+04</pdfrwt>
<totfact> 0.71963096E+00</totfact>
</mgrwt>
</event>
<event>
12    7  0.1675873E-007  0.1812523E+04  0.7818608E-02  0.8699668E-01
          2   -1    0    0  501    0  0.00000000000E+00  0.00000000000E+00  0.22582678588E+04  0.22582678588E+04  0.00000000000E+00 0. -1.
         -1   -1    0    0    0  501 -0.00000000000E+00 -0.00000000000E+00 -0.36369033525E+03  0.36369033525E+03  0.00000000000E+00 0.  1.
         24    2    1    2    0    0  0.44087815107E+03  0.35677248477E+03  0.17195200366E+03  0.59818549387E+03  0.81229573060E+02 0.  0.
        254    2    1    2    0    0 -0.44087815107E+03 -0.35677248477E+03  0.17226255199E+04  0.20237727002E+04  0.89808524663E+03 0.  0.
         23    2    4    4    0    0 -0.31542606277E+03 -0.58472914613E+03  0.15716538048E+04  0.17087937725E+04  0.92079854070E+02 0.  0.
         23    2    4    4    0    0 -0.12545208830E+03  0.22795666136E+03  0.15097171513E+03  0.31497892766E+03  0.93363805536E+02 0.  0.
          4    1    3    3  502    0  0.11152646250E+03  0.47784437057E+02  0.37093359219E+02  0.12687561452E+03  0.00000000000E+00 0. -1.
         -3    1    3    3    0  502  0.32935168857E+03  0.30898804771E+03  0.13485864444E+03  0.47130987935E+03  0.00000000000E+00 0.  1.
         13    1    5    5    0    0 -0.28520435024E+03 -0.56317013737E+03  0.14464294583E+04  0.15781825949E+04  0.00000000000E+00 0.  1.
        -13    1    5    5    0    0 -0.30221712525E+02 -0.21559008755E+02  0.12522434652E+03  0.13061117765E+03  0.00000000000E+00 0. -1.
          1    1    6    6  503    0 -0.39912539958E+02  0.69172784230E+02  0.99169425977E+02  0.12732815860E+03  0.00000000000E+00 0. -1.
         -1    1    6    6    0  503 -0.85539548344E+02  0.15878387713E+03  0.51802289148E+02  0.18765076906E+03  0.00000000000E+00 0.  1.
<mgrwt>
<rscale>  0 0.18125233E+04</rscale>
<asrwt>0</asrwt>
<pdfrwt beam="1">  1        2 0.34742582E+00 0.18125233E+04</pdfrwt>
<pdfrwt beam="2">  1       -1 0.55952360E-01 0.18125233E+04</pdfrwt>
<totfact> 0.16619044E+01</totfact>
</mgrwt>
</event>
<event>
12    7  0.1675873E-007  0.3516846E+04  0.7818608E-02  0.8109809E-01
         -1   -1    0    0    0  501 -0.00000000000E+00  0.00000000000E+00  0.19879943002E+04  0.19879943002E+04  0.00000000000E+00 0.  1.
          2   -1    0    0  501    0  0.00000000000E+00 -0.00000000000E+00 -0.15553627298E+04  0.15553627298E+04  0.00000000000E+00 0. -1.
         24    2    1    2    0    0  0.14945781571E+03 -0.55320471906E+03 -0.13497119988E+04  0.14684254440E+04  0.78598378312E+02 0.  0.
        254    2    1    2    0    0 -0.14945781571E+03  0.55320471906E+03  0.17823435692E+04  0.20749315860E+04  0.89454982419E+03 0.  0.
         23    2    4    4    0    0 -0.30302949889E+03  0.19839648220E+03  0.15871332979E+03  0.40379104061E+03  0.81665427686E+02 0.  0.
         23    2    4    4    0    0  0.15357168318E+03  0.35480823686E+03  0.16236302394E+04  0.16711405454E+04  0.84038212868E+02 0.  0.
          2    1    3    3  502    0  0.15738708048E+03 -0.51728046870E+03 -0.12415216508E+04  0.13541513157E+04  0.00000000000E+00 0. -1.
         -1    1    3    3    0  502 -0.79292647672E+01 -0.35924250354E+02 -0.10819034796E+03  0.11427412828E+03  0.00000000000E+00 0.  1.
         13    1    5    5    0    0 -0.11346247717E+03  0.11778688497E+03  0.89781646131E+02  0.18656963305E+03  0.00000000000E+00 0.  1.
        -13    1    5    5    0    0 -0.18956702172E+03  0.80609597230E+02  0.68931683661E+02  0.21722140756E+03  0.00000000000E+00 0. -1.
          4    1    6    6  503    0  0.51259662005E+02  0.92083809292E+02  0.60964152284E+03  0.61868389930E+03  0.00000000000E+00 0.  1.
         -4    1    6    6    0  503  0.10231202118E+03  0.26272442757E+03  0.10139887166E+04  0.10524566461E+04  0.00000000000E+00 0. -1.
<mgrwt>
<rscale>  0 0.35168465E+04</rscale>
<asrwt>0</asrwt>
<pdfrwt beam="1">  1        2 0.23928657E+00 0.35168465E+04</pdfrwt>
<pdfrwt beam="2">  1       -1 0.30584528E+00 0.35168465E+04</pdfrwt>
<totfact> 0.33392644E-01</totfact>
</mgrwt>
</event>
<event>
12    7  0.1675873E-007  0.1682485E+04  0.7818608E-02  0.8771417E-01
         -1   -1    0    0    0  501 -0.00000000000E+00  0.00000000000E+00  0.10967445889E+04  0.10967445889E+04  0.00000000000E+00 0.  1.
          2   -1    0    0  501    0  0.00000000000E+00 -0.00000000000E+00 -0.64526323154E+03  0.64526323154E+03  0.00000000000E+00 0. -1.
         24    2    1    2    0    0 -0.21764459421E+03 -0.40530455199E+03 -0.22709546010E+03  0.51939714341E+03  0.80994415421E+02 0.  0.
        254    2    1    2    0    0  0.21764459421E+03  0.40530455199E+03  0.67857681746E+03  0.12226106770E+04  0.90701125745E+03 0.  0.
         23    2    4    4    0    0  0.83449274770E+02  0.56658230078E+03  0.84415742691E+02  0.58590964689E+03  0.90469949038E+02 0.  0.
         23    2    4    4    0    0  0.13419531944E+03 -0.16127774879E+03  0.59416107477E+03  0.63670103015E+03  0.91334128361E+02 0.  0.
          2    1    3    3  502    0 -0.18674086778E+03 -0.37191774424E+03 -0.17850843275E+03  0.45283575471E+03  0.00000000000E+00 0. -1.
         -3    1    3    3    0  502 -0.30903726432E+02 -0.33386807755E+02 -0.48587027350E+02  0.66561388704E+02  0.00000000000E+00 0.  1.
         13    1    5    5    0    0  0.40345178131E+01  0.32061208970E+03  0.32557343074E+02  0.32228616164E+03  0.00000000000E+00 0.  1.
        -13    1    5    5    0    0  0.79414756957E+02  0.24597021109E+03  0.51858399618E+02  0.26362348525E+03  0.00000000000E+00 0. -1.
          3    1    6    6  503    0  0.76968965199E+02 -0.15046284340E+03  0.40722995340E+03  0.44090761368E+03  0.00000000000E+00 0. -1.
         -3    1    6    6    0  503  0.57226354242E+02 -0.10814905393E+02  0.18693112137E+03  0.19579341647E+03  0.00000000000E+00 0.  1.
<mgrwt>
<rscale>  0 0.16824850E+04</rscale>
<asrwt>0</asrwt>
<pdfrwt beam="1">  1        2 0.99271266E-01 0.16824850E+04</pdfrwt>
<pdfrwt beam="2">  1       -1 0.16872994E+00 0.16824850E+04</pdfrwt>
<totfact> 0.12415057E+01</totfact>
</mgrwt>
</event>
<event>
12    7  0.1675873E-007  0.1761546E+04  0.7818608E-02  0.8727020E-01
         -1   -1    0    0    0  501 -0.00000000000E+00  0.00000000000E+00  0.55523051029E+03  0.55523051029E+03  0.00000000000E+00 0.  1.
          2   -1    0    0  501    0  0.00000000000E+00 -0.00000000000E+00 -0.13971878745E+04  0.13971878745E+04  0.00000000000E+00 0. -1.
         24    2    1    2    0    0 -0.63697696513E+03  0.11718527442E+03 -0.34193698223E+03  0.73818361278E+03  0.92315240964E+02 0.  0.
        254    2    1    2    0    0  0.63697696513E+03 -0.11718527442E+03 -0.50002038199E+03  0.12142347720E+04  0.89714751100E+03 0.  0.
         23    2    4    4    0    0  0.53702510046E+03 -0.10881299060E+03 -0.74778134510E+03  0.93175850582E+03  0.93598865625E+02 0.  0.
         23    2    4    4    0    0  0.99951864672E+02 -0.83722838229E+01  0.24776096311E+03  0.28247626618E+03  0.91361237559E+02 0.  0.
          4    1    3    3  502    0 -0.21888175272E+03  0.42811818783E+02 -0.16826742003E+03  0.27938503565E+03  0.00000000000E+00 0. -1.
         -3    1    3    3    0  502 -0.41809521241E+03  0.74373455641E+02 -0.17366956220E+03  0.45879857713E+03  0.00000000000E+00 0.  1.
         13    1    5    5    0    0  0.15386983672E+02 -0.22302031431E+02 -0.34910783187E+02  0.44191658208E+02  0.00000000000E+00 0.  1.
        -13    1    5    5    0    0  0.52163811679E+03 -0.86510959170E+02 -0.71287056191E+03  0.88756684761E+03  0.00000000000E+00 0. -1.
          4    1    6    6  503    0  0.94000551449E+02 -0.37923537979E+02  0.21647513456E+03  0.23903092329E+03  0.00000000000E+00 0. -1.
         -4    1    6    6    0  503  0.59513132231E+01  0.29551254156E+02  0.31285828552E+02  0.43445342897E+02  0.00000000000E+00 0.  1.
<mgrwt>
<rscale>  0 0.17615463E+04</rscale>
<asrwt>0</asrwt>
<pdfrwt beam="1">  1        2 0.21495198E+00 0.17615463E+04</pdfrwt>
<pdfrwt beam="2">  1       -1 0.85420078E-01 0.17615463E+04</pdfrwt>
<totfact> 0.21233515E+01</totfact>
</mgrwt>
</event>
<event>
12    7  0.1675873E-007  0.1306091E+04  0.7818608E-02  0.9024749E-01
         -1   -1    0    0    0  501 -0.00000000000E+00  0.00000000000E+00  0.33763869630E+03  0.33763869630E+03  0.00000000000E+00 0.  1.
          2   -1    0    0  501    0  0.00000000000E+00 -0.00000000000E+00 -0.12630910885E+04  0.12630910885E+04  0.00000000000E+00 0. -1.
         24    2    1    2    0    0 -0.32901728403E+03  0.68837337446E+02 -0.17547467580E+03  0.38682325816E+03  0.76484763102E+02 0.  0.
        254    2    1    2    0    0  0.32901728403E+03 -0.68837337446E+02 -0.74997771637E+03  0.12139065266E+04  0.89337087935E+03 0.  0.
         23    2    4    4    0    0  0.40815528515E+03 -0.38613999038E+03 -0.28029820805E+03  0.63442680300E+03  0.90749401937E+02 0.  0.
         23    2    4    4    0    0 -0.79138001124E+02  0.31730265294E+03 -0.46967950832E+03  0.57947972361E+03  0.90852147776E+02 0.  0.
          2    1    3    3  502    0 -0.20619315046E+03  0.20194908025E+02 -0.13996917959E+03  0.25002963993E+03  0.00000000000E+00 0. -1.
         -1    1    3    3    0  502 -0.12282413357E+03  0.48642429421E+02 -0.35505496207E+02  0.13679361823E+03  0.00000000000E+00 0.  1.
         13    1    5    5    0    0  0.21710005829E+03 -0.14316874753E+03 -0.12755373274E+03  0.28965441533E+03  0.00000000000E+00 0.  1.
        -13    1    5    5    0    0  0.19105522686E+03 -0.24297124285E+03 -0.15274447531E+03  0.34477238767E+03  0.00000000000E+00 0. -1.
          4    1    6    6  503    0  0.23439815630E+01  0.84418870469E+02 -0.18098183674E+03  0.19971596123E+03  0.00000000000E+00 0. -1.
         -4    1    6    6    0  503 -0.81481982687E+02  0.23288378247E+03 -0.28869767158E+03  0.37976376238E+03  0.00000000000E+00 0.  1.
<mgrwt>
<rscale>  0 0.13060910E+04</rscale>
<asrwt>0</asrwt>
<pdfrwt beam="1">  1        2 0.19432171E+00 0.13060910E+04</pdfrwt>
<pdfrwt beam="2">  1       -1 0.51944415E-01 0.13060910E+04</pdfrwt>
<totfact> 0.72397772E+01</totfact>
</mgrwt>
</event>
<event>
12    7  0.1675873E-007  0.1774447E+04  0.7818608E-02  0.8720007E-01
          2   -1    0    0  501    0  0.00000000000E+00  0.00000000000E+00  0.11819800639E+04  0.11819800639E+04  0.00000000000E+00 0. -1.
         -1   -1    0    0    0  501 -0.00000000000E+00 -0.00000000000E+00 -0.66597227622E+03  0.66597227622E+03  0.00000000000E+00 0.  1.
         24    2    1    2    0    0 -0.13696545691E+03 -0.64213122480E+03  0.26376386537E+03  0.71215775850E+03  0.80655130438E+02 0.  0.
        254    2    1    2    0    0  0.13696545691E+03  0.64213122480E+03  0.25224392235E+03  0.11357945817E+04  0.89180170952E+03 0.  0.
         23    2    4    4    0    0  0.36134679523E+03  0.61384751705E+03 -0.81307850417E+02  0.72263961647E+03  0.90646390621E+02 0.  0.
         23    2    4    4    0    0 -0.22438133832E+03  0.28283707745E+02  0.33355177277E+03  0.41315496518E+03  0.91067486141E+02 0.  0.
          4    1    3    3  502    0 -0.75156619619E+02 -0.18466033296E+03  0.66741090056E+02  0.21024349964E+03  0.00000000000E+00 0. -1.
         -3    1    3    3    0  502 -0.61808837296E+02 -0.45747089184E+03  0.19702277532E+03  0.50191425886E+03  0.00000000000E+00 0.  1.
         13    1    5    5    0    0  0.28890629257E+03  0.43349075500E+03 -0.30951027181E+02  0.52186113732E+03  0.00000000000E+00 0. -1.
        -13    1    5    5    0    0  0.72440502660E+02  0.18035676205E+03 -0.50356823236E+02  0.20077847915E+03  0.00000000000E+00 0.  1.
          1    1    6    6  503    0 -0.18413057095E+03 -0.11942305143E+02  0.22867970416E+03  0.29383854904E+03  0.00000000000E+00 0. -1.
         -1    1    6    6    0  503 -0.40250767369E+02  0.40226012887E+02  0.10487206861E+03  0.11931641614E+03  0.00000000000E+00 0.  1.
<mgrwt>
<rscale>  0 0.17744475E+04</rscale>
<asrwt>0</asrwt>
<pdfrwt beam="1">  1        2 0.18184309E+00 0.17744475E+04</pdfrwt>
<pdfrwt beam="2">  1       -1 0.10245727E+00 0.17744475E+04</pdfrwt>
<totfact> 0.18881062E+01</totfact>
</mgrwt>
</event>
<event>
12    7  0.1675873E-007  0.2061295E+04  0.7818608E-02  0.8578488E-01
          2   -1    0    0  501    0  0.00000000000E+00  0.00000000000E+00  0.15624634159E+04  0.15624634159E+04  0.00000000000E+00 0. -1.
         -1   -1    0    0    0  501 -0.00000000000E+00 -0.00000000000E+00 -0.67984567605E+03  0.67984567605E+03  0.00000000000E+00 0.  1.
         24    2    1    2    0    0  0.19636553971E+03 -0.60493097945E+03 -0.22547532293E+03  0.68010474203E+03  0.84867094906E+02 0.  0.
        254    2    1    2    0    0 -0.19636553971E+03  0.60493097945E+03  0.11080930628E+04  0.15622043499E+04  0.89895009875E+03 0.  0.
         23    2    4    4    0    0  0.10360489558E+03  0.33184543751E+03 -0.20147575200E+02  0.35980581046E+03  0.90547930225E+02 0.  0.
         23    2    4    4    0    0 -0.29997043529E+03  0.27308554194E+03  0.11282406380E+04  0.12023985395E+04  0.90979861691E+02 0.  0.
          2    1    3    3  502    0  0.61040626500E+02 -0.19800371620E+03 -0.32052815478E+02  0.20966357025E+03  0.00000000000E+00 0. -1.
         -1    1    3    3    0  502  0.13532491321E+03 -0.40692726326E+03 -0.19342250745E+03  0.47044117178E+03  0.00000000000E+00 0.  1.
         13    1    5    5    0    0  0.45098205826E+02  0.12946924304E+03 -0.52234521606E+02  0.14671257039E+03  0.00000000000E+00 0. -1.
        -13    1    5    5    0    0  0.58506689757E+02  0.20237619447E+03  0.32086946406E+02  0.21309324007E+03  0.00000000000E+00 0.  1.
          1    1    6    6  503    0 -0.24516072930E+03  0.26359685261E+03  0.98712959213E+03  0.10507197131E+04  0.00000000000E+00 0. -1.
         -1    1    6    6    0  503 -0.54809705986E+02  0.94886893321E+01  0.14111104587E+03  0.15167882634E+03  0.00000000000E+00 0.  1.
<mgrwt>
<rscale>  0 0.20612947E+04</rscale>
<asrwt>0</asrwt>
<pdfrwt beam="1">  1        2 0.24037899E+00 0.20612947E+04</pdfrwt>
<pdfrwt beam="2">  1       -1 0.10459164E+00 0.20612947E+04</pdfrwt>
<totfact> 0.10591123E+01</totfact>
</mgrwt>
</event>
<event>
12    7  0.1675873E-007  0.2025527E+04  0.7818608E-02  0.8594778E-01
          2   -1    0    0  501    0  0.00000000000E+00  0.00000000000E+00  0.71171021826E+03  0.71171021826E+03  0.00000000000E+00 0. -1.
         -1   -1    0    0    0  501 -0.00000000000E+00 -0.00000000000E+00 -0.14411625852E+04  0.14411625852E+04  0.00000000000E+00 0.  1.
         24    2    1    2    0    0  0.39353380005E+02 -0.69955146440E+03 -0.73558725440E+03  0.10190411407E+04  0.80220307152E+02 0.  0.
        254    2    1    2    0    0 -0.39353380005E+02  0.69955146440E+03  0.61348874885E+01  0.11338316628E+04  0.89141217334E+03 0.  0.
         23    2    4    4    0    0  0.31568689102E+03  0.24991287261E+03  0.27347117184E+03  0.49524696393E+03  0.91479048945E+02 0.  0.
         23    2    4    4    0    0 -0.35504027102E+03  0.44963859179E+03 -0.26733628435E+03  0.63858469884E+03  0.89962610978E+02 0.  0.
          2    1    3    3  502    0  0.62843751878E+01 -0.33467103518E+02 -0.64479489637E+02  0.72918755977E+02  0.00000000000E+00 0. -1.
         -1    1    3    3    0  502  0.33069004817E+02 -0.66608436089E+03 -0.67110776476E+03  0.94612238470E+03  0.00000000000E+00 0.  1.
         13    1    5    5    0    0  0.14007232374E+03  0.92401133609E+02  0.63447983402E+02  0.17939863981E+03  0.00000000000E+00 0. -1.
        -13    1    5    5    0    0  0.17561456728E+03  0.15751173900E+03  0.21002318844E+03  0.31584832412E+03  0.00000000000E+00 0.  1.
          2    1    6    6  503    0 -0.33027602405E+03  0.40985108462E+03 -0.27013582072E+03  0.59163631165E+03  0.00000000000E+00 0. -1.
         -2    1    6    6    0  503 -0.24764246973E+02  0.39787507180E+02  0.27995363659E+01  0.46948387188E+02  0.00000000000E+00 0.  1.
<mgrwt>
<rscale>  0 0.20255272E+04</rscale>
<asrwt>0</asrwt>
<pdfrwt beam="1">  1        2 0.10949388E+00 0.20255272E+04</pdfrwt>
<pdfrwt beam="2">  1       -1 0.22171732E+00 0.20255272E+04</pdfrwt>
<totfact> 0.45497894E+00</totfact>
</mgrwt>
</event>
<event>
12    7  0.1675873E-007  0.2796111E+04  0.7818608E-02  0.8304477E-01
         -1   -1    0    0    0  501 -0.00000000000E+00  0.00000000000E+00  0.54983692288E+03  0.54983692288E+03  0.00000000000E+00 0.  1.
          2   -1    0    0  501    0  0.00000000000E+00 -0.00000000000E+00 -0.35547975329E+04  0.35547975329E+04  0.00000000000E+00 0. -1.
         24    2    1    2    0    0  0.90158396676E+03 -0.85903204839E+03 -0.15556767353E+04  0.19942704488E+04  0.78707107880E+02 0.  0.
        254    2    1    2    0    0 -0.90158396676E+03  0.85903204839E+03 -0.14492838747E+04  0.21103640070E+04  0.89578054411E+03 0.  0.
         23    2    4    4    0    0 -0.40575732836E+03  0.64379332409E+03 -0.27502684628E+03  0.81447592558E+03  0.92856951899E+02 0.  0.
         23    2    4    4    0    0 -0.49582663840E+03  0.21523872430E+03 -0.11742570284E+04  0.12958880814E+04  0.90964756520E+02 0.  0.
          2    1    3    3  502    0  0.67010075121E+03 -0.61249284070E+03 -0.11796363594E+04  0.14885309661E+04  0.00000000000E+00 0. -1.
         -1    1    3    3    0  502  0.23148321556E+03 -0.24653920768E+03 -0.37604037588E+03  0.50573948264E+03  0.00000000000E+00 0.  1.
         13    1    5    5    0    0 -0.24146270531E+03  0.33119723516E+03 -0.18707066811E+03  0.45054553766E+03  0.00000000000E+00 0.  1.
        -13    1    5    5    0    0 -0.16429462305E+03  0.31259608893E+03 -0.87956178167E+02  0.36393038793E+03  0.00000000000E+00 0. -1.
          1    1    6    6  503    0 -0.26835153752E+02  0.13385374757E+01 -0.11188675934E+03  0.11506764999E+03  0.00000000000E+00 0.  1.
         -1    1    6    6    0  503 -0.46899148465E+03  0.21390018682E+03 -0.10623702691E+04  0.11808204314E+04  0.00000000000E+00 0. -1.
<mgrwt>
<rscale>  0 0.27961108E+04</rscale>
<asrwt>0</asrwt>
<pdfrwt beam="1">  1        2 0.54689194E+00 0.27961108E+04</pdfrwt>
<pdfrwt beam="2">  1       -1 0.84590294E-01 0.27961108E+04</pdfrwt>
<totfact> 0.10178241E+00</totfact>
</mgrwt>
</event>
<event>
12    7  0.1675873E-007  0.2430757E+04  0.7818608E-02  0.8428078E-01
          2   -1    0    0  501    0  0.00000000000E+00  0.00000000000E+00  0.92095826602E+03  0.92095826602E+03  0.00000000000E+00 0. -1.
         -1   -1    0    0    0  501 -0.00000000000E+00 -0.00000000000E+00 -0.16039210503E+04  0.16039210503E+04  0.00000000000E+00 0.  1.
         24    2    1    2    0    0  0.23679350620E+03 -0.43357628912E+03  0.66351089979E+03  0.83112411296E+03  0.80380432535E+02 0.  0.
        254    2    1    2    0    0 -0.23679350620E+03  0.43357628912E+03 -0.13464736841E+04  0.16937552034E+04  0.90097488531E+03 0.  0.
         23    2    4    4    0    0  0.13351121543E+03  0.34602699819E+01 -0.10195173177E+04  0.10326464842E+04  0.95425269846E+02 0.  0.
         23    2    4    4    0    0 -0.37030472163E+03  0.43011601914E+03 -0.32695636635E+03  0.66110871914E+03  0.89659892069E+02 0.  0.
          2    1    3    3  502    0  0.12285136933E+03 -0.29948514885E+03  0.40633929577E+03  0.51951461637E+03  0.00000000000E+00 0. -1.
         -1    1    3    3    0  502  0.11394213687E+03 -0.13409114027E+03  0.25717160402E+03  0.31160949659E+03  0.00000000000E+00 0.  1.
         13    1    5    5    0    0  0.78418252133E+02  0.42177275662E+02 -0.41841742126E+03  0.42778672638E+03  0.00000000000E+00 0.  1.
        -13    1    5    5    0    0  0.55092963301E+02 -0.38717005680E+02 -0.60109989646E+03  0.60485975784E+03  0.00000000000E+00 0. -1.
          1    1    6    6  503    0 -0.30677751218E+03  0.38563635823E+03 -0.25292218155E+03  0.55389301557E+03  0.00000000000E+00 0. -1.
         -1    1    6    6    0  503 -0.63527209450E+02  0.44479660909E+02 -0.74034184798E+02  0.10721570358E+03  0.00000000000E+00 0.  1.
<mgrwt>
<rscale>  0 0.24307565E+04</rscale>
<asrwt>0</asrwt>
<pdfrwt beam="1">  1        2 0.14168589E+00 0.24307565E+04</pdfrwt>
<pdfrwt beam="2">  1       -1 0.24675708E+00 0.24307565E+04</pdfrwt>
<totfact> 0.21253801E+00</totfact>
</mgrwt>
</event>
<event>
12    7  0.1675873E-007  0.1858479E+04  0.7818608E-02  0.8675805E-01
         -1   -1    0    0    0  501 -0.00000000000E+00  0.00000000000E+00  0.79516180498E+03  0.79516180498E+03  0.00000000000E+00 0.  1.
          2   -1    0    0  501    0  0.00000000000E+00 -0.00000000000E+00 -0.10859245634E+04  0.10859245634E+04  0.00000000000E+00 0. -1.
         24    2    1    2    0    0  0.34782474037E+03  0.50248950057E+03  0.24727267831E+03  0.66156208403E+03  0.55162173485E+02 0.  0.
        254    2    1    2    0    0 -0.34782474037E+03 -0.50248950057E+03 -0.53803543675E+03  0.12195242844E+04  0.90789845290E+03 0.  0.
         23    2    4    4    0    0 -0.43739498988E+03 -0.65855700435E+01 -0.54860829590E+03  0.70720143478E+03  0.88346251318E+02 0.  0.
         23    2    4    4    0    0  0.89570249504E+02 -0.49590393053E+03  0.10572859147E+02  0.51232284960E+03  0.91757173892E+02 0.  0.
          4    1    3    3  502    0  0.37856921075E+02  0.83142389433E+02  0.25144148246E+02  0.94752475350E+02  0.00000000000E+00 0. -1.
         -3    1    3    3    0  502  0.30996781930E+03  0.41934711114E+03  0.22212853006E+03  0.56680960868E+03  0.00000000000E+00 0.  1.
         13    1    5    5    0    0 -0.28415994670E+03  0.33743931566E+02 -0.38175981275E+03  0.47710175314E+03  0.00000000000E+00 0. -1.
        -13    1    5    5    0    0 -0.15323504318E+03 -0.40329501610E+02 -0.16684848315E+03  0.23009968163E+03  0.00000000000E+00 0.  1.
          1    1    6    6  503    0  0.98981363174E+02 -0.49164221843E+03  0.75701262184E+01  0.50156424116E+03  0.00000000000E+00 0. -1.
         -1    1    6    6    0  503 -0.94111136698E+01 -0.42617120983E+01  0.30027329286E+01  0.10758608439E+02  0.00000000000E+00 0.  1.
<mgrwt>
<rscale>  0 0.18584787E+04</rscale>
<asrwt>0</asrwt>
<pdfrwt beam="1">  1        2 0.16706532E+00 0.18584787E+04</pdfrwt>
<pdfrwt beam="2">  1       -1 0.12233259E+00 0.18584787E+04</pdfrwt>
<totfact> 0.14067024E+01</totfact>
</mgrwt>
</event>
<event>
12    7  0.1675873E-007  0.1682039E+04  0.7818608E-02  0.8771675E-01
         -1   -1    0    0    0  501 -0.00000000000E+00  0.00000000000E+00  0.50814032179E+03  0.50814032179E+03  0.00000000000E+00 0.  1.
          2   -1    0    0  501    0  0.00000000000E+00 -0.00000000000E+00 -0.13919648625E+04  0.13919648625E+04  0.00000000000E+00 0. -1.
         24    2    1    2    0    0  0.20501988872E+02  0.13165636920E+02  0.35599436735E+03  0.36578511411E+03  0.80455544120E+02 0.  0.
        254    2    1    2    0    0 -0.20501988872E+02 -0.13165636920E+02 -0.12398189081E+04  0.15343200702E+04  0.90354495598E+03 0.  0.
         23    2    4    4    0    0 -0.27033995770E+03 -0.30394545739E+03 -0.29465601670E+03  0.51070058832E+03  0.92338447798E+02 0.  0.
         23    2    4    4    0    0  0.24983796883E+03  0.29077982047E+03 -0.94516289137E+03  0.10236194819E+04  0.86556558332E+02 0.  0.
          2    1    3    3  502    0 -0.29452096523E+02  0.94117556938E+01  0.91338903877E+02  0.96430298643E+02  0.00000000000E+00 0. -1.
         -1    1    3    3    0  502  0.49954085395E+02  0.37538812267E+01  0.26465546347E+03  0.26935481547E+03  0.00000000000E+00 0.  1.
         13    1    5    5    0    0 -0.19770324378E+03 -0.19524904503E+03 -0.15016591538E+03  0.31584579201E+03  0.00000000000E+00 0. -1.
        -13    1    5    5    0    0 -0.72636713913E+02 -0.10869641236E+03 -0.14449010132E+03  0.19485479632E+03  0.00000000000E+00 0.  1.
          2    1    6    6  503    0  0.20096850161E+03  0.17224777795E+03 -0.64868373062E+03  0.70060560804E+03  0.00000000000E+00 0. -1.
         -2    1    6    6    0  503  0.48869467218E+02  0.11853204252E+03 -0.29647916075E+03  0.32301387383E+03  0.00000000000E+00 0.  1.
<mgrwt>
<rscale>  0 0.16820386E+04</rscale>
<asrwt>0</asrwt>
<pdfrwt beam="1">  1        2 0.21414844E+00 0.16820386E+04</pdfrwt>
<pdfrwt beam="2">  1       -1 0.78175435E-01 0.16820386E+04</pdfrwt>
<totfact> 0.26022935E+01</totfact>
</mgrwt>
</event>
<event>
12    7  0.1675873E-007  0.1118957E+04  0.7818608E-02  0.9186909E-01
          2   -1    0    0  501    0  0.00000000000E+00  0.00000000000E+00  0.27976057866E+04  0.27976057866E+04  0.00000000000E+00 0. -1.
         -1   -1    0    0    0  501 -0.00000000000E+00 -0.00000000000E+00 -0.11188721297E+03  0.11188721297E+03  0.00000000000E+00 0.  1.
         24    2    1    2    0    0 -0.14629412580E+03  0.76690483674E+02  0.63063119120E+03  0.65684212453E+03  0.80389524830E+02 0.  0.
        254    2    1    2    0    0  0.14629412580E+03 -0.76690483674E+02  0.20550873824E+04  0.22526508750E+04  0.90761688715E+03 0.  0.
         23    2    4    4    0    0  0.46048585600E+03 -0.24414452443E+03  0.94886636261E+03  0.10868932033E+04  0.96621368921E+02 0.  0.
         23    2    4    4    0    0 -0.31419173020E+03  0.16745404075E+03  0.11062210198E+04  0.11657576717E+04  0.92242644148E+02 0.  0.
          4    1    3    3  502    0 -0.14290458888E+03  0.81684906386E+02  0.62954634356E+03  0.65070941606E+03  0.00000000000E+00 0. -1.
         -1    1    3    3    0  502 -0.33895369211E+01 -0.49944227117E+01  0.10848476434E+01  0.61327084695E+01  0.00000000000E+00 0.  1.
         13    1    5    5    0    0  0.78788945174E+02 -0.68125822060E+02  0.13121306466E+03  0.16752818823E+03  0.00000000000E+00 0. -1.
        -13    1    5    5    0    0  0.38169691083E+03 -0.17601870237E+03  0.81765329795E+03  0.91936501508E+03  0.00000000000E+00 0.  1.
          1    1    6    6  503    0 -0.12225451590E+02 -0.10533737597E+02  0.32775837243E+02  0.36533228729E+02  0.00000000000E+00 0. -1.
         -1    1    6    6    0  503 -0.30196627861E+03  0.17798777835E+03  0.10734451825E+04  0.11292244430E+04  0.00000000000E+00 0.  1.
<mgrwt>
<rscale>  0 0.11189572E+04</rscale>
<asrwt>0</asrwt>
<pdfrwt beam="1">  1        2 0.43040084E+00 0.11189572E+04</pdfrwt>
<pdfrwt beam="2">  1       -1 0.17213420E-01 0.11189572E+04</pdfrwt>
<totfact> 0.69751007E+01</totfact>
</mgrwt>
</event>
<event>
12    7  0.1675873E-007  0.1870116E+04  0.7818608E-02  0.8669876E-01
         -1   -1    0    0    0  501 -0.00000000000E+00  0.00000000000E+00  0.87349600453E+03  0.87349600453E+03  0.00000000000E+00 0.  1.
          2   -1    0    0  501    0  0.00000000000E+00 -0.00000000000E+00 -0.10009587292E+04  0.10009587292E+04  0.00000000000E+00 0. -1.
         24    2    1    2    0    0 -0.18809868253E+03  0.41543375120E+02  0.64654705908E+03  0.67896490275E+03  0.76572012967E+02 0.  0.
        254    2    1    2    0    0  0.18809868253E+03 -0.41543375120E+02 -0.77400978379E+03  0.11954898310E+04  0.89050425280E+03 0.  0.
         23    2    4    4    0    0 -0.10545696469E+03 -0.32982706281E+03 -0.57138225165E+02  0.36417376588E+03  0.97214670815E+02 0.  0.
         23    2    4    4    0    0  0.29355564722E+03  0.28828368769E+03 -0.71687155862E+03  0.83131606512E+03  0.88877252256E+02 0.  0.
          2    1    3    3  502    0 -0.26477404038E+02  0.28028058188E+01  0.21292453756E+03  0.21458277503E+03  0.00000000000E+00 0. -1.
         -1    1    3    3    0  502 -0.16162127849E+03  0.38740569301E+02  0.43362252152E+03  0.46438212772E+03  0.00000000000E+00 0.  1.
         13    1    5    5    0    0 -0.41280745493E+02 -0.20300040990E+03  0.91071843049E+01  0.20735526801E+03  0.00000000000E+00 0. -1.
        -13    1    5    5    0    0 -0.64176219197E+02 -0.12682665291E+03 -0.66245409470E+02  0.15681849787E+03  0.00000000000E+00 0.  1.
          3    1    6    6  503    0  0.84111465311E+01  0.29798372423E+02 -0.95652169942E+02  0.10053868907E+03  0.00000000000E+00 0. -1.
         -3    1    6    6    0  503  0.28514450069E+03  0.25848531526E+03 -0.62121938868E+03  0.73077737605E+03  0.00000000000E+00 0.  1.
<mgrwt>
<rscale>  0 0.18701160E+04</rscale>
<asrwt>0</asrwt>
<pdfrwt beam="1">  1        2 0.15399365E+00 0.18701160E+04</pdfrwt>
<pdfrwt beam="2">  1       -1 0.13438400E+00 0.18701160E+04</pdfrwt>
<totfact> 0.12556632E+01</totfact>
</mgrwt>
</event>
<event>
12    7  0.1675873E-007  0.2388505E+04  0.7818608E-02  0.8443820E-01
          2   -1    0    0  501    0  0.00000000000E+00  0.00000000000E+00  0.10175509433E+04  0.10175509433E+04  0.00000000000E+00 0. -1.
         -1   -1    0    0    0  501 -0.00000000000E+00 -0.00000000000E+00 -0.14016385604E+04  0.14016385604E+04  0.00000000000E+00 0.  1.
         24    2    1    2    0    0 -0.69592516138E+03  0.10210811795E+02  0.59730386183E+03  0.92052413798E+03  0.78591948203E+02 0.  0.
        254    2    1    2    0    0  0.69592516138E+03 -0.10210811795E+02 -0.98139147889E+03  0.14986653658E+04  0.89356172300E+03 0.  0.
         23    2    4    4    0    0  0.63776167460E+03  0.29313369362E+03 -0.93579924455E+03  0.11731984032E+04  0.89481569438E+02 0.  0.
         23    2    4    4    0    0  0.58163486787E+02 -0.30334450541E+03 -0.45592234334E+02  0.32546696256E+03  0.91919593822E+02 0.  0.
          2    1    3    3  502    0 -0.56016218826E+03  0.39112960289E+02  0.47292601069E+03  0.73414611107E+03  0.00000000000E+00 0. -1.
         -1    1    3    3    0  502 -0.13576297312E+03 -0.28902148494E+02  0.12437785114E+03  0.18637802691E+03  0.00000000000E+00 0.  1.
         13    1    5    5    0    0  0.88362333681E+02  0.52724910259E+02 -0.92182829846E+02  0.13815025260E+03  0.00000000000E+00 0.  1.
        -13    1    5    5    0    0  0.54939934092E+03  0.24040878336E+03 -0.84361641471E+03  0.10350481506E+04  0.00000000000E+00 0. -1.
          3    1    6    6  503    0  0.83263034193E+02 -0.24070080959E+03 -0.33127295622E+02  0.25684047640E+03  0.00000000000E+00 0. -1.
         -3    1    6    6    0  503 -0.25099547406E+02 -0.62643695820E+02 -0.12464938712E+02  0.68626486163E+02  0.00000000000E+00 0.  1.
<mgrwt>
<rscale>  0 0.23885047E+04</rscale>
<asrwt>0</asrwt>
<pdfrwt beam="1">  1        2 0.15654630E+00 0.23885047E+04</pdfrwt>
<pdfrwt beam="2">  1       -1 0.21563670E+00 0.23885047E+04</pdfrwt>
<totfact> 0.29656992E+00</totfact>
</mgrwt>
</event>
<event>
12    7  0.1675873E-007  0.1204160E+04  0.7818608E-02  0.9109223E-01
          2   -1    0    0  501    0  0.00000000000E+00  0.00000000000E+00  0.56036856869E+03  0.56036856869E+03  0.00000000000E+00 0. -1.
         -1   -1    0    0    0  501 -0.00000000000E+00 -0.00000000000E+00 -0.64689579367E+03  0.64689579367E+03  0.00000000000E+00 0.  1.
         24    2    1    2    0    0 -0.44807870607E+02  0.21398551288E+03 -0.16217876548E+03  0.28421757583E+03  0.81732083339E+02 0.  0.
        254    2    1    2    0    0  0.44807870607E+02 -0.21398551288E+03  0.75651540503E+02  0.92304678653E+03  0.89358528947E+03 0.  0.
         23    2    4    4    0    0  0.26978890476E+03  0.22542675837E+03  0.18792874053E+03  0.40951249518E+03  0.93701631100E+02 0.  0.
         23    2    4    4    0    0 -0.22498103415E+03 -0.43941227125E+03 -0.11227720003E+03  0.51353429135E+03  0.86091166196E+02 0.  0.
          2    1    3    3  502    0 -0.45100359603E+02  0.17245123136E+03 -0.16458274154E+03  0.24261275409E+03  0.00000000000E+00 0. -1.
         -1    1    3    3    0  502  0.29248899580E+00  0.41534281522E+02  0.24039760591E+01  0.41604821743E+02  0.00000000000E+00 0.  1.
         13    1    5    5    0    0  0.18443434034E+03  0.10176967322E+03  0.13505720640E+03  0.25022697953E+03  0.00000000000E+00 0.  1.
        -13    1    5    5    0    0  0.85354564417E+02  0.12365708515E+03  0.52871534130E+02  0.15928551565E+03  0.00000000000E+00 0. -1.
          3    1    6    6  503    0 -0.26333294853E+02 -0.26629954380E+02 -0.30276813957E+02  0.48158928056E+02  0.00000000000E+00 0. -1.
         -3    1    6    6    0  503 -0.19864773930E+03 -0.41278231687E+03 -0.82000386072E+02  0.46537536330E+03  0.00000000000E+00 0.  1.
<mgrwt>
<rscale>  0 0.12041596E+04</rscale>
<asrwt>0</asrwt>
<pdfrwt beam="1">  1        2 0.86210548E-01 0.12041596E+04</pdfrwt>
<pdfrwt beam="2">  1       -1 0.99522431E-01 0.12041596E+04</pdfrwt>
<totfact> 0.58539262E+01</totfact>
</mgrwt>
</event>
<event>
12    7  0.1675873E-007  0.1797012E+04  0.7818608E-02  0.8707890E-01
         -1   -1    0    0    0  501 -0.00000000000E+00  0.00000000000E+00  0.22095931615E+04  0.22095931615E+04  0.00000000000E+00 0.  1.
          2   -1    0    0  501    0  0.00000000000E+00 -0.00000000000E+00 -0.36536719462E+03  0.36536719462E+03  0.00000000000E+00 0. -1.
         24    2    1    2    0    0  0.45082566440E+03  0.50324341779E+01  0.13962556065E+04  0.14694783597E+04  0.81042123705E+02 0.  0.
        254    2    1    2    0    0 -0.45082566440E+03 -0.50324341779E+01  0.44797036036E+03  0.11054819964E+04  0.90451307098E+03 0.  0.
         23    2    4    4    0    0  0.27568092319E+02  0.27493464096E+02  0.58950301549E+03  0.59739625848E+03  0.88614863830E+02 0.  0.
         23    2    4    4    0    0 -0.47839375672E+03 -0.32525898274E+02 -0.14153265513E+03  0.50808573794E+03  0.90559947588E+02 0.  0.
          2    1    3    3  502    0  0.16821861402E+03  0.37285900960E+02  0.58210330843E+03  0.60706836699E+03  0.00000000000E+00 0. -1.
         -1    1    3    3    0  502  0.28260705038E+03 -0.32253466782E+02  0.81415229805E+03  0.86240999267E+03  0.00000000000E+00 0.  1.
         13    1    5    5    0    0  0.16717075051E+02 -0.11829093977E+02  0.29511578608E+02  0.35921043060E+02  0.00000000000E+00 0.  1.
        -13    1    5    5    0    0  0.10851017267E+02  0.39322558073E+02  0.55999143688E+03  0.56147521542E+03  0.00000000000E+00 0. -1.
          1    1    6    6  503    0 -0.11533726640E+03 -0.12803153654E+02 -0.75777377854E+02  0.13859587569E+03  0.00000000000E+00 0. -1.
         -1    1    6    6    0  503 -0.36305649031E+03 -0.19722744620E+02 -0.65755277278E+02  0.36948986225E+03  0.00000000000E+00 0.  1.
<mgrwt>
<rscale>  0 0.17970118E+04</rscale>
<asrwt>0</asrwt>
<pdfrwt beam="1">  1        2 0.56210339E-01 0.17970118E+04</pdfrwt>
<pdfrwt beam="2">  1       -1 0.33993740E+00 0.17970118E+04</pdfrwt>
<totfact> 0.17262215E+00</totfact>
</mgrwt>
</event>
<event>
12    7  0.1675873E-007  0.1405858E+04  0.7818608E-02  0.8949589E-01
          2   -1    0    0  501    0  0.00000000000E+00  0.00000000000E+00  0.20720363601E+04  0.20720363601E+04  0.00000000000E+00 0. -1.
         -1   -1    0    0    0  501 -0.00000000000E+00 -0.00000000000E+00 -0.23846555433E+03  0.23846555433E+03  0.00000000000E+00 0.  1.
         24    2    1    2    0    0 -0.11883954711E+03  0.31661679172E+03  0.15776150867E+03  0.38178881585E+03  0.80653428542E+02 0.  0.
        254    2    1    2    0    0  0.11883954711E+03 -0.31661679172E+03  0.16758092971E+04  0.19287130986E+04  0.89287646718E+03 0.  0.
         23    2    4    4    0    0 -0.10407357195E+03 -0.35198679973E+03  0.16387252580E+04  0.16817500131E+04  0.90203213560E+02 0.  0.
         23    2    4    4    0    0  0.22291311906E+03  0.35370008013E+02  0.37084039070E+02  0.24696308547E+03  0.93135618952E+02 0.  0.
          4    1    3    3  502    0 -0.30828130780E+02  0.22020298045E+02  0.32035685150E+02  0.49614033261E+02  0.00000000000E+00 0. -1.
         -3    1    3    3    0  502 -0.88011416328E+02  0.29459649367E+03  0.12572582352E+03  0.33217478259E+03  0.00000000000E+00 0.  1.
         13    1    5    5    0    0 -0.95583474354E+02 -0.34600477565E+03  0.14887296932E+04  0.15313953130E+04  0.00000000000E+00 0.  1.
        -13    1    5    5    0    0 -0.84900975963E+01 -0.59820240785E+01  0.14999556485E+03  0.15035470011E+03  0.00000000000E+00 0. -1.
          2    1    6    6  503    0  0.60415303100E+02  0.33424640727E+02  0.47995138305E+02  0.84087744394E+02  0.00000000000E+00 0. -1.
         -2    1    6    6    0  503  0.16249781596E+03  0.19453672853E+01 -0.10911099235E+02  0.16287534108E+03  0.00000000000E+00 0.  1.
<mgrwt>
<rscale>  0 0.14058582E+04</rscale>
<asrwt>0</asrwt>
<pdfrwt beam="1">  1        2 0.31877481E+00 0.14058582E+04</pdfrwt>
<pdfrwt beam="2">  1       -1 0.36687010E-01 0.14058582E+04</pdfrwt>
<totfact> 0.48163903E+01</totfact>
</mgrwt>
</event>
<event>
12    7  0.1675873E-007  0.2434559E+04  0.7818608E-02  0.8426677E-01
         -1   -1    0    0    0  501 -0.00000000000E+00  0.00000000000E+00  0.18281255772E+04  0.18281255772E+04  0.00000000000E+00 0.  1.
          2   -1    0    0  501    0  0.00000000000E+00 -0.00000000000E+00 -0.81054033533E+03  0.81054033533E+03  0.00000000000E+00 0. -1.
         24    2    1    2    0    0 -0.29433629701E+03  0.26917899229E+03  0.14901201927E+04  0.15446429874E+04  0.79828467019E+02 0.  0.
        254    2    1    2    0    0  0.29433629701E+03 -0.26917899229E+03 -0.47253495083E+03  0.10940229251E+04  0.90249969272E+03 0.  0.
         23    2    4    4    0    0  0.80231617837E+02 -0.52358593053E+03 -0.38472991242E+02  0.53946275844E+03  0.94660221559E+02 0.  0.
         23    2    4    4    0    0  0.21410467918E+03  0.25440693824E+03 -0.43406195959E+03  0.55456016670E+03  0.92539126096E+02 0.  0.
          4    1    3    3  502    0 -0.47870232073E+02  0.88467888583E+02  0.40522164907E+03  0.41751971367E+03  0.00000000000E+00 0. -1.
         -3    1    3    3    0  502 -0.24646606494E+03  0.18071110370E+03  0.10848985437E+04  0.11271232737E+04  0.00000000000E+00 0.  1.
         13    1    5    5    0    0  0.70532756576E+02 -0.51330449561E+03 -0.23190953821E+02  0.51864650322E+03  0.00000000000E+00 0. -1.
        -13    1    5    5    0    0  0.96988612613E+01 -0.10281434914E+02 -0.15282037421E+02  0.20816255220E+02  0.00000000000E+00 0.  1.
          3    1    6    6  503    0  0.10432048403E+03  0.17123859233E+03 -0.30998567911E+03  0.36918361305E+03  0.00000000000E+00 0. -1.
         -3    1    6    6    0  503  0.10978419515E+03  0.83168345909E+02 -0.12407628048E+03  0.18537655365E+03  0.00000000000E+00 0.  1.
<mgrwt>
<rscale>  0 0.24345591E+04</rscale>
<asrwt>0</asrwt>
<pdfrwt beam="1">  1        2 0.12469851E+00 0.24345591E+04</pdfrwt>
<pdfrwt beam="2">  1       -1 0.28125009E+00 0.24345591E+04</pdfrwt>
<totfact> 0.15124400E+00</totfact>
</mgrwt>
</event>
<event>
12    7  0.1675873E-007  0.2264118E+04  0.7818608E-02  0.8492205E-01
          2   -1    0    0  501    0  0.00000000000E+00  0.00000000000E+00  0.19875231418E+04  0.19875231418E+04  0.00000000000E+00 0. -1.
         -1   -1    0    0    0  501 -0.00000000000E+00 -0.00000000000E+00 -0.64480152540E+03  0.64480152540E+03  0.00000000000E+00 0.  1.
         24    2    1    2    0    0  0.90698661758E+03  0.17918694429E+03  0.85825088540E+03  0.12639530810E+04  0.79057720896E+02 0.  0.
        254    2    1    2    0    0 -0.90698661758E+03 -0.17918694429E+03  0.48447073099E+03  0.13683715862E+04  0.88487073811E+03 0.  0.
         23    2    4    4    0    0 -0.24358527884E+03  0.25670717768E+03  0.43438192715E+03  0.56774943946E+03  0.91757311607E+02 0.  0.
         23    2    4    4    0    0 -0.66340133874E+03 -0.43589412197E+03  0.50088803841E+02  0.80062214670E+03  0.91552781012E+02 0.  0.
          4    1    3    3  502    0  0.11117863740E+03  0.40546843802E+02  0.84867900604E+02  0.14562725194E+03  0.00000000000E+00 0. -1.
         -3    1    3    3    0  502  0.79580798019E+03  0.13864010048E+03  0.77338298480E+03  0.11183258291E+04  0.00000000000E+00 0.  1.
         13    1    5    5    0    0 -0.65854936329E+02  0.53181902825E+02  0.16901749754E+03  0.18902936783E+03  0.00000000000E+00 0.  1.
        -13    1    5    5    0    0 -0.17773034251E+03  0.20352527486E+03  0.26536442960E+03  0.37872007163E+03  0.00000000000E+00 0. -1.
          2    1    6    6  503    0 -0.20824094027E+03 -0.15179400275E+03 -0.24754192168E+02  0.25887927400E+03  0.00000000000E+00 0.  1.
         -2    1    6    6    0  503 -0.45516039847E+03 -0.28410011922E+03  0.74842996008E+02  0.54174287271E+03  0.00000000000E+00 0. -1.
<mgrwt>
<rscale>  0 0.22641183E+04</rscale>
<asrwt>0</asrwt>
<pdfrwt beam="1">  1        2 0.30577279E+00 0.22641183E+04</pdfrwt>
<pdfrwt beam="2">  1       -1 0.99200236E-01 0.22641183E+04</pdfrwt>
<totfact> 0.68201383E+00</totfact>
</mgrwt>
</event>
<event>
12    7  0.1675873E-007  0.1550726E+04  0.7818608E-02  0.8851404E-01
         -1   -1    0    0    0  501 -0.00000000000E+00  0.00000000000E+00  0.87128130234E+03  0.87128130234E+03  0.00000000000E+00 0.  1.
          2   -1    0    0  501    0  0.00000000000E+00 -0.00000000000E+00 -0.69000439929E+03  0.69000439929E+03  0.00000000000E+00 0. -1.
         24    2    1    2    0    0 -0.56740433517E+01  0.44479627050E+03  0.31021636915E+03  0.54808738174E+03  0.79307410258E+02 0.  0.
        254    2    1    2    0    0  0.56740433517E+01 -0.44479627050E+03 -0.12893946610E+03  0.10131983199E+04  0.90114900682E+03 0.  0.
         23    2    4    4    0    0  0.27967279514E+03  0.68486007919E+02 -0.27322417258E+03  0.40691567079E+03  0.89563994064E+02 0.  0.
         23    2    4    4    0    0 -0.27399875178E+03 -0.51328227841E+03  0.14428470648E+03  0.60628264910E+03  0.90700390069E+02 0.  0.
          2    1    3    3  502    0 -0.87448249073E+01  0.95906407686E+02  0.30862664582E+02  0.10112870544E+03  0.00000000000E+00 0. -1.
         -1    1    3    3    0  502  0.30707815556E+01  0.34888986281E+03  0.27935370456E+03  0.44695867630E+03  0.00000000000E+00 0.  1.
         13    1    5    5    0    0 -0.13561767155E+00  0.15121253825E+02 -0.57779983803E+01  0.16188143028E+02  0.00000000000E+00 0.  1.
        -13    1    5    5    0    0  0.27980841281E+03  0.53364754093E+02 -0.26744617420E+03  0.39072752776E+03  0.00000000000E+00 0. -1.
          3    1    6    6  503    0 -0.23320824555E+03 -0.47347568748E+03  0.10803436447E+03  0.53873624004E+03  0.00000000000E+00 0. -1.
         -3    1    6    6    0  503 -0.40790506233E+02 -0.39806590940E+02  0.36250342013E+02  0.67546409061E+02  0.00000000000E+00 0.  1.
<mgrwt>
<rscale>  0 0.15507262E+04</rscale>
<asrwt>0</asrwt>
<pdfrwt beam="1">  1        2 0.10615452E+00 0.15507262E+04</pdfrwt>
<pdfrwt beam="2">  1       -1 0.13404328E+00 0.15507262E+04</pdfrwt>
<totfact> 0.21523428E+01</totfact>
</mgrwt>
</event>
<event>
12    7  0.1675873E-007  0.1526485E+04  0.7818608E-02  0.8867029E-01
          2   -1    0    0  501    0  0.00000000000E+00  0.00000000000E+00  0.63859772381E+03  0.63859772381E+03  0.00000000000E+00 0. -1.
         -1   -1    0    0    0  501 -0.00000000000E+00 -0.00000000000E+00 -0.91221568952E+03  0.91221568952E+03  0.00000000000E+00 0.  1.
         24    2    1    2    0    0  0.47221829471E+02  0.45603855101E+03 -0.23388412612E+03  0.52091257141E+03  0.80293595076E+02 0.  0.
        254    2    1    2    0    0 -0.47221829471E+02 -0.45603855101E+03 -0.39733839600E+02  0.10299008419E+04  0.92136632508E+03 0.  0.
         23    2    4    4    0    0 -0.22198960042E+03 -0.63826130657E+03  0.15392580616E+03  0.69887184167E+03  0.89843303129E+02 0.  0.
         23    2    4    4    0    0  0.17476777095E+03  0.18222275556E+03 -0.19365964576E+03  0.33102900025E+03  0.91253680496E+02 0.  0.
          2    1    3    3  502    0 -0.19952250170E+02  0.17977639530E+03 -0.82436962913E+02  0.19878002276E+03  0.00000000000E+00 0. -1.
         -1    1    3    3    0  502  0.67174079641E+02  0.27626215572E+03 -0.15144716320E+03  0.32213254865E+03  0.00000000000E+00 0.  1.
         13    1    5    5    0    0 -0.73853177110E+02 -0.32614977066E+03  0.10123610428E+03  0.34939478170E+03  0.00000000000E+00 0. -1.
        -13    1    5    5    0    0 -0.14813642331E+03 -0.31211153591E+03  0.52689701880E+02  0.34947705997E+03  0.00000000000E+00 0.  1.
          1    1    6    6  503    0  0.73096570397E+02  0.13017118522E+03 -0.14063799657E+03  0.20510166295E+03  0.00000000000E+00 0. -1.
         -1    1    6    6    0  503  0.10167120055E+03  0.52051570335E+02 -0.53021649190E+02  0.12592733730E+03  0.00000000000E+00 0.  1.
<mgrwt>
<rscale>  0 0.15264847E+04</rscale>
<asrwt>0</asrwt>
<pdfrwt beam="1">  1        2 0.98245804E-01 0.15264847E+04</pdfrwt>
<pdfrwt beam="2">  1       -1 0.14034087E+00 0.15264847E+04</pdfrwt>
<totfact> 0.21089357E+01</totfact>
</mgrwt>
</event>
<event>
12    7  0.1675873E-007  0.2077949E+04  0.7818608E-02  0.8571020E-01
         -1   -1    0    0    0  501 -0.00000000000E+00  0.00000000000E+00  0.14221162104E+04  0.14221162104E+04  0.00000000000E+00 0.  1.
          2   -1    0    0  501    0  0.00000000000E+00 -0.00000000000E+00 -0.75905745244E+03  0.75905745244E+03  0.00000000000E+00 0. -1.
         24    2    1    2    0    0 -0.71354538474E+03  0.36915034025E+03  0.48191718319E+01  0.80743111734E+03  0.80639909707E+02 0.  0.
        254    2    1    2    0    0  0.71354538474E+03 -0.36915034025E+03  0.65823958611E+03  0.13737425455E+04  0.89914973101E+03 0.  0.
         23    2    4    4    0    0  0.24320114286E+03  0.27254405853E+03  0.82882208443E+02  0.38725660543E+03  0.98342047153E+02 0.  0.
         23    2    4    4    0    0  0.47034424188E+03 -0.64169439878E+03  0.57535737766E+03  0.98648594006E+03  0.95514347687E+02 0.  0.
          2    1    3    3  502    0 -0.35443814811E+03  0.16745594610E+03  0.40100313172E+02  0.39405066912E+03  0.00000000000E+00 0. -1.
         -1    1    3    3    0  502 -0.35910723663E+03  0.20169439415E+03 -0.35281141340E+02  0.41338044821E+03  0.00000000000E+00 0.  1.
         13    1    5    5    0    0  0.22838702093E+03  0.24940100561E+03  0.46036569981E+02  0.34129292215E+03  0.00000000000E+00 0.  1.
        -13    1    5    5    0    0  0.14814121929E+02  0.23143052924E+02  0.36845638462E+02  0.45963683282E+02  0.00000000000E+00 0. -1.
          4    1    6    6  503    0  0.63506714827E+02 -0.66014180411E+02  0.10347154608E+03  0.13819311014E+03  0.00000000000E+00 0. -1.
         -4    1    6    6    0  503  0.40683752705E+03 -0.57568021837E+03  0.47188583158E+03  0.84829282992E+03  0.00000000000E+00 0.  1.
<mgrwt>
<rscale>  0 0.20779489E+04</rscale>
<asrwt>0</asrwt>
<pdfrwt beam="1">  1        2 0.11677807E+00 0.20779489E+04</pdfrwt>
<pdfrwt beam="2">  1       -1 0.21878711E+00 0.20779489E+04</pdfrwt>
<totfact> 0.43612331E+00</totfact>
</mgrwt>
</event>
<event>
12    7  0.1675873E-007  0.1485675E+04  0.7818608E-02  0.8894035E-01
         -1   -1    0    0    0  501 -0.00000000000E+00  0.00000000000E+00  0.22891092529E+04  0.22891092529E+04  0.00000000000E+00 0.  1.
          2   -1    0    0  501    0  0.00000000000E+00 -0.00000000000E+00 -0.24105775116E+03  0.24105775116E+03  0.00000000000E+00 0. -1.
         24    2    1    2    0    0  0.38120385562E+02 -0.30234930900E+03  0.12374307270E+04  0.12771173938E+04  0.83221180971E+02 0.  0.
        254    2    1    2    0    0 -0.38120385562E+02  0.30234930900E+03  0.81062077473E+03  0.12530496103E+04  0.90562631196E+03 0.  0.
         23    2    4    4    0    0 -0.94178480083E+02  0.13797318071E+03 -0.16615920241E+03  0.25733018199E+03  0.10345896439E+03 0.  0.
         23    2    4    4    0    0  0.56058094521E+02  0.16437612829E+03  0.97677997714E+03  0.99571942827E+03  0.84829444050E+02 0.  0.
          2    1    3    3  502    0  0.19489134143E+02 -0.24314898314E+03  0.10934917755E+04  0.11203684740E+04  0.00000000000E+00 0. -1.
         -1    1    3    3    0  502  0.18631251418E+02 -0.59200325860E+02  0.14393895150E+03  0.15674891984E+03  0.00000000000E+00 0.  1.
         13    1    5    5    0    0 -0.72661864648E+02  0.12896638618E+03 -0.17772306093E+03  0.23129539927E+03  0.00000000000E+00 0. -1.
        -13    1    5    5    0    0 -0.21516615435E+02  0.90067945253E+01  0.11563858517E+02  0.26034782719E+02  0.00000000000E+00 0.  1.
          3    1    6    6  503    0  0.82139100260E+01  0.11951405291E+03  0.48454697935E+03  0.49913610605E+03  0.00000000000E+00 0. -1.
         -3    1    6    6    0  503  0.47844184495E+02  0.44862075382E+02  0.49223299779E+03  0.49658332223E+03  0.00000000000E+00 0.  1.
<mgrwt>
<rscale>  0 0.14856750E+04</rscale>
<asrwt>0</asrwt>
<pdfrwt beam="1">  1        2 0.37085809E-01 0.14856750E+04</pdfrwt>
<pdfrwt beam="2">  1       -1 0.35217064E+00 0.14856750E+04</pdfrwt>
<totfact> 0.23481713E+00</totfact>
</mgrwt>
</event>
<event>
12    7  0.1675873E-007  0.1663813E+04  0.7818608E-02  0.8782276E-01
         -1   -1    0    0    0  501 -0.00000000000E+00  0.00000000000E+00  0.70888681474E+03  0.70888681474E+03  0.00000000000E+00 0.  1.
          2   -1    0    0  501    0  0.00000000000E+00 -0.00000000000E+00 -0.97627504052E+03  0.97627504052E+03  0.00000000000E+00 0. -1.
         24    2    1    2    0    0 -0.30111499757E+03 -0.43820405234E+03 -0.33518970162E+03  0.63364800441E+03  0.80402886593E+02 0.  0.
        254    2    1    2    0    0  0.30111499757E+03  0.43820405234E+03  0.67801475841E+02  0.10515138509E+04  0.90464982461E+03 0.  0.
         23    2    4    4    0    0 -0.13416884534E+03  0.56337033100E+03  0.34876410108E+02  0.58725243955E+03  0.90893645888E+02 0.  0.
         23    2    4    4    0    0  0.43528384292E+03 -0.12516627866E+03  0.32925065733E+02  0.46426141131E+03  0.96519308238E+02 0.  0.
          2    1    3    3  502    0 -0.21749083587E+03 -0.35329360075E+03 -0.29005539966E+03  0.50621217576E+03  0.00000000000E+00 0. -1.
         -1    1    3    3    0  502 -0.83624161706E+02 -0.84910451585E+02 -0.45134301956E+02  0.12743582865E+03  0.00000000000E+00 0.  1.
         13    1    5    5    0    0 -0.86157260022E+02  0.48125783093E+03  0.47883808849E+02  0.49124844268E+03  0.00000000000E+00 0.  1.
        -13    1    5    5    0    0 -0.48011585322E+02  0.82112500070E+02 -0.13007398741E+02  0.96003996869E+02  0.00000000000E+00 0. -1.
          4    1    6    6  503    0  0.13651466488E+03 -0.15091930254E+02  0.48029452391E+02  0.14550205629E+03  0.00000000000E+00 0. -1.
         -4    1    6    6    0  503  0.29876917804E+03 -0.11007434840E+03 -0.15104386658E+02  0.31875935503E+03  0.00000000000E+00 0.  1.
<mgrwt>
<rscale>  0 0.16638131E+04</rscale>
<asrwt>0</asrwt>
<pdfrwt beam="1">  1        2 0.15019616E+00 0.16638131E+04</pdfrwt>
<pdfrwt beam="2">  1       -1 0.10905951E+00 0.16638131E+04</pdfrwt>
<totfact> 0.22132528E+01</totfact>
</mgrwt>
</event>
<event>
12    7  0.1675873E-007  0.2415032E+04  0.7818608E-02  0.8433897E-01
          2   -1    0    0  501    0  0.00000000000E+00  0.00000000000E+00  0.28743554219E+04  0.28743554219E+04  0.00000000000E+00 0. -1.
         -1   -1    0    0    0  501 -0.00000000000E+00 -0.00000000000E+00 -0.50727708957E+03  0.50727708957E+03  0.00000000000E+00 0.  1.
         24    2    1    2    0    0 -0.10374497143E+04 -0.30833082416E+02  0.98446593939E+03  0.14327649278E+04  0.79934747813E+02 0.  0.
        254    2    1    2    0    0  0.10374497143E+04  0.30833082416E+02  0.13826123929E+04  0.19488675836E+04  0.89956391692E+03 0.  0.
         23    2    4    4    0    0  0.72731635267E+03 -0.36206975662E+03  0.59437827607E+03  0.10108304220E+04  0.91700716969E+02 0.  0.
         23    2    4    4    0    0  0.31013336165E+03  0.39290283904E+03  0.78823411683E+03  0.93803716156E+03  0.89695878420E+02 0.  0.
          2    1    3    3  502    0 -0.29043886603E+03  0.24243695124E+02  0.29578126075E+03  0.41524576561E+03  0.00000000000E+00 0. -1.
         -1    1    3    3    0  502 -0.74701084830E+03 -0.55076777540E+02  0.68868467865E+03  0.10175191622E+04  0.00000000000E+00 0.  1.
         13    1    5    5    0    0  0.34845402641E+03 -0.17032325788E+03  0.34042986881E+03  0.51606464350E+03  0.00000000000E+00 0. -1.
        -13    1    5    5    0    0  0.37886232626E+03 -0.19174649875E+03  0.25394840725E+03  0.49476577852E+03  0.00000000000E+00 0.  1.
          4    1    6    6  503    0 -0.27615360384E+01  0.13418065913E+02  0.84486598748E+01  0.16095043579E+02  0.00000000000E+00 0. -1.
         -4    1    6    6    0  503  0.31289489769E+03  0.37948477313E+03  0.77978545696E+03  0.92194211799E+03  0.00000000000E+00 0.  1.
<mgrwt>
<rscale>  0 0.24150318E+04</rscale>
<asrwt>0</asrwt>
<pdfrwt beam="1">  1        2 0.44220852E+00 0.24150318E+04</pdfrwt>
<pdfrwt beam="2">  1       -1 0.78042631E-01 0.24150318E+04</pdfrwt>
<totfact> 0.35000374E+00</totfact>
</mgrwt>
</event>
<event>
12    7  0.1675873E-007  0.2175949E+04  0.7818608E-02  0.8528506E-01
         -1   -1    0    0    0  501 -0.00000000000E+00  0.00000000000E+00  0.20361614213E+04  0.20361614213E+04  0.00000000000E+00 0.  1.
          2   -1    0    0  501    0  0.00000000000E+00 -0.00000000000E+00 -0.58133340120E+03  0.58133340120E+03  0.00000000000E+00 0. -1.
         24    2    1    2    0    0 -0.70740273378E+03  0.13212916242E+03 -0.43847068905E+02  0.72565724476E+03  0.82335460746E+02 0.  0.
        254    2    1    2    0    0  0.70740273378E+03 -0.13212916242E+03  0.14986750890E+04  0.18918375777E+04  0.90285417140E+03 0.  0.
         23    2    4    4    0    0  0.74253176925E+02  0.24331778775E+03  0.89752051695E+03  0.93728198732E+03  0.90759932145E+02 0.  0.
         23    2    4    4    0    0  0.63314955686E+03 -0.37544695017E+03  0.60115457204E+03  0.95455559041E+03  0.89167157364E+02 0.  0.
          2    1    3    3  502    0 -0.45865569980E+03  0.12189859308E+03 -0.44903828430E+02  0.47669767333E+03  0.00000000000E+00 0. -1.
         -1    1    3    3    0  502 -0.24874703398E+03  0.10230569341E+02  0.10567595250E+01  0.24895957143E+03  0.00000000000E+00 0.  1.
         13    1    5    5    0    0  0.94388881064E+02  0.21607943776E+03  0.80131095650E+03  0.83528368432E+03  0.00000000000E+00 0.  1.
        -13    1    5    5    0    0 -0.20135704139E+02  0.27238349995E+02  0.96209560453E+02  0.10199830300E+03  0.00000000000E+00 0. -1.
          2    1    6    6  503    0  0.22283042428E+03 -0.84513238201E+02  0.18393581330E+03  0.30104529365E+03  0.00000000000E+00 0. -1.
         -2    1    6    6    0  503  0.41031913257E+03 -0.29093371197E+03  0.41721875874E+03  0.65351029675E+03  0.00000000000E+00 0.  1.
<mgrwt>
<rscale>  0 0.21759491E+04</rscale>
<asrwt>0</asrwt>
<pdfrwt beam="1">  1        2 0.89435909E-01 0.21759491E+04</pdfrwt>
<pdfrwt beam="2">  1       -1 0.31325560E+00 0.21759491E+04</pdfrwt>
<totfact> 0.14599035E+00</totfact>
</mgrwt>
</event>
<event>
12    7  0.1675873E-007  0.1551165E+04  0.7818608E-02  0.8851124E-01
         -1   -1    0    0    0  501 -0.00000000000E+00  0.00000000000E+00  0.61189809467E+03  0.61189809467E+03  0.00000000000E+00 0.  1.
          2   -1    0    0  501    0  0.00000000000E+00 -0.00000000000E+00 -0.98305321608E+03  0.98305321608E+03  0.00000000000E+00 0. -1.
         24    2    1    2    0    0  0.28620142941E+03 -0.10993134177E+03  0.30131824687E+03  0.43734494556E+03  0.80509362245E+02 0.  0.
        254    2    1    2    0    0 -0.28620142941E+03  0.10993134177E+03 -0.67247336828E+03  0.11576063652E+04  0.89097469526E+03 0.  0.
         23    2    4    4    0    0 -0.45472590517E+03 -0.23862120036E+03 -0.50523211634E+03  0.72606184228E+03  0.90501830575E+02 0.  0.
         23    2    4    4    0    0  0.16852447576E+03  0.34855254213E+03 -0.16724125194E+03  0.43154452292E+03  0.91496805140E+02 0.  0.
          2    1    3    3  502    0  0.46858822797E+02  0.44152769238E+01  0.21377467720E+02  0.51693714032E+02  0.00000000000E+00 0. -1.
         -1    1    3    3    0  502  0.23934260661E+03 -0.11434661870E+03  0.27994077915E+03  0.38565123153E+03  0.00000000000E+00 0.  1.
         13    1    5    5    0    0 -0.13611069193E+03 -0.45412970344E+02 -0.96197162436E+02  0.17274939188E+03  0.00000000000E+00 0.  1.
        -13    1    5    5    0    0 -0.31861521324E+03 -0.19320823002E+03 -0.40903495391E+03  0.55331245040E+03  0.00000000000E+00 0. -1.
          1    1    6    6  503    0  0.88978734765E+02  0.19073534627E+03 -0.41176612738E+02  0.21445908933E+03  0.00000000000E+00 0. -1.
         -1    1    6    6    0  503  0.79545740994E+02  0.15781719586E+03 -0.12606463920E+03  0.21708543359E+03  0.00000000000E+00 0.  1.
<mgrwt>
<rscale>  0 0.15511652E+04</rscale>
<asrwt>0</asrwt>
<pdfrwt beam="1">  1        2 0.15123895E+00 0.15511652E+04</pdfrwt>
<pdfrwt beam="2">  1       -1 0.94138169E-01 0.15511652E+04</pdfrwt>
<totfact> 0.31011090E+01</totfact>
</mgrwt>
</event>
<event>
12    7  0.1675873E-007  0.1581384E+04  0.7818608E-02  0.8832067E-01
         -1   -1    0    0    0  501 -0.00000000000E+00  0.00000000000E+00  0.29397282333E+03  0.29397282333E+03  0.00000000000E+00 0.  1.
          2   -1    0    0  501    0  0.00000000000E+00 -0.00000000000E+00 -0.21267075223E+04  0.21267075223E+04  0.00000000000E+00 0. -1.
         24    2    1    2    0    0  0.19268066062E+03  0.43996260540E+03 -0.98253955132E+03  0.10968482760E+04  0.83661457157E+02 0.  0.
        254    2    1    2    0    0 -0.19268066062E+03 -0.43996260540E+03 -0.85019514765E+03  0.13238320697E+04  0.89387170696E+03 0.  0.
         23    2    4    4    0    0  0.19176293350E+03  0.16380843988E+03 -0.10707692882E+03  0.28824996851E+03  0.89534060649E+02 0.  0.
         23    2    4    4    0    0 -0.38444359412E+03 -0.60377104528E+03 -0.74311821883E+03  0.10355821012E+04  0.88708787248E+02 0.  0.
          2    1    3    3  502    0  0.18836935469E+03  0.40173861999E+03 -0.94022119593E+03  0.10396599588E+04  0.00000000000E+00 0. -1.
         -1    1    3    3    0  502  0.43113059323E+01  0.38223985414E+02 -0.42318355390E+02  0.57188317188E+02  0.00000000000E+00 0.  1.
         13    1    5    5    0    0  0.19757661106E+03  0.13773901714E+03 -0.94469406022E+02  0.25871417193E+03  0.00000000000E+00 0. -1.
        -13    1    5    5    0    0 -0.58136775553E+01  0.26069422735E+02 -0.12607522800E+02  0.29535796580E+02  0.00000000000E+00 0.  1.
          3    1    6    6  503    0 -0.12460288989E+03 -0.14670268675E+03 -0.24249168324E+03  0.30959614809E+03  0.00000000000E+00 0. -1.
         -3    1    6    6    0  503 -0.25984070423E+03 -0.45706835853E+03 -0.50062653559E+03  0.72598595309E+03  0.00000000000E+00 0.  1.
<mgrwt>
<rscale>  0 0.15813845E+04</rscale>
<asrwt>0</asrwt>
<pdfrwt beam="1">  1        2 0.32718577E+00 0.15813845E+04</pdfrwt>
<pdfrwt beam="2">  1       -1 0.45226589E-01 0.15813845E+04</pdfrwt>
<totfact> 0.30142341E+01</totfact>
</mgrwt>
</event>
<event>
12    7  0.1675873E-007  0.1720395E+04  0.7818608E-02  0.8749817E-01
          2   -1    0    0  501    0  0.00000000000E+00  0.00000000000E+00  0.28238198752E+04  0.28238198752E+04  0.00000000000E+00 0. -1.
         -1   -1    0    0    0  501 -0.00000000000E+00 -0.00000000000E+00 -0.26203504776E+03  0.26203504776E+03  0.00000000000E+00 0.  1.
         24    2    1    2    0    0 -0.41632607029E+03 -0.27875838591E+03  0.27182029166E+03  0.57501356908E+03  0.75635303605E+02 0.  0.
        254    2    1    2    0    0  0.41632607029E+03  0.27875838591E+03  0.22899645358E+04  0.25108413539E+04  0.89964053637E+03 0.  0.
         23    2    4    4    0    0  0.11309610621E+03 -0.27891912128E+03  0.36456981127E+03  0.48132064313E+03  0.90398057259E+02 0.  0.
         23    2    4    4    0    0  0.30322996408E+03  0.55767750719E+03  0.19253947245E+04  0.20295207108E+04  0.94110876265E+02 0.  0.
          2    1    3    3  502    0 -0.40085476894E+03 -0.25553522521E+03  0.27078442991E+03  0.54708957638E+03  0.00000000000E+00 0. -1.
         -1    1    3    3    0  502 -0.15471301347E+02 -0.23223160704E+02  0.10358617416E+01  0.27923992694E+02  0.00000000000E+00 0.  1.
         13    1    5    5    0    0  0.13046262625E+02  0.31224741062E+01  0.72931029405E+01  0.15269059026E+02  0.00000000000E+00 0. -1.
        -13    1    5    5    0    0  0.10004984359E+03 -0.28204159539E+03  0.35727670833E+03  0.46605158410E+03  0.00000000000E+00 0.  1.
          1    1    6    6  503    0  0.39881752373E+02  0.84591125275E+02  0.40298531953E+03  0.41369479137E+03  0.00000000000E+00 0. -1.
         -1    1    6    6    0  503  0.26334821170E+03  0.47308638192E+03  0.15224094050E+04  0.16158259194E+04  0.00000000000E+00 0.  1.
<mgrwt>
<rscale>  0 0.17203950E+04</rscale>
<asrwt>0</asrwt>
<pdfrwt beam="1">  1        2 0.43443381E+00 0.17203950E+04</pdfrwt>
<pdfrwt beam="2">  1       -1 0.40313086E-01 0.17203950E+04</pdfrwt>
<totfact> 0.14576302E+01</totfact>
</mgrwt>
</event>
<event>
12    7  0.1675873E-007  0.2053034E+04  0.7818608E-02  0.8582219E-01
          2   -1    0    0  501    0  0.00000000000E+00  0.00000000000E+00  0.92227368732E+03  0.92227368732E+03  0.00000000000E+00 0. -1.
         -1   -1    0    0    0  501 -0.00000000000E+00 -0.00000000000E+00 -0.11425425100E+04  0.11425425100E+04  0.00000000000E+00 0.  1.
         24    2    1    2    0    0 -0.33466483406E+03  0.10064010981E+03  0.72673282510E+03  0.81090529851E+03  0.85427286131E+02 0.  0.
        254    2    1    2    0    0  0.33466483406E+03 -0.10064010981E+03 -0.94700164783E+03  0.12539108989E+04  0.74387595634E+03 0.  0.
         23    2    4    4    0    0  0.23811096260E+03  0.10058871117E+02  0.34863701627E+02  0.25678829596E+03  0.89032240509E+02 0.  0.
         23    2    4    4    0    0  0.96553871455E+02 -0.11069898093E+03 -0.98186534945E+03  0.99712260290E+03  0.92827831407E+02 0.  0.
          4    1    3    3  502    0 -0.16653978774E+03  0.45758638653E+02  0.45511707106E+03  0.48678630042E+03  0.00000000000E+00 0. -1.
         -3    1    3    3    0  502 -0.16812504632E+03  0.54881471159E+02  0.27161575404E+03  0.32411899808E+03  0.00000000000E+00 0.  1.
         13    1    5    5    0    0  0.65501944432E+02  0.41234489314E+02 -0.25436966853E+01  0.77441966828E+02  0.00000000000E+00 0.  1.
        -13    1    5    5    0    0  0.17260901817E+03 -0.31175618197E+02  0.37407398312E+02  0.17934632913E+03  0.00000000000E+00 0. -1.
          1    1    6    6  503    0  0.68276749476E+02 -0.12308086966E+03 -0.85803900386E+03  0.86950649632E+03  0.00000000000E+00 0. -1.
         -1    1    6    6    0  503  0.28277121979E+02  0.12381888728E+02 -0.12382634559E+03  0.12761610658E+03  0.00000000000E+00 0.  1.
<mgrwt>
<rscale>  0 0.20530337E+04</rscale>
<asrwt>0</asrwt>
<pdfrwt beam="1">  1        2 0.14188826E+00 0.20530337E+04</pdfrwt>
<pdfrwt beam="2">  1       -1 0.17577577E+00 0.20530337E+04</pdfrwt>
<totfact> 0.66744048E+00</totfact>
</mgrwt>
</event>
<event>
12    7  0.1675873E-007  0.1298350E+04  0.7818608E-02  0.9030875E-01
         -1   -1    0    0    0  501 -0.00000000000E+00  0.00000000000E+00  0.28398983655E+03  0.28398983655E+03  0.00000000000E+00 0.  1.
          2   -1    0    0  501    0  0.00000000000E+00 -0.00000000000E+00 -0.14839550463E+04  0.14839550463E+04  0.00000000000E+00 0. -1.
         24    2    1    2    0    0  0.90068521249E+00 -0.31887366312E+03 -0.40481773604E+03  0.52145927447E+03  0.79756825750E+02 0.  0.
        254    2    1    2    0    0 -0.90068521249E+00  0.31887366312E+03 -0.79514747372E+03  0.12464856084E+04  0.90542014707E+03 0.  0.
         23    2    4    4    0    0  0.28956703749E+03  0.43575356708E+03 -0.19956432014E+03  0.56720290542E+03  0.90349198259E+02 0.  0.
         23    2    4    4    0    0 -0.29046772270E+03 -0.11687990396E+03 -0.59558315359E+03  0.67928270298E+03  0.93130488295E+02 0.  0.
          2    1    3    3  502    0 -0.99525465944E+01 -0.23975740494E+03 -0.24577611034E+03  0.34349463288E+03  0.00000000000E+00 0. -1.
         -1    1    3    3    0  502  0.10853231807E+02 -0.79116258178E+02 -0.15904162570E+03  0.17796464159E+03  0.00000000000E+00 0.  1.
         13    1    5    5    0    0  0.24385734487E+03  0.39026400617E+03 -0.14431806314E+03  0.48228632834E+03  0.00000000000E+00 0.  1.
        -13    1    5    5    0    0  0.45709692614E+02  0.45489560910E+02 -0.55246256991E+02  0.84916577075E+02  0.00000000000E+00 0. -1.
          4    1    6    6  503    0 -0.16583895803E+03 -0.93299564842E+02 -0.27402339507E+03  0.33361083593E+03  0.00000000000E+00 0. -1.
         -4    1    6    6    0  503 -0.12462876467E+03 -0.23580339117E+02 -0.32155975851E+03  0.34567186705E+03  0.00000000000E+00 0.  1.
<mgrwt>
<rscale>  0 0.12983500E+04</rscale>
<asrwt>0</asrwt>
<pdfrwt beam="1">  1        2 0.22830077E+00 0.12983500E+04</pdfrwt>
<pdfrwt beam="2">  1       -1 0.43690745E-01 0.12983500E+04</pdfrwt>
<totfact> 0.74902174E+01</totfact>
</mgrwt>
</event>
<event>
12    7  0.1675873E-007  0.1631266E+04  0.7818608E-02  0.8801567E-01
          2   -1    0    0  501    0  0.00000000000E+00  0.00000000000E+00  0.22142389845E+04  0.22142389845E+04  0.00000000000E+00 0. -1.
         -1   -1    0    0    0  501 -0.00000000000E+00 -0.00000000000E+00 -0.30044503971E+03  0.30044503971E+03  0.00000000000E+00 0.  1.
         24    2    1    2    0    0  0.31208577144E+03 -0.24784462810E+03  0.12911919033E+04  0.13536171809E+04  0.79236688239E+02 0.  0.
        254    2    1    2    0    0 -0.31208577144E+03  0.24784462810E+03  0.62260204148E+03  0.11610668433E+04  0.89533146055E+03 0.  0.
         23    2    4    4    0    0 -0.28029987797E+02 -0.56270784009E+02 -0.20348819115E+03  0.23161826923E+03  0.91035692763E+02 0.  0.
         23    2    4    4    0    0 -0.28405578364E+03  0.30411541211E+03  0.82609023263E+03  0.92944857412E+03  0.90970914994E+02 0.  0.
          2    1    3    3  502    0  0.29827758509E+03 -0.20874598301E+03  0.11829144216E+04  0.12376715768E+04  0.00000000000E+00 0. -1.
         -1    1    3    3    0  502  0.13808186354E+02 -0.39098645090E+02  0.10827748173E+03  0.11594560409E+03  0.00000000000E+00 0.  1.
         13    1    5    5    0    0 -0.83654744520E+01 -0.63558914926E+02 -0.20042029890E+03  0.21042341372E+03  0.00000000000E+00 0. -1.
        -13    1    5    5    0    0 -0.19664513345E+02  0.72881309166E+01 -0.30678922444E+01  0.21194855512E+02  0.00000000000E+00 0.  1.
          1    1    6    6  503    0 -0.14634887365E+02  0.55866318852E+01  0.73895865770E+01  0.17320403395E+02  0.00000000000E+00 0.  1.
         -1    1    6    6    0  503 -0.26942089628E+03  0.29852878022E+03  0.81870064605E+03  0.91212817072E+03  0.00000000000E+00 0. -1.
<mgrwt>
<rscale>  0 0.16312659E+04</rscale>
<asrwt>0</asrwt>
<pdfrwt beam="1">  1        2 0.34065214E+00 0.16312659E+04</pdfrwt>
<pdfrwt beam="2">  1       -1 0.46222315E-01 0.16312659E+04</pdfrwt>
<totfact> 0.25742070E+01</totfact>
</mgrwt>
</event>
<event>
12    7  0.1675873E-007  0.2093440E+04  0.7818608E-02  0.8564139E-01
          2   -1    0    0  501    0  0.00000000000E+00  0.00000000000E+00  0.42119834738E+04  0.42119834738E+04  0.00000000000E+00 0. -1.
         -1   -1    0    0    0  501 -0.00000000000E+00 -0.00000000000E+00 -0.26012034446E+03  0.26012034446E+03  0.00000000000E+00 0.  1.
         24    2    1    2    0    0  0.50607072415E+03 -0.46664773348E+03  0.54990587049E+03  0.88460271707E+03  0.79106356548E+02 0.  0.
        254    2    1    2    0    0 -0.50607072415E+03  0.46664773348E+03  0.34019572589E+04  0.35875011012E+04  0.90718425636E+03 0.  0.
         23    2    4    4    0    0 -0.22131251984E+03 -0.19732635334E+03  0.44620789976E+03  0.54337922278E+03  0.90788593893E+02 0.  0.
         23    2    4    4    0    0 -0.28475820432E+03  0.66397408681E+03  0.29557493591E+04  0.30441218784E+04  0.90966554114E+02 0.  0.
          2    1    3    3  502    0  0.23503079508E+03 -0.17596456046E+03  0.26593581125E+03  0.39613742171E+03  0.00000000000E+00 0. -1.
         -1    1    3    3    0  502  0.27103992907E+03 -0.29068317302E+03  0.28397005924E+03  0.48846529537E+03  0.00000000000E+00 0.  1.
         13    1    5    5    0    0 -0.13640482812E+03 -0.77357819041E+02  0.17554901280E+03  0.23538896575E+03  0.00000000000E+00 0. -1.
        -13    1    5    5    0    0 -0.84907691713E+02 -0.11996853430E+03  0.27065888696E+03  0.30799025703E+03  0.00000000000E+00 0.  1.
          1    1    6    6  503    0 -0.28160677426E+03  0.58733491109E+03  0.26281652363E+04  0.27076774517E+04  0.00000000000E+00 0. -1.
         -1    1    6    6    0  503 -0.31514300588E+01  0.76639175719E+02  0.32758412280E+03  0.33644442673E+03  0.00000000000E+00 0.  1.
<mgrwt>
<rscale>  0 0.20934398E+04</rscale>
<asrwt>0</asrwt>
<pdfrwt beam="1">  1        2 0.64799741E+00 0.20934398E+04</pdfrwt>
<pdfrwt beam="2">  1       -1 0.40018518E-01 0.20934398E+04</pdfrwt>
<totfact> 0.14658099E+00</totfact>
</mgrwt>
</event>
<event>
12    7  0.1675873E-007  0.2846856E+04  0.7818608E-02  0.8288867E-01
         -1   -1    0    0    0  501 -0.00000000000E+00  0.00000000000E+00  0.92726603650E+03  0.92726603650E+03  0.00000000000E+00 0.  1.
          2   -1    0    0  501    0  0.00000000000E+00 -0.00000000000E+00 -0.21850766949E+04  0.21850766949E+04  0.00000000000E+00 0. -1.
         24    2    1    2    0    0 -0.98044107507E+03  0.28711912915E+03  0.28781373992E+03  0.10644488222E+04  0.80699753317E+02 0.  0.
        254    2    1    2    0    0  0.98044107507E+03 -0.28711912915E+03 -0.15456243984E+04  0.20478939092E+04  0.87247497766E+03 0.  0.
         23    2    4    4    0    0  0.24003980790E+03 -0.39090696161E+03 -0.20668984121E+03  0.51164011283E+03  0.92884619742E+02 0.  0.
         23    2    4    4    0    0  0.74040126718E+03  0.10378783246E+03 -0.13389345572E+04  0.15362537964E+04  0.91455060109E+02 0.  0.
          4    1    3    3  502    0 -0.16273282686E+03  0.66843644488E+02  0.24656477915E+02  0.17764568007E+03  0.00000000000E+00 0. -1.
         -3    1    3    3    0  502 -0.81770824822E+03  0.22027548467E+03  0.26315726201E+03  0.88680314213E+03  0.00000000000E+00 0.  1.
         13    1    5    5    0    0  0.17670650921E+03 -0.29722026363E+03 -0.11000739395E+03  0.36285906662E+03  0.00000000000E+00 0.  1.
        -13    1    5    5    0    0  0.63333298689E+02 -0.93686697986E+02 -0.96682447259E+02  0.14878104621E+03  0.00000000000E+00 0. -1.
          1    1    6    6  503    0  0.11618117394E+03 -0.59947093563E+01 -0.16101550541E+03  0.19864539940E+03  0.00000000000E+00 0. -1.
         -1    1    6    6    0  503  0.62422009324E+03  0.10978254182E+03 -0.11779190518E+04  0.13376083970E+04  0.00000000000E+00 0.  1.
<mgrwt>
<rscale>  0 0.28468561E+04</rscale>
<asrwt>0</asrwt>
<pdfrwt beam="1">  1        2 0.33616564E+00 0.28468561E+04</pdfrwt>
<pdfrwt beam="2">  1       -1 0.14265632E+00 0.28468561E+04</pdfrwt>
<totfact> 0.20702699E+00</totfact>
</mgrwt>
</event>
<event>
12    7  0.1675873E-007  0.1756493E+04  0.7818608E-02  0.8729784E-01
         -1   -1    0    0    0  501 -0.00000000000E+00  0.00000000000E+00  0.12315503127E+04  0.12315503127E+04  0.00000000000E+00 0.  1.
          2   -1    0    0  501    0  0.00000000000E+00 -0.00000000000E+00 -0.62629768572E+03  0.62629768572E+03  0.00000000000E+00 0. -1.
         24    2    1    2    0    0 -0.34961616070E+03  0.50927425196E+03  0.50634542744E+02  0.62849626586E+03  0.10417281673E+03 0.  0.
        254    2    1    2    0    0  0.34961616070E+03 -0.50927425196E+03  0.55461808423E+03  0.12293517326E+04  0.90670432857E+03 0.  0.
         23    2    4    4    0    0 -0.51246495095E+02 -0.47333965497E+03 -0.60660268974E+02  0.48862478821E+03  0.91639965043E+02 0.  0.
         23    2    4    4    0    0  0.40086265580E+03 -0.35934596992E+02  0.61527835320E+03  0.74072694435E+03  0.90148710972E+02 0.  0.
          2    1    3    3  502    0 -0.23005291367E+03  0.36982150939E+03 -0.81971081085E+01  0.43561391676E+03  0.00000000000E+00 0. -1.
         -1    1    3    3    0  502 -0.11956324703E+03  0.13945274257E+03  0.58831650853E+02  0.19288234910E+03  0.00000000000E+00 0.  1.
         13    1    5    5    0    0 -0.59867537729E+02 -0.42270239732E+03 -0.78834297865E+02  0.43413855541E+03  0.00000000000E+00 0. -1.
        -13    1    5    5    0    0  0.86210426341E+01 -0.50637257650E+02  0.18174028891E+02  0.54486232799E+02  0.00000000000E+00 0.  1.
          1    1    6    6  503    0  0.22379330883E+03 -0.20104861438E+01  0.41317386206E+03  0.46989374056E+03  0.00000000000E+00 0. -1.
         -1    1    6    6    0  503  0.17706934697E+03 -0.33924110848E+02  0.20210449114E+03  0.27083320378E+03  0.00000000000E+00 0.  1.
<mgrwt>
<rscale>  0 0.17564932E+04</rscale>
<asrwt>0</asrwt>
<pdfrwt beam="1">  1        2 0.96353490E-01 0.17564932E+04</pdfrwt>
<pdfrwt beam="2">  1       -1 0.18946928E+00 0.17564932E+04</pdfrwt>
<totfact> 0.90758561E+00</totfact>
</mgrwt>
</event>
<event>
12    7  0.1675873E-007  0.3274998E+04  0.7818608E-02  0.8169286E-01
          2   -1    0    0  501    0  0.00000000000E+00  0.00000000000E+00  0.69453212623E+03  0.69453212623E+03  0.00000000000E+00 0. -1.
         -1   -1    0    0    0  501 -0.00000000000E+00 -0.00000000000E+00 -0.38607339894E+04  0.38607339894E+04  0.00000000000E+00 0.  1.
         24    2    1    2    0    0  0.81085348847E+03  0.11862163334E+04 -0.79279966844E+03  0.16430315169E+04  0.80179060208E+02 0.  0.
        254    2    1    2    0    0 -0.81085348847E+03 -0.11862163334E+04 -0.23734021947E+04  0.29122345987E+04  0.88514394914E+03 0.  0.
         23    2    4    4    0    0 -0.74200605900E+03 -0.10379636559E+04 -0.13065471040E+04  0.18284264608E+04  0.90202245006E+02 0.  0.
         23    2    4    4    0    0 -0.68847429471E+02 -0.14825267758E+03 -0.10668550907E+04  0.10838081379E+04  0.98698887412E+02 0.  0.
          4    1    3    3  502    0  0.75611187271E+03  0.10885435227E+04 -0.70840462455E+03  0.15028204407E+04  0.00000000000E+00 0. -1.
         -3    1    3    3    0  502  0.54741615758E+02  0.97672810793E+02 -0.84395043891E+02  0.14021107623E+03  0.00000000000E+00 0.  1.
         13    1    5    5    0    0 -0.34470889922E+03 -0.47189240078E+03 -0.53499037509E+03  0.79228868764E+03  0.00000000000E+00 0. -1.
        -13    1    5    5    0    0 -0.39729715978E+03 -0.56607125509E+03 -0.77155672891E+03  0.10361377731E+04  0.00000000000E+00 0.  1.
          3    1    6    6  503    0 -0.26388216851E+02 -0.51509896334E+02 -0.14823668755E+03  0.15913429217E+03  0.00000000000E+00 0. -1.
         -3    1    6    6    0  503 -0.42459212620E+02 -0.96742781246E+02 -0.91861840315E+03  0.92467384577E+03  0.00000000000E+00 0.  1.
<mgrwt>
<rscale>  0 0.32749985E+04</rscale>
<asrwt>0</asrwt>
<pdfrwt beam="1">  1        2 0.10685110E+00 0.32749985E+04</pdfrwt>
<pdfrwt beam="2">  1       -1 0.59395907E+00 0.32749985E+04</pdfrwt>
<totfact> 0.18266247E-02</totfact>
</mgrwt>
</event>
<event>
12    7  0.1692708E-007  0.1431442E+04  0.7818608E-02  0.8931369E-01
          2   -1    0    0  501    0  0.00000000000E+00  0.00000000000E+00  0.21674485244E+04  0.21674485244E+04  0.00000000000E+00 0. -1.
         -1   -1    0    0    0  501 -0.00000000000E+00 -0.00000000000E+00 -0.23634066788E+03  0.23634066788E+03  0.00000000000E+00 0.  1.
         24    2    1    2    0    0 -0.23440583737E+02  0.41102667615E+03  0.35442405853E+03  0.54868160095E+03  0.77088886891E+02 0.  0.
        254    2    1    2    0    0  0.23440583737E+02 -0.41102667615E+03  0.15766837980E+04  0.18551075914E+04  0.88656640313E+03 0.  0.
         23    2    4    4    0    0  0.25259287392E+03 -0.10463529487E+03  0.67971170104E+02  0.29590374957E+03  0.90483391600E+02 0.  0.
         23    2    4    4    0    0 -0.22915229019E+03 -0.30639138127E+03  0.15087126279E+04  0.15592038418E+04  0.92284213340E+02 0.  0.
          4    1    3    3  502    0  0.43919046121E+01  0.75182269695E+02  0.30508826688E+02  0.81255467561E+02  0.00000000000E+00 0. -1.
         -3    1    3    3    0  502 -0.27832488350E+02  0.33584440645E+03  0.32391523184E+03  0.46742613338E+03  0.00000000000E+00 0.  1.
         13    1    5    5    0    0  0.33337071650E+02 -0.31785676825E+02  0.43867135932E+02  0.63608295153E+02  0.00000000000E+00 0. -1.
        -13    1    5    5    0    0  0.21925580227E+03 -0.72849618045E+02  0.24104034173E+02  0.23229545442E+03  0.00000000000E+00 0.  1.
          2    1    6    6  503    0 -0.78417106605E+02 -0.68157832318E+02  0.28246415204E+03  0.30096632685E+03  0.00000000000E+00 0. -1.
         -2    1    6    6    0  503 -0.15073518358E+03 -0.23823354896E+03  0.12262484759E+04  0.12582375150E+04  0.00000000000E+00 0.  1.
<mgrwt>
<rscale>  0 0.14314416E+04</rscale>
<asrwt>0</asrwt>
<pdfrwt beam="1">  1        2 0.33345361E+00 0.14314416E+04</pdfrwt>
<pdfrwt beam="2">  1       -1 0.36360104E-01 0.14314416E+04</pdfrwt>
<totfact> 0.43215786E+01</totfact>
</mgrwt>
</event>
<event>
12    7  0.1675873E-007  0.1834005E+04  0.7818608E-02  0.8688422E-01
          2   -1    0    0  501    0  0.00000000000E+00  0.00000000000E+00  0.40986868783E+03  0.40986868783E+03  0.00000000000E+00 0. -1.
         -3   -1    0    0    0  501 -0.00000000000E+00 -0.00000000000E+00 -0.20516180963E+04  0.20516180963E+04  0.00000000000E+00 0.  1.
         24    2    1    2    0    0  0.17045086823E+03  0.65245598744E+03 -0.41134710244E+03  0.79372225905E+03  0.77693447659E+02 0.  0.
        254    2    1    2    0    0 -0.17045086823E+03 -0.65245598744E+03 -0.12304023061E+04  0.16677645251E+04  0.90155219618E+03 0.  0.
         23    2    4    4    0    0 -0.15710293876E+03 -0.53020734967E+03 -0.15500956628E+03  0.58162678805E+03  0.91981454279E+02 0.  0.
         23    2    4    4    0    0 -0.13347929472E+02 -0.12224863777E+03 -0.10753927398E+04  0.10861377371E+04  0.90015234437E+02 0.  0.
          4    1    3    3  502    0  0.61675825906E+02  0.27524433825E+03 -0.21569065386E+03  0.35508563953E+03  0.00000000000E+00 0. -1.
         -3    1    3    3    0  502  0.10877504233E+03  0.37721164918E+03 -0.19565644859E+03  0.43863661952E+03  0.00000000000E+00 0.  1.
         13    1    5    5    0    0 -0.83389012196E+02 -0.13860792305E+03 -0.54176680623E+02  0.17059014160E+03  0.00000000000E+00 0. -1.
        -13    1    5    5    0    0 -0.73713926567E+02 -0.39159942662E+03 -0.10083288566E+03  0.41103664646E+03  0.00000000000E+00 0.  1.
          1    1    6    6  503    0 -0.40218424779E+02 -0.96276165727E+02 -0.57791890360E+03  0.58726219095E+03  0.00000000000E+00 0.  1.
         -1    1    6    6    0  503  0.26870495307E+02 -0.25972472039E+02 -0.49747383618E+03  0.49887554611E+03  0.00000000000E+00 0. -1.
<mgrwt>
<rscale>  0 0.18340055E+04</rscale>
<asrwt>0</asrwt>
<pdfrwt beam="1">  1        2 0.63056720E-01 0.18340055E+04</pdfrwt>
<pdfrwt beam="2">  1       -3 0.31563356E+00 0.18340055E+04</pdfrwt>
<totfact> 0.14102306E+00</totfact>
</mgrwt>
</event>
<event>
12    7  0.1675873E-007  0.1875785E+04  0.7818608E-02  0.8667005E-01
         -3   -1    0    0    0  501 -0.00000000000E+00  0.00000000000E+00  0.14724292219E+04  0.14724292219E+04  0.00000000000E+00 0.  1.
          2   -1    0    0  501    0  0.00000000000E+00 -0.00000000000E+00 -0.59740877012E+03  0.59740877012E+03  0.00000000000E+00 0. -1.
         24    2    1    2    0    0  0.41023516377E+03  0.31113786753E+02 -0.31466012574E+03  0.52404769175E+03  0.79712177131E+02 0.  0.
        254    2    1    2    0    0 -0.41023516377E+03 -0.31113786753E+02  0.11896805776E+04  0.15457903003E+04  0.89714370009E+03 0.  0.
         23    2    4    4    0    0 -0.44467742400E+03  0.22083574238E+03  0.11709997693E+04  0.12749998169E+04  0.88756053027E+02 0.  0.
         23    2    4    4    0    0  0.34442260229E+02 -0.25194952913E+03  0.18680808241E+02  0.27079048337E+03  0.91179376889E+02 0.  0.
          2    1    3    3  502    0  0.38954284592E+03  0.20807860211E+02 -0.27211920744E+03  0.47563164204E+03  0.00000000000E+00 0. -1.
         -1    1    3    3    0  502  0.20692317845E+02  0.10305926541E+02 -0.42540918295E+02  0.48416049705E+02  0.00000000000E+00 0.  1.
         13    1    5    5    0    0 -0.11852744720E+03  0.66432646219E+02  0.42720736199E+03  0.44829474942E+03  0.00000000000E+00 0. -1.
        -13    1    5    5    0    0 -0.32614997680E+03  0.15440309616E+03  0.74379240733E+03  0.82670506752E+03  0.00000000000E+00 0.  1.
          3    1    6    6  503    0 -0.15478038852E+02 -0.45267403638E+01 -0.59363595086E+01  0.17184336741E+02  0.00000000000E+00 0. -1.
         -3    1    6    6    0  503  0.49920299081E+02 -0.24742278876E+03  0.24617167749E+02  0.25360614663E+03  0.00000000000E+00 0.  1.
<mgrwt>
<rscale>  0 0.18757848E+04</rscale>
<asrwt>0</asrwt>
<pdfrwt beam="1">  1        2 0.91909042E-01 0.18757848E+04</pdfrwt>
<pdfrwt beam="2">  1       -3 0.22652757E+00 0.18757848E+04</pdfrwt>
<totfact> 0.29445175E+00</totfact>
</mgrwt>
</event>
<event>
12    7  0.1675873E-007  0.1253371E+04  0.7818608E-02  0.9067382E-01
          2   -1    0    0  501    0  0.00000000000E+00  0.00000000000E+00  0.16617276039E+04  0.16617276039E+04  0.00000000000E+00 0. -1.
         -1   -1    0    0    0  501 -0.00000000000E+00 -0.00000000000E+00 -0.23634138438E+03  0.23634138438E+03  0.00000000000E+00 0.  1.
         24    2    1    2    0    0 -0.89070097345E+02  0.20311419849E+03  0.36717261363E+02  0.23741147995E+03  0.76336057413E+02 0.  0.
        254    2    1    2    0    0  0.89070097345E+02 -0.20311419849E+03  0.13886689582E+04  0.16606575083E+04  0.88328535862E+03 0.  0.
         23    2    4    4    0    0  0.25685052302E+03 -0.44487764748E+03  0.11724035919E+04  0.12832773364E+04  0.91554505364E+02 0.  0.
         23    2    4    4    0    0 -0.16778042567E+03  0.24176344898E+03  0.21626536626E+03  0.37738017192E+03  0.95106514032E+02 0.  0.
          2    1    3    3  502    0  0.57462343060E+01  0.18150789046E+02  0.21922572668E+02  0.29035659870E+02  0.00000000000E+00 0. -1.
         -1    1    3    3    0  502 -0.94816331651E+02  0.18496340944E+03  0.14794688694E+02  0.20837582008E+03  0.00000000000E+00 0.  1.
         13    1    5    5    0    0  0.25125124840E+03 -0.43490166577E+03  0.11672623346E+04  0.12707352228E+04  0.00000000000E+00 0. -1.
        -13    1    5    5    0    0  0.55992746233E+01 -0.99759817025E+01  0.51412573169E+01  0.12542113619E+02  0.00000000000E+00 0.  1.
          2    1    6    6  503    0 -0.20712604746E+02  0.35503693267E+02 -0.45141627998E+01  0.41350960046E+02  0.00000000000E+00 0.  1.
         -2    1    6    6    0  503 -0.14706782093E+03  0.20625975572E+03  0.22077952906E+03  0.33602921188E+03  0.00000000000E+00 0. -1.
<mgrwt>
<rscale>  0 0.12533715E+04</rscale>
<asrwt>0</asrwt>
<pdfrwt beam="1">  1        2 0.25565039E+00 0.12533715E+04</pdfrwt>
<pdfrwt beam="2">  1       -1 0.36360214E-01 0.12533715E+04</pdfrwt>
<totfact> 0.83584473E+01</totfact>
</mgrwt>
</event>
<event>
12    7  0.1675873E-007  0.1499255E+04  0.7818608E-02  0.8884948E-01
         -1   -1    0    0    0  501 -0.00000000000E+00  0.00000000000E+00  0.67154934643E+03  0.67154934643E+03  0.00000000000E+00 0.  1.
          2   -1    0    0  501    0  0.00000000000E+00 -0.00000000000E+00 -0.83678352814E+03  0.83678352814E+03  0.00000000000E+00 0. -1.
         24    2    1    2    0    0  0.67053419043E+02 -0.35590768557E+03  0.23900133289E+03  0.44069275058E+03  0.76954672620E+02 0.  0.
        254    2    1    2    0    0 -0.67053419043E+02  0.35590768557E+03 -0.40423551459E+03  0.10676401240E+04  0.91939253938E+03 0.  0.
         23    2    4    4    0    0 -0.45702897447E+03  0.18597282396E+03 -0.38317620038E+03  0.63150496998E+03  0.92266742720E+02 0.  0.
         23    2    4    4    0    0  0.38997555543E+03  0.16993486161E+03 -0.21059314213E+02  0.43613515402E+03  0.93870052923E+02 0.  0.
          2    1    3    3  502    0  0.21882541500E+02 -0.36045681860E+02  0.64525812019E+01  0.42658792850E+02  0.00000000000E+00 0. -1.
         -1    1    3    3    0  502  0.45170877543E+02 -0.31986200371E+03  0.23254875168E+03  0.39803395773E+03  0.00000000000E+00 0.  1.
         13    1    5    5    0    0 -0.45128203747E+01  0.13915814397E+02 -0.91171956721E+00  0.14657648878E+02  0.00000000000E+00 0. -1.
        -13    1    5    5    0    0 -0.45251615410E+03  0.17205700957E+03 -0.38226448081E+03  0.61684732110E+03  0.00000000000E+00 0.  1.
          2    1    6    6  503    0  0.16160528875E+03  0.12097998861E+03 -0.32465355882E+01  0.20189840759E+03  0.00000000000E+00 0.  1.
         -2    1    6    6    0  503  0.22837026668E+03  0.48954872996E+02 -0.17812778625E+02  0.23423674643E+03  0.00000000000E+00 0. -1.
<mgrwt>
<rscale>  0 0.14992551E+04</rscale>
<asrwt>0</asrwt>
<pdfrwt beam="1">  1        2 0.12873593E+00 0.14992551E+04</pdfrwt>
<pdfrwt beam="2">  1       -1 0.10331528E+00 0.14992551E+04</pdfrwt>
<totfact> 0.31626990E+01</totfact>
</mgrwt>
</event>
<event>
12    7  0.1675873E-007  0.3571617E+04  0.7818608E-02  0.8097024E-01
         -1   -1    0    0    0  501 -0.00000000000E+00  0.00000000000E+00  0.16766309004E+04  0.16766309004E+04  0.00000000000E+00 0.  1.
          2   -1    0    0  501    0  0.00000000000E+00 -0.00000000000E+00 -0.19020959331E+04  0.19020959331E+04  0.00000000000E+00 0. -1.
         24    2    1    2    0    0  0.11541442031E+04  0.73878953281E+03  0.85461838352E+03  0.16169183674E+04  0.78699492210E+02 0.  0.
        254    2    1    2    0    0 -0.11541442031E+04 -0.73878953281E+03 -0.10800834162E+04  0.19618084661E+04  0.89680179317E+03 0.  0.
         23    2    4    4    0    0 -0.53438389541E+03 -0.53689484126E+03 -0.10569945831E+04  0.13032909926E+04  0.86646665434E+02 0.  0.
         23    2    4    4    0    0 -0.61976030773E+03 -0.20189469154E+03 -0.23088833142E+02  0.65851747345E+03  0.90817746666E+02 0.  0.
          2    1    3    3  502    0  0.74018158709E+03  0.44099879369E+03  0.50590689954E+03  0.99914488884E+03  0.00000000000E+00 0. -1.
         -1    1    3    3    0  502  0.41396261606E+03  0.29779073911E+03  0.34871148398E+03  0.61777347860E+03  0.00000000000E+00 0.  1.
         13    1    5    5    0    0 -0.49230839776E+03 -0.52187047044E+03 -0.98553062220E+03  0.12190106454E+04  0.00000000000E+00 0.  1.
        -13    1    5    5    0    0 -0.42075497657E+02 -0.15024370828E+02 -0.71463960856E+02  0.84280347194E+02  0.00000000000E+00 0. -1.
          3    1    6    6  503    0 -0.17085093505E+03 -0.75397912213E+02  0.29895479935E+02  0.18912595511E+03  0.00000000000E+00 0. -1.
         -3    1    6    6    0  503 -0.44890937268E+03 -0.12649677933E+03 -0.52984313077E+02  0.46939151834E+03  0.00000000000E+00 0.  1.
<mgrwt>
<rscale>  0 0.35716175E+04</rscale>
<asrwt>0</asrwt>
<pdfrwt beam="1">  1        2 0.29263014E+00 0.35716175E+04</pdfrwt>
<pdfrwt beam="2">  1       -1 0.25794322E+00 0.35716175E+04</pdfrwt>
<totfact> 0.43554658E-01</totfact>
</mgrwt>
</event>
<event>
12    7  0.1675873E-007  0.1974873E+04  0.7818608E-02  0.8618459E-01
          2   -1    0    0  501    0  0.00000000000E+00  0.00000000000E+00  0.70778306769E+03  0.70778306769E+03  0.00000000000E+00 0. -1.
         -1   -1    0    0    0  501 -0.00000000000E+00 -0.00000000000E+00 -0.13775837813E+04  0.13775837813E+04  0.00000000000E+00 0.  1.
         24    2    1    2    0    0  0.28834725279E+02 -0.53967917214E+03  0.32900205682E+03  0.63781796139E+03  0.80525450984E+02 0.  0.
        254    2    1    2    0    0 -0.28834725279E+02  0.53967917214E+03 -0.99880277044E+03  0.14475488876E+04  0.89761113940E+03 0.  0.
         23    2    4    4    0    0  0.37633052507E+03  0.35166379032E+03 -0.78677830054E+03  0.94476177450E+03  0.90899014506E+02 0.  0.
         23    2    4    4    0    0 -0.40516525034E+03  0.18801538182E+03 -0.21202446990E+03  0.50278711312E+03  0.91278920845E+02 0.  0.
          4    1    3    3  502    0  0.49982447618E+02 -0.47838985158E+03  0.29922151204E+03  0.56647030675E+03  0.00000000000E+00 0. -1.
         -3    1    3    3    0  502 -0.21147722339E+02 -0.61289320569E+02  0.29780544778E+02  0.71347654644E+02  0.00000000000E+00 0.  1.
         13    1    5    5    0    0  0.53627379445E+02  0.33411396515E+02 -0.15357928728E+03  0.16606870483E+03  0.00000000000E+00 0. -1.
        -13    1    5    5    0    0  0.32270314562E+03  0.31825239381E+03 -0.63319901326E+03  0.77869306967E+03  0.00000000000E+00 0.  1.
          1    1    6    6  503    0 -0.63567139191E+02  0.23811065376E+02  0.12398686989E+01  0.67891717415E+02  0.00000000000E+00 0. -1.
         -1    1    6    6    0  503 -0.34159811115E+03  0.16420431644E+03 -0.21326433860E+03  0.43489539570E+03  0.00000000000E+00 0.  1.
<mgrwt>
<rscale>  0 0.19748726E+04</rscale>
<asrwt>0</asrwt>
<pdfrwt beam="1">  1        2 0.10888970E+00 0.19748726E+04</pdfrwt>
<pdfrwt beam="2">  1       -1 0.21193596E+00 0.19748726E+04</pdfrwt>
<totfact> 0.53546419E+00</totfact>
</mgrwt>
</event>
<event>
12    7  0.1675873E-007  0.2029137E+04  0.7818608E-02  0.8593118E-01
         -1   -1    0    0    0  501 -0.00000000000E+00  0.00000000000E+00  0.14254731273E+04  0.14254731273E+04  0.00000000000E+00 0.  1.
          2   -1    0    0  501    0  0.00000000000E+00 -0.00000000000E+00 -0.72211086288E+03  0.72211086288E+03  0.00000000000E+00 0. -1.
         24    2    1    2    0    0 -0.27652967258E+03 -0.71718005968E+03  0.82127450030E+01  0.77344887080E+03  0.85672683773E+02 0.  0.
        254    2    1    2    0    0  0.27652967258E+03  0.71718005968E+03  0.69514951946E+03  0.13741351194E+04  0.90232952640E+03 0.  0.
         23    2    4    4    0    0  0.36119740419E+03  0.74560349700E+03  0.83883720531E+03  0.11825311411E+04  0.91344967685E+02 0.  0.
         23    2    4    4    0    0 -0.84667731610E+02 -0.28423437316E+02 -0.14368768586E+03  0.19160397833E+03  0.89941185666E+02 0.  0.
          4    1    3    3  502    0 -0.18624198741E+03 -0.39486616862E+03 -0.23589218449E+02  0.43722056244E+03  0.00000000000E+00 0. -1.
         -3    1    3    3    0  502 -0.90287685173E+02 -0.32231389106E+03  0.31801963452E+02  0.33622830836E+03  0.00000000000E+00 0.  1.
         13    1    5    5    0    0  0.14817629078E+02  0.53614273078E+02  0.30254180553E+02  0.63319569251E+02  0.00000000000E+00 0.  1.
        -13    1    5    5    0    0  0.34637977511E+03  0.69198922392E+03  0.80858302476E+03  0.11192115718E+04  0.00000000000E+00 0. -1.
          3    1    6    6  503    0 -0.72701033495E+02 -0.17021745169E+02 -0.15467653580E+03  0.17175567183E+03  0.00000000000E+00 0. -1.
         -3    1    6    6    0  503 -0.11966698115E+02 -0.11401692148E+02  0.10988849943E+02  0.19848306494E+02  0.00000000000E+00 0.  1.
<mgrwt>
<rscale>  0 0.20291374E+04</rscale>
<asrwt>0</asrwt>
<pdfrwt beam="1">  1        2 0.11109398E+00 0.20291374E+04</pdfrwt>
<pdfrwt beam="2">  1       -1 0.21930356E+00 0.20291374E+04</pdfrwt>
<totfact> 0.46340883E+00</totfact>
</mgrwt>
</event>
<event>
12    7  0.1675873E-007  0.1590944E+04  0.7818608E-02  0.8826131E-01
          2   -1    0    0  501    0  0.00000000000E+00  0.00000000000E+00  0.57612390025E+03  0.57612390025E+03  0.00000000000E+00 0. -1.
         -1   -1    0    0    0  501 -0.00000000000E+00 -0.00000000000E+00 -0.10983321694E+04  0.10983321694E+04  0.00000000000E+00 0.  1.
         24    2    1    2    0    0  0.33997046144E+03 -0.91642707032E+01  0.25280706655E+03  0.43115106272E+03  0.79472809679E+02 0.  0.
        254    2    1    2    0    0 -0.33997046144E+03  0.91642707032E+01 -0.77501533568E+03  0.12433050069E+04  0.91076598045E+03 0.  0.
         23    2    4    4    0    0  0.58361558839E+02  0.29050240486E+03 -0.66644307068E+03  0.73521484122E+03  0.92718808826E+02 0.  0.
         23    2    4    4    0    0 -0.39833202028E+03 -0.28133813416E+03 -0.10857226500E+03  0.50809016569E+03  0.92456128148E+02 0.  0.
          4    1    3    3  502    0  0.17033334826E+03 -0.14052352528E+02  0.79184631446E+02  0.18836433845E+03  0.00000000000E+00 0. -1.
         -3    1    3    3    0  502  0.16963711317E+03  0.48880818248E+01  0.17362243511E+03  0.24278672427E+03  0.00000000000E+00 0.  1.
         13    1    5    5    0    0  0.72764406131E+02  0.13277572700E+03 -0.35014710553E+03  0.38148007548E+03  0.00000000000E+00 0. -1.
        -13    1    5    5    0    0 -0.14402847292E+02  0.15772667786E+03 -0.31629596515E+03  0.35373476574E+03  0.00000000000E+00 0.  1.
          4    1    6    6  503    0 -0.36930001059E+03 -0.24733961962E+03 -0.12287918655E+03  0.46114930309E+03  0.00000000000E+00 0. -1.
         -4    1    6    6    0  503 -0.29032009684E+02 -0.33998514533E+02  0.14306921545E+02  0.46940862592E+02  0.00000000000E+00 0.  1.
<mgrwt>
<rscale>  0 0.15909436E+04</rscale>
<asrwt>0</asrwt>
<pdfrwt beam="1">  1        2 0.88634447E-01 0.15909436E+04</pdfrwt>
<pdfrwt beam="2">  1       -1 0.16897418E+00 0.15909436E+04</pdfrwt>
<totfact> 0.14299174E+01</totfact>
</mgrwt>
</event>
<event>
12    7  0.1675873E-007  0.1668136E+04  0.7818608E-02  0.8779749E-01
         -1   -1    0    0    0  501 -0.00000000000E+00  0.00000000000E+00  0.30621877280E+03  0.30621877280E+03  0.00000000000E+00 0.  1.
          2   -1    0    0  501    0  0.00000000000E+00 -0.00000000000E+00 -0.22718052740E+04  0.22718052740E+04  0.00000000000E+00 0. -1.
         24    2    1    2    0    0 -0.20817264118E+03  0.51399337928E+03 -0.39415647960E+03  0.68472510346E+03  0.77227549638E+02 0.  0.
        254    2    1    2    0    0  0.20817264118E+03 -0.51399337928E+03 -0.15714300216E+04  0.18932989434E+04  0.89870102571E+03 0.  0.
         23    2    4    4    0    0  0.23252366193E+03 -0.27344924509E+03 -0.80099837812E+02  0.37955877078E+03  0.93846328955E+02 0.  0.
         23    2    4    4    0    0 -0.24351020745E+02 -0.24054413418E+03 -0.14913301838E+04  0.15137401726E+04  0.94282237220E+02 0.  0.
          2    1    3    3  502    0 -0.15946100707E+03  0.38583083625E+03 -0.33554475131E+03  0.53561509230E+03  0.00000000000E+00 0. -1.
         -1    1    3    3    0  502 -0.48711634114E+02  0.12816254303E+03 -0.58611728292E+02  0.14911001116E+03  0.00000000000E+00 0.  1.
         13    1    5    5    0    0  0.16680594436E+02 -0.55515297689E+02 -0.39517104038E+02  0.70155484602E+02  0.00000000000E+00 0. -1.
        -13    1    5    5    0    0  0.21584306749E+03 -0.21793394740E+03 -0.40582733774E+02  0.30940328617E+03  0.00000000000E+00 0.  1.
          4    1    6    6  503    0 -0.34964570017E+02 -0.94434172625E+02 -0.39356870148E+03  0.40624703925E+03  0.00000000000E+00 0. -1.
         -4    1    6    6    0  503  0.10613549273E+02 -0.14610996156E+03 -0.10977614823E+04  0.11074931333E+04  0.00000000000E+00 0.  1.
<mgrwt>
<rscale>  0 0.16681360E+04</rscale>
<asrwt>0</asrwt>
<pdfrwt beam="1">  1        2 0.34950851E+00 0.16681360E+04</pdfrwt>
<pdfrwt beam="2">  1       -1 0.47110580E-01 0.16681360E+04</pdfrwt>
<totfact> 0.22979504E+01</totfact>
</mgrwt>
</event>
<event>
12    7  0.1675873E-007  0.1250267E+04  0.7818608E-02  0.9069961E-01
         -1   -1    0    0    0  501 -0.00000000000E+00  0.00000000000E+00  0.29549304740E+03  0.29549304740E+03  0.00000000000E+00 0.  1.
          2   -1    0    0  501    0  0.00000000000E+00 -0.00000000000E+00 -0.13225076127E+04  0.13225076127E+04  0.00000000000E+00 0. -1.
         24    2    1    2    0    0  0.24990075416E+02 -0.13512313382E+03 -0.55598838155E+03  0.57855024305E+03  0.81942285520E+02 0.  0.
        254    2    1    2    0    0 -0.24990075416E+02  0.13512313382E+03 -0.47102618376E+03  0.10394504170E+04  0.91635622907E+03 0.  0.
         23    2    4    4    0    0  0.24722540634E+03  0.43618473185E+03 -0.25984303413E+03  0.57250600787E+03  0.94165836792E+02 0.  0.
         23    2    4    4    0    0 -0.27221548176E+03 -0.30106159803E+03 -0.21118314963E+03  0.46694440918E+03  0.93270596978E+02 0.  0.
          4    1    3    3  502    0  0.21951155835E+01 -0.12508961722E+03 -0.51963617780E+03  0.53448478758E+03  0.00000000000E+00 0. -1.
         -3    1    3    3    0  502  0.22794959833E+02 -0.10033516602E+02 -0.36352203744E+02  0.44065455475E+02  0.00000000000E+00 0.  1.
         13    1    5    5    0    0  0.16196144374E+02  0.97983336909E+02 -0.35198778407E+02  0.10536604484E+03  0.00000000000E+00 0. -1.
        -13    1    5    5    0    0  0.23102926197E+03  0.33820139494E+03 -0.22464425572E+03  0.46713996303E+03  0.00000000000E+00 0.  1.
          3    1    6    6  503    0 -0.19390601073E+02 -0.70914951310E+01 -0.35934492842E+02  0.41443606129E+02  0.00000000000E+00 0. -1.
         -3    1    6    6    0  503 -0.25282488069E+03 -0.29397010289E+03 -0.17524865679E+03  0.42550080305E+03  0.00000000000E+00 0.  1.
<mgrwt>
<rscale>  0 0.12502669E+04</rscale>
<asrwt>0</asrwt>
<pdfrwt beam="1">  1        2 0.20346271E+00 0.12502669E+04</pdfrwt>
<pdfrwt beam="2">  1       -1 0.45460470E-01 0.12502669E+04</pdfrwt>
<totfact> 0.86357890E+01</totfact>
</mgrwt>
</event>
<event>
12    7  0.1675873E-007  0.1457712E+04  0.7818608E-02  0.8913071E-01
         -1   -1    0    0    0  501 -0.00000000000E+00  0.00000000000E+00  0.31248529512E+03  0.31248529512E+03  0.00000000000E+00 0.  1.
          2   -1    0    0  501    0  0.00000000000E+00 -0.00000000000E+00 -0.17000192177E+04  0.17000192177E+04  0.00000000000E+00 0. -1.
         24    2    1    2    0    0 -0.13292680390E+03 -0.17864021467E+03 -0.97082797990E+03  0.99923959601E+03  0.79943368602E+02 0.  0.
        254    2    1    2    0    0  0.13292680390E+03  0.17864021467E+03 -0.41670594265E+03  0.10132649168E+04  0.89637050790E+03 0.  0.
         23    2    4    4    0    0  0.78683488360E+02 -0.11572474075E+03 -0.61789814800E+03  0.63980862329E+03  0.89295275198E+02 0.  0.
         23    2    4    4    0    0  0.54243315543E+02  0.29436495542E+03  0.20119220534E+03  0.37345629349E+03  0.96944496462E+02 0.  0.
          2    1    3    3  502    0 -0.56535267742E+02 -0.13820177268E+03 -0.57360362840E+03  0.59272007642E+03  0.00000000000E+00 0. -1.
         -1    1    3    3    0  502 -0.76391536161E+02 -0.40438441989E+02 -0.39722435149E+03  0.40651951959E+03  0.00000000000E+00 0.  1.
         13    1    5    5    0    0 -0.16877626024E+02 -0.27198250616E+02 -0.75848018960E+02  0.82325701193E+02  0.00000000000E+00 0.  1.
        -13    1    5    5    0    0  0.95561114384E+02 -0.88526490136E+02 -0.54205012903E+03  0.55748292209E+03  0.00000000000E+00 0. -1.
          1    1    6    6  503    0  0.20719314236E+02  0.27526806898E+03  0.17670731744E+03  0.32776100411E+03  0.00000000000E+00 0. -1.
         -1    1    6    6    0  503  0.33524001307E+02  0.19096886445E+02  0.24484887901E+02  0.45695289375E+02  0.00000000000E+00 0.  1.
<mgrwt>
<rscale>  0 0.14577119E+04</rscale>
<asrwt>0</asrwt>
<pdfrwt beam="1">  1        2 0.26154141E+00 0.14577119E+04</pdfrwt>
<pdfrwt beam="2">  1       -1 0.48074662E-01 0.14577119E+04</pdfrwt>
<totfact> 0.46829023E+01</totfact>
</mgrwt>
</event>
<event>
12    7  0.1675873E-007  0.1872220E+04  0.7818608E-02  0.8668809E-01
          2   -1    0    0  501    0  0.00000000000E+00  0.00000000000E+00  0.35602553002E+04  0.35602553002E+04  0.00000000000E+00 0. -1.
         -1   -1    0    0    0  501 -0.00000000000E+00 -0.00000000000E+00 -0.24613456374E+03  0.24613456374E+03  0.00000000000E+00 0.  1.
         24    2    1    2    0    0  0.33207824896E+03  0.10609498860E+03  0.13013622878E+01  0.35577660676E+03  0.71015423230E+02 0.  0.
        254    2    1    2    0    0 -0.33207824896E+03 -0.10609498860E+03  0.33128193742E+04  0.34506132572E+04  0.90023748794E+03 0.  0.
         23    2    4    4    0    0 -0.22560911568E+03  0.36013328124E+03  0.10501497560E+04  0.11361436961E+04  0.86096079437E+02 0.  0.
         23    2    4    4    0    0 -0.10646913327E+03 -0.46622826985E+03  0.22626696182E+04  0.23144695611E+04  0.91602795110E+02 0.  0.
          4    1    3    3  502    0  0.10572663555E+03 -0.48980660555E-01 -0.21817031527E+01  0.10574915457E+03  0.00000000000E+00 0. -1.
         -3    1    3    3    0  502  0.22635161341E+03  0.10614396926E+03  0.34830654405E+01  0.25002745219E+03  0.00000000000E+00 0.  1.
         13    1    5    5    0    0 -0.14741259036E+03  0.25520118943E+03  0.82050162804E+03  0.87182626738E+03  0.00000000000E+00 0.  1.
        -13    1    5    5    0    0 -0.78196525325E+02  0.10493209181E+03  0.22964812797E+03  0.26431742876E+03  0.00000000000E+00 0. -1.
          4    1    6    6  503    0 -0.48036112073E+02 -0.22521839205E+03  0.13079132632E+04  0.13280315870E+04  0.00000000000E+00 0. -1.
         -4    1    6    6    0  503 -0.58433021202E+02 -0.24100987780E+03  0.95475635505E+03  0.98643797406E+03  0.00000000000E+00 0.  1.
<mgrwt>
<rscale>  0 0.18722199E+04</rscale>
<asrwt>0</asrwt>
<pdfrwt beam="1">  1        2 0.54773155E+00 0.18722199E+04</pdfrwt>
<pdfrwt beam="2">  1       -1 0.37866858E-01 0.18722199E+04</pdfrwt>
<totfact> 0.53432231E+00</totfact>
</mgrwt>
</event>
<event>
12    7  0.1675873E-007  0.3232971E+04  0.7818608E-02  0.8180164E-01
         -1   -1    0    0    0  501 -0.00000000000E+00  0.00000000000E+00  0.21563564846E+04  0.21563564846E+04  0.00000000000E+00 0.  1.
          2   -1    0    0  501    0  0.00000000000E+00 -0.00000000000E+00 -0.12117779347E+04  0.12117779347E+04  0.00000000000E+00 0. -1.
         24    2    1    2    0    0 -0.56899035349E+02  0.14757319115E+04  0.26028735314E+03  0.15017469198E+04  0.80449549398E+02 0.  0.
        254    2    1    2    0    0  0.56899035349E+02 -0.14757319115E+04  0.68429119677E+03  0.18663874996E+04  0.91330481307E+03 0.  0.
         23    2    4    4    0    0  0.40503034636E+03 -0.69934510127E+03  0.76731275924E+02  0.81694958312E+03  0.91573907422E+02 0.  0.
         23    2    4    4    0    0 -0.34813131101E+03 -0.77638681026E+03  0.60755992085E+03  0.10494379164E+04  0.90658668455E+02 0.  0.
          2    1    3    3  502    0 -0.37336770803E+02  0.37395414983E+03  0.39379953079E+02  0.37787103796E+03  0.00000000000E+00 0. -1.
         -1    1    3    3    0  502 -0.19562264546E+02  0.11017777617E+04  0.22090740006E+03  0.11238758818E+04  0.00000000000E+00 0.  1.
         13    1    5    5    0    0  0.36059137010E+03 -0.55429425567E+03  0.71992679925E+02  0.66517005646E+03  0.00000000000E+00 0. -1.
        -13    1    5    5    0    0  0.44438976264E+02 -0.14505084560E+03  0.47385959986E+01  0.15177952666E+03  0.00000000000E+00 0.  1.
          3    1    6    6  503    0  0.23781922655E+00 -0.17586307797E+02  0.13709452652E+01  0.17641266134E+02  0.00000000000E+00 0. -1.
         -3    1    6    6    0  503 -0.34836913024E+03 -0.75880050247E+03  0.60618897558E+03  0.10317966503E+04  0.00000000000E+00 0.  1.
<mgrwt>
<rscale>  0 0.32329709E+04</rscale>
<asrwt>0</asrwt>
<pdfrwt beam="1">  1        2 0.18642737E+00 0.32329709E+04</pdfrwt>
<pdfrwt beam="2">  1       -1 0.33174715E+00 0.32329709E+04</pdfrwt>
<totfact> 0.36541779E-01</totfact>
</mgrwt>
</event>
<event>
12    7  0.1675873E-007  0.1634179E+04  0.7818608E-02  0.8799821E-01
          2   -1    0    0  501    0  0.00000000000E+00  0.00000000000E+00  0.64778502732E+03  0.64778502732E+03  0.00000000000E+00 0. -1.
         -1   -1    0    0    0  501 -0.00000000000E+00 -0.00000000000E+00 -0.10306432687E+04  0.10306432687E+04  0.00000000000E+00 0.  1.
         24    2    1    2    0    0  0.23767041932E+03 -0.20071451958E+03 -0.62124629912E+03  0.69913658346E+03  0.77919519810E+02 0.  0.
        254    2    1    2    0    0 -0.23767041932E+03  0.20071451958E+03  0.23838805777E+03  0.97929171253E+03  0.89744629118E+03 0.  0.
         23    2    4    4    0    0 -0.34275256017E+03  0.56070925200E+01  0.50727962461E+03  0.61870631490E+03  0.89185926927E+02 0.  0.
         23    2    4    4    0    0  0.10508214085E+03  0.19510742706E+03 -0.26889156685E+03  0.36058539763E+03  0.92790030948E+02 0.  0.
          2    1    3    3  502    0  0.10660882180E+03 -0.13364165743E+03 -0.37697639364E+03  0.41392841754E+03  0.00000000000E+00 0. -1.
         -1    1    3    3    0  502  0.13106159753E+03 -0.67072862152E+02 -0.24426990548E+03  0.28520816592E+03  0.00000000000E+00 0.  1.
         13    1    5    5    0    0 -0.29254447144E+03  0.35566676233E+02  0.43998691059E+03  0.52956183559E+03  0.00000000000E+00 0. -1.
        -13    1    5    5    0    0 -0.50208088735E+02 -0.29959583713E+02  0.67292714021E+02  0.89144479307E+02  0.00000000000E+00 0.  1.
          1    1    6    6  503    0  0.11137069573E+02  0.74195119525E+02 -0.14637940455E+03  0.16448671726E+03  0.00000000000E+00 0. -1.
         -1    1    6    6    0  503  0.93945071278E+02  0.12091230753E+03 -0.12251216230E+03  0.19609868036E+03  0.00000000000E+00 0.  1.
<mgrwt>
<rscale>  0 0.16341790E+04</rscale>
<asrwt>0</asrwt>
<pdfrwt beam="1">  1        2 0.99659236E-01 0.16341790E+04</pdfrwt>
<pdfrwt beam="2">  1       -1 0.15856050E+00 0.16341790E+04</pdfrwt>
<totfact> 0.14784073E+01</totfact>
</mgrwt>
</event>
<event>
12    7  0.1675873E-007  0.2839508E+04  0.7818608E-02  0.8291107E-01
          2   -1    0    0  501    0  0.00000000000E+00  0.00000000000E+00  0.27420505102E+04  0.27420505102E+04  0.00000000000E+00 0. -1.
         -1   -1    0    0    0  501 -0.00000000000E+00 -0.00000000000E+00 -0.73510709955E+03  0.73510709955E+03  0.00000000000E+00 0.  1.
         24    2    1    2    0    0 -0.29766024380E+03 -0.10751671766E+04  0.14418766083E+03  0.11272742688E+04  0.73287905049E+02 0.  0.
        254    2    1    2    0    0  0.29766024380E+03  0.10751671766E+04  0.18627557499E+04  0.23498833410E+04  0.89861374035E+03 0.  0.
         23    2    4    4    0    0  0.13310800361E+03 -0.18832126086E+02 -0.21328739426E+02  0.16304546144E+03  0.89758106992E+02 0.  0.
         23    2    4    4    0    0  0.16455224019E+03  0.10939993027E+04  0.18840844893E+04  0.21868378796E+04  0.92593923855E+02 0.  0.
          4    1    3    3  502    0  0.37248137385E+01 -0.13546056604E+02  0.52159718954E+01  0.14985868334E+02  0.00000000000E+00 0. -1.
         -3    1    3    3    0  502 -0.30138505754E+03 -0.10616211200E+04  0.13897168893E+03  0.11122884004E+04  0.00000000000E+00 0.  1.
         13    1    5    5    0    0  0.12727137281E+03 -0.64576823218E+01  0.11031561521E+02  0.12791168573E+03  0.00000000000E+00 0. -1.
        -13    1    5    5    0    0  0.58366308011E+01 -0.12374443764E+02 -0.32360300947E+02  0.35133775700E+02  0.00000000000E+00 0.  1.
          2    1    6    6  503    0  0.11998706450E+03  0.51930785123E+03  0.94583993621E+03  0.10856752392E+04  0.00000000000E+00 0.  1.
         -2    1    6    6    0  503  0.44565175691E+02  0.57469145148E+03  0.93824455309E+03  0.11011626404E+04  0.00000000000E+00 0. -1.
<mgrwt>
<rscale>  0 0.28395076E+04</rscale>
<asrwt>0</asrwt>
<pdfrwt beam="1">  1        2 0.42185392E+00 0.28395076E+04</pdfrwt>
<pdfrwt beam="2">  1       -1 0.11309340E+00 0.28395076E+04</pdfrwt>
<totfact> 0.17644684E+00</totfact>
</mgrwt>
</event>
<event>
12    7  0.1675873E-007  0.3804162E+04  0.7818608E-02  0.8045262E-01
         -1   -1    0    0    0  501 -0.00000000000E+00  0.00000000000E+00  0.14199432760E+04  0.14199432760E+04  0.00000000000E+00 0.  1.
          2   -1    0    0  501    0  0.00000000000E+00 -0.00000000000E+00 -0.25479270933E+04  0.25479270933E+04  0.00000000000E+00 0. -1.
         24    2    1    2    0    0  0.17921308765E+04 -0.13001593166E+03 -0.66153729948E+03  0.19164888219E+04  0.81612405958E+02 0.  0.
        254    2    1    2    0    0 -0.17921308765E+04  0.13001593166E+03 -0.46644651782E+03  0.20513815474E+04  0.87290129919E+03 0.  0.
         23    2    4    4    0    0 -0.14641055481E+04  0.42687439095E+03 -0.47341938684E+03  0.15993830194E+04  0.89851685828E+02 0.  0.
         23    2    4    4    0    0 -0.32802532843E+03 -0.29685845929E+03  0.69728690265E+01  0.45199852800E+03  0.92349810315E+02 0.  0.
          4    1    3    3  502    0  0.14434219591E+04 -0.85996716488E+02 -0.50372253473E+03  0.15312082743E+04  0.00000000000E+00 0. -1.
         -3    1    3    3    0  502  0.34870891737E+03 -0.44019215176E+02 -0.15781476475E+03  0.38528054756E+03  0.00000000000E+00 0.  1.
         13    1    5    5    0    0 -0.73273620618E+02  0.42641303587E+02 -0.25644411535E+02  0.88571666423E+02  0.00000000000E+00 0. -1.
        -13    1    5    5    0    0 -0.13908319275E+04  0.38423308736E+03 -0.44777497531E+03  0.15108113530E+04  0.00000000000E+00 0.  1.
          3    1    6    6  503    0 -0.19140587904E+03 -0.12622074708E+03 -0.26710061949E+02  0.23082745706E+03  0.00000000000E+00 0. -1.
         -3    1    6    6    0  503 -0.13661944939E+03 -0.17063771220E+03  0.33682930975E+02  0.22117107093E+03  0.00000000000E+00 0.  1.
<mgrwt>
<rscale>  0 0.38041619E+04</rscale>
<asrwt>0</asrwt>
<pdfrwt beam="1">  1        2 0.39198878E+00 0.38041619E+04</pdfrwt>
<pdfrwt beam="2">  1       -1 0.21845281E+00 0.38041619E+04</pdfrwt>
<totfact> 0.33514467E-01</totfact>
</mgrwt>
</event>
<event>
12    7  0.1675873E-007  0.1672530E+04  0.7818608E-02  0.8777188E-01
          2   -1    0    0  501    0  0.00000000000E+00  0.00000000000E+00  0.25052293316E+04  0.25052293316E+04  0.00000000000E+00 0. -1.
         -1   -1    0    0    0  501 -0.00000000000E+00 -0.00000000000E+00 -0.27915189026E+03  0.27915189026E+03  0.00000000000E+00 0.  1.
         24    2    1    2    0    0  0.49655028268E+03  0.15128968299E+02  0.13464489895E+04  0.14373456388E+04  0.79035025089E+02 0.  0.
        254    2    1    2    0    0 -0.49655028268E+03 -0.15128968299E+02  0.87962845183E+03  0.13470355830E+04  0.89104858441E+03 0.  0.
         23    2    4    4    0    0  0.42151708083E+02 -0.17463154260E+03  0.73296318383E+03  0.75886905874E+03  0.79839071243E+02 0.  0.
         23    2    4    4    0    0 -0.53870199077E+03  0.15950257430E+03  0.14666526801E+03  0.58816652430E+03  0.93745684748E+02 0.  0.
          2    1    3    3  502    0  0.29050508155E+03  0.35581643900E+01  0.67418918582E+03  0.73412323299E+03  0.00000000000E+00 0. -1.
         -1    1    3    3    0  502  0.20604520113E+03  0.11570803909E+02  0.67225980371E+03  0.70322240585E+03  0.00000000000E+00 0.  1.
         13    1    5    5    0    0  0.64323169230E+02 -0.13420840640E+03  0.51443293770E+03  0.53552835018E+03  0.00000000000E+00 0. -1.
        -13    1    5    5    0    0 -0.22171461147E+02 -0.40423136204E+02  0.21853024612E+03  0.22334070856E+03  0.00000000000E+00 0.  1.
          4    1    6    6  503    0 -0.14327113182E+03  0.21446537870E+02  0.14672322936E+01  0.14487485623E+03  0.00000000000E+00 0.  1.
         -4    1    6    6    0  503 -0.39543085895E+03  0.13805603643E+03  0.14519803571E+03  0.44329166807E+03  0.00000000000E+00 0. -1.
<mgrwt>
<rscale>  0 0.16725304E+04</rscale>
<asrwt>0</asrwt>
<pdfrwt beam="1">  1        2 0.38541988E+00 0.16725304E+04</pdfrwt>
<pdfrwt beam="2">  1       -1 0.42946446E-01 0.16725304E+04</pdfrwt>
<totfact> 0.20091018E+01</totfact>
</mgrwt>
</event>
<event>
12    7  0.1675873E-007  0.2090690E+04  0.7818608E-02  0.8565355E-01
         -1   -1    0    0    0  501 -0.00000000000E+00  0.00000000000E+00  0.12132677085E+04  0.12132677085E+04  0.00000000000E+00 0.  1.
          2   -1    0    0  501    0  0.00000000000E+00 -0.00000000000E+00 -0.90066395440E+03  0.90066395440E+03  0.00000000000E+00 0. -1.
         24    2    1    2    0    0  0.10219778977E+02  0.59758655715E+03 -0.48318020329E+03  0.77266952105E+03  0.79630036697E+02 0.  0.
        254    2    1    2    0    0 -0.10219778977E+02 -0.59758655715E+03  0.79578395735E+03  0.13412621418E+04  0.89916510672E+03 0.  0.
         23    2    4    4    0    0  0.16351891642E+03  0.21301687767E+02 -0.11619153889E+03  0.22132068233E+03  0.91050385974E+02 0.  0.
         23    2    4    4    0    0 -0.17373869540E+03 -0.61888824492E+03  0.91197549624E+03  0.11199414595E+04  0.96756255445E+02 0.  0.
          4    1    3    3  502    0 -0.18062674974E+02  0.51213617309E+03 -0.39958875702E+03  0.64983143564E+03  0.00000000000E+00 0. -1.
         -3    1    3    3    0  502  0.28282453951E+02  0.85450384060E+02 -0.83591446266E+02  0.12283808541E+03  0.00000000000E+00 0.  1.
         13    1    5    5    0    0  0.93095733350E+01 -0.91887583252E+01  0.12555423832E+02  0.18131191435E+02  0.00000000000E+00 0.  1.
        -13    1    5    5    0    0  0.15420934309E+03  0.30490446092E+02 -0.12874696273E+03  0.20318949089E+03  0.00000000000E+00 0. -1.
          1    1    6    6  503    0 -0.71075008152E+02 -0.40737925791E+03  0.54539874772E+03  0.68444817961E+03  0.00000000000E+00 0. -1.
         -1    1    6    6    0  503 -0.10266368725E+03 -0.21150898701E+03  0.36657674852E+03  0.43549327988E+03  0.00000000000E+00 0.  1.
<mgrwt>
<rscale>  0 0.20906903E+04</rscale>
<asrwt>0</asrwt>
<pdfrwt beam="1">  1        2 0.13856369E+00 0.20906903E+04</pdfrwt>
<pdfrwt beam="2">  1       -1 0.18665657E+00 0.20906903E+04</pdfrwt>
<totfact> 0.57492084E+00</totfact>
</mgrwt>
</event>
<event>
12    7  0.1675873E-007  0.2021773E+04  0.7818608E-02  0.8596508E-01
          2   -1    0    0  501    0  0.00000000000E+00  0.00000000000E+00  0.85596716462E+03  0.85596716462E+03  0.00000000000E+00 0. -1.
         -1   -1    0    0    0  501 -0.00000000000E+00 -0.00000000000E+00 -0.11938442642E+04  0.11938442642E+04  0.00000000000E+00 0.  1.
         24    2    1    2    0    0  0.44887520065E+02  0.80358223213E+03 -0.77909052041E+02  0.81191440491E+03  0.73320442234E+02 0.  0.
        254    2    1    2    0    0 -0.44887520065E+02 -0.80358223213E+03 -0.25996804754E+03  0.12378970239E+04  0.90390616925E+03 0.  0.
         23    2    4    4    0    0 -0.34619088940E+03 -0.67192463097E+03 -0.41012835712E+03  0.86470382161E+03  0.90424488834E+02 0.  0.
         23    2    4    4    0    0  0.30130336933E+03 -0.13165760116E+03  0.15016030958E+03  0.37319320231E+03  0.92777170470E+02 0.  0.
          4    1    3    3  502    0  0.13317594514E+02  0.17241508569E+03  0.13166545711E+02  0.17342917293E+03  0.00000000000E+00 0. -1.
         -3    1    3    3    0  502  0.31569925551E+02  0.63116714644E+03 -0.91075597752E+02  0.63848523198E+03  0.00000000000E+00 0.  1.
         13    1    5    5    0    0 -0.26773606728E+03 -0.54287519183E+03 -0.36602955761E+03  0.70737098659E+03  0.00000000000E+00 0. -1.
        -13    1    5    5    0    0 -0.78454822119E+02 -0.12904943914E+03 -0.44098799514E+02  0.15733283502E+03  0.00000000000E+00 0.  1.
          4    1    6    6  503    0  0.30711160268E+03 -0.13384410352E+03  0.14469072410E+03  0.36492079440E+03  0.00000000000E+00 0. -1.
         -4    1    6    6    0  503 -0.58082333491E+01  0.21865023562E+01  0.54695854803E+01  0.82724079032E+01  0.00000000000E+00 0.  1.
<mgrwt>
<rscale>  0 0.20217730E+04</rscale>
<asrwt>0</asrwt>
<pdfrwt beam="1">  1        2 0.13168726E+00 0.20217730E+04</pdfrwt>
<pdfrwt beam="2">  1       -1 0.18366835E+00 0.20217730E+04</pdfrwt>
<totfact> 0.65167282E+00</totfact>
</mgrwt>
</event>
<event>
12    7  0.1675873E-007  0.1861996E+04  0.7818608E-02  0.8674008E-01
         -1   -1    0    0    0  501 -0.00000000000E+00  0.00000000000E+00  0.72667853436E+03  0.72667853436E+03  0.00000000000E+00 0.  1.
          2   -1    0    0  501    0  0.00000000000E+00 -0.00000000000E+00 -0.11927657386E+04  0.11927657386E+04  0.00000000000E+00 0. -1.
         24    2    1    2    0    0  0.16426881284E+03 -0.44977847159E+03  0.37213580828E+03  0.61162774479E+03  0.79489131408E+02 0.  0.
        254    2    1    2    0    0 -0.16426881284E+03  0.44977847159E+03 -0.83822301247E+03  0.13078165281E+04  0.88231589367E+03 0.  0.
         23    2    4    4    0    0  0.18734558288E+03  0.38425029842E+03 -0.82961442102E+03  0.93756169363E+03  0.89527551751E+02 0.  0.
         23    2    4    4    0    0 -0.35161439573E+03  0.65528173172E+02 -0.86085914464E+01  0.37025483450E+03  0.95330529528E+02 0.  0.
          4    1    3    3  502    0  0.62256999242E+01 -0.14735291633E+02  0.36597091156E+02  0.39940396094E+02  0.00000000000E+00 0. -1.
         -3    1    3    3    0  502  0.15804311292E+03 -0.43504317996E+03  0.33553871713E+03  0.57168734870E+03  0.00000000000E+00 0.  1.
         13    1    5    5    0    0  0.60838512376E+02  0.11114081242E+03 -0.16556186201E+03  0.20848101815E+03  0.00000000000E+00 0. -1.
        -13    1    5    5    0    0  0.12650707051E+03  0.27310948600E+03 -0.66405255901E+03  0.72908067548E+03  0.00000000000E+00 0.  1.
          4    1    6    6  503    0 -0.20592591114E+02 -0.11358609630E+02 -0.19043304488E+02  0.30260870234E+02  0.00000000000E+00 0. -1.
         -4    1    6    6    0  503 -0.33102180461E+03  0.76886782802E+02  0.10434713041E+02  0.33999396426E+03  0.00000000000E+00 0.  1.
<mgrwt>
<rscale>  0 0.18619960E+04</rscale>
<asrwt>0</asrwt>
<pdfrwt beam="1">  1        2 0.18350242E+00 0.18619960E+04</pdfrwt>
<pdfrwt beam="2">  1       -1 0.11179670E+00 0.18619960E+04</pdfrwt>
<totfact> 0.15050663E+01</totfact>
</mgrwt>
</event>
<event>
12    7  0.1675873E-007  0.1546509E+04  0.7818608E-02  0.8854100E-01
         -1   -1    0    0    0  501 -0.00000000000E+00  0.00000000000E+00  0.68529873139E+03  0.68529873139E+03  0.00000000000E+00 0.  1.
          2   -1    0    0  501    0  0.00000000000E+00 -0.00000000000E+00 -0.87249960535E+03  0.87249960535E+03  0.00000000000E+00 0. -1.
         24    2    1    2    0    0  0.51941867184E+02  0.31267282432E+03  0.33021111254E+03  0.46498007644E+03  0.81883087443E+02 0.  0.
        254    2    1    2    0    0 -0.51941867184E+02 -0.31267282432E+03 -0.51741198651E+03  0.10928182603E+04  0.90888631502E+03 0.  0.
         23    2    4    4    0    0 -0.16178235368E+03 -0.45142674148E+03  0.49450808525E+02  0.49043601246E+03  0.90124730050E+02 0.  0.
         23    2    4    4    0    0  0.10984048650E+03  0.13875391716E+03 -0.56686279504E+03  0.60238224784E+03  0.10106118007E+03 0.  0.
          2    1    3    3  502    0  0.28906592928E+02  0.34062417101E+02  0.25439834027E+02  0.51410354295E+02  0.00000000000E+00 0. -1.
         -1    1    3    3    0  502  0.23035274257E+02  0.27861040722E+03  0.30477127852E+03  0.41356972215E+03  0.00000000000E+00 0.  1.
         13    1    5    5    0    0 -0.14634914378E+02 -0.16377129263E+03  0.72352084922E+01  0.16458300414E+03  0.00000000000E+00 0.  1.
        -13    1    5    5    0    0 -0.14714743930E+03 -0.28765544885E+03  0.42215600033E+02  0.32585300832E+03  0.00000000000E+00 0. -1.
          1    1    6    6  503    0  0.11680719301E+03  0.14995413495E+03 -0.51812001480E+03  0.55188632223E+03  0.00000000000E+00 0. -1.
         -1    1    6    6    0  503 -0.69667065117E+01 -0.11200217794E+02 -0.48742780235E+02  0.50495925611E+02  0.00000000000E+00 0.  1.
<mgrwt>
<rscale>  0 0.15465095E+04</rscale>
<asrwt>0</asrwt>
<pdfrwt beam="1">  1        2 0.13423071E+00 0.15465095E+04</pdfrwt>
<pdfrwt beam="2">  1       -1 0.10543057E+00 0.15465095E+04</pdfrwt>
<totfact> 0.28382984E+01</totfact>
</mgrwt>
</event>
<event>
12    7  0.1675873E-007  0.2799395E+04  0.7818608E-02  0.8303456E-01
         -1   -1    0    0    0  501 -0.00000000000E+00  0.00000000000E+00  0.87292844748E+03  0.87292844748E+03  0.00000000000E+00 0.  1.
          2   -1    0    0  501    0  0.00000000000E+00 -0.00000000000E+00 -0.22443449755E+04  0.22443449755E+04  0.00000000000E+00 0. -1.
         24    2    1    2    0    0  0.86400783204E+03 -0.55624623222E+03 -0.14123427146E+04  0.17484230016E+04  0.79697202844E+02 0.  0.
        254    2    1    2    0    0 -0.86400783204E+03  0.55624623222E+03  0.40926186611E+02  0.13688504214E+04  0.90341414577E+03 0.  0.
         23    2    4    4    0    0 -0.61518437018E+03  0.73174654874E+03  0.24500900369E+03  0.99117763040E+03  0.92189273777E+02 0.  0.
         23    2    4    4    0    0 -0.24882346185E+03 -0.17550031652E+03 -0.20408281708E+03  0.37767279101E+03  0.90958587157E+02 0.  0.
          4    1    3    3  502    0  0.67332168098E+03 -0.41953165575E+03 -0.11411597520E+04  0.13898253400E+04  0.00000000000E+00 0. -1.
         -3    1    3    3    0  502  0.19068615105E+03 -0.13671457648E+03 -0.27118296268E+03  0.35859766155E+03  0.00000000000E+00 0.  1.
         13    1    5    5    0    0 -0.59175324307E+03  0.69552186091E+03  0.21368002140E+03  0.93786017681E+03  0.00000000000E+00 0.  1.
        -13    1    5    5    0    0 -0.23431127107E+02  0.36224687833E+02  0.31328982293E+02  0.53317453593E+02  0.00000000000E+00 0. -1.
          4    1    6    6  503    0 -0.13108464161E+03 -0.47564621393E+02 -0.59771028019E+02  0.15171734332E+03  0.00000000000E+00 0. -1.
         -4    1    6    6    0  503 -0.11773882025E+03 -0.12793569513E+03 -0.14431178906E+03  0.22595544769E+03  0.00000000000E+00 0.  1.
<mgrwt>
<rscale>  0 0.27993946E+04</rscale>
<asrwt>0</asrwt>
<pdfrwt beam="1">  1        2 0.34528384E+00 0.27993946E+04</pdfrwt>
<pdfrwt beam="2">  1       -1 0.13429669E+00 0.27993946E+04</pdfrwt>
<totfact> 0.22518624E+00</totfact>
</mgrwt>
</event>
<event>
12    7  0.1675873E-007  0.1916147E+04  0.7818608E-02  0.8646860E-01
          2   -1    0    0  501    0  0.00000000000E+00  0.00000000000E+00  0.68665296877E+03  0.68665296877E+03  0.00000000000E+00 0. -1.
         -1   -1    0    0    0  501 -0.00000000000E+00 -0.00000000000E+00 -0.13367813117E+04  0.13367813117E+04  0.00000000000E+00 0.  1.
         24    2    1    2    0    0 -0.51626238636E+03 -0.42082862758E+03 -0.60570003302E+03  0.90377708430E+03  0.79478945254E+02 0.  0.
        254    2    1    2    0    0  0.51626238636E+03  0.42082862758E+03 -0.44428309926E+02  0.11196571962E+04  0.89890754636E+03 0.  0.
         23    2    4    4    0    0 -0.87025136350E+02 -0.17887303126E+03 -0.13832355789E+03  0.25894466929E+03  0.91378331232E+02 0.  0.
         23    2    4    4    0    0  0.60328752271E+03  0.59970165884E+03  0.93895247965E+02  0.86071252690E+03  0.91715983854E+02 0.  0.
          4    1    3    3  502    0 -0.53787599145E+02 -0.33514142255E+02 -0.30781138870E+02  0.70454113173E+02  0.00000000000E+00 0. -1.
         -3    1    3    3    0  502 -0.46247478722E+03 -0.38731448532E+03 -0.57491889415E+03  0.83332297112E+03  0.00000000000E+00 0.  1.
         13    1    5    5    0    0 -0.29358415360E+02 -0.14543079181E+03 -0.72010727892E+02  0.16491687813E+03  0.00000000000E+00 0. -1.
        -13    1    5    5    0    0 -0.57666720990E+02 -0.33442239448E+02 -0.66312830000E+02  0.94027791166E+02  0.00000000000E+00 0.  1.
          1    1    6    6  503    0  0.45157491390E+03  0.41935873257E+03  0.32219675553E+02  0.61710595277E+03  0.00000000000E+00 0. -1.
         -1    1    6    6    0  503  0.15171260881E+03  0.18034292627E+03  0.61675572412E+02  0.24360657414E+03  0.00000000000E+00 0.  1.
<mgrwt>
<rscale>  0 0.19161470E+04</rscale>
<asrwt>0</asrwt>
<pdfrwt beam="1">  1        2 0.10563892E+00 0.19161470E+04</pdfrwt>
<pdfrwt beam="2">  1       -1 0.20565866E+00 0.19161470E+04</pdfrwt>
<totfact> 0.61691652E+00</totfact>
</mgrwt>
</event>
<event>
12    7  0.1675873E-007  0.1822163E+04  0.7818608E-02  0.8694601E-01
         -1   -1    0    0    0  501 -0.00000000000E+00  0.00000000000E+00  0.60210534792E+03  0.60210534792E+03  0.00000000000E+00 0.  1.
          2   -1    0    0  501    0  0.00000000000E+00 -0.00000000000E+00 -0.13786124656E+04  0.13786124656E+04  0.00000000000E+00 0. -1.
         24    2    1    2    0    0 -0.50686536792E+03  0.33599762629E+03 -0.64824244036E+03  0.89178143132E+03  0.72449663208E+02 0.  0.
        254    2    1    2    0    0  0.50686536792E+03 -0.33599762629E+03 -0.12826467733E+03  0.10889363822E+04  0.89416089770E+03 0.  0.
         23    2    4    4    0    0  0.61140970201E+03  0.97330918380E+02 -0.48178400961E+02  0.62717097305E+03  0.87904150777E+02 0.  0.
         23    2    4    4    0    0 -0.10454433410E+03 -0.43332854467E+03 -0.80086276370E+02  0.46176540916E+03  0.90057403991E+02 0.  0.
          2    1    3    3  502    0 -0.35672789086E+03  0.23113881048E+03 -0.40325844260E+03  0.58591578691E+03  0.00000000000E+00 0. -1.
         -1    1    3    3    0  502 -0.15013747706E+03  0.10485881582E+03 -0.24498399776E+03  0.30586564441E+03  0.00000000000E+00 0.  1.
         13    1    5    5    0    0  0.51123139445E+03  0.10311026397E+03 -0.64528458143E+02  0.52550279458E+03  0.00000000000E+00 0. -1.
        -13    1    5    5    0    0  0.10017830757E+03 -0.57793455869E+01  0.16350057183E+02  0.10166817847E+03  0.00000000000E+00 0.  1.
          1    1    6    6  503    0 -0.30522398287E+02 -0.30475595321E+03 -0.48794064572E+02  0.31014298082E+03  0.00000000000E+00 0. -1.
         -1    1    6    6    0  503 -0.74021935812E+02 -0.12857259147E+03 -0.31292211799E+02  0.15162242834E+03  0.00000000000E+00 0.  1.
<mgrwt>
<rscale>  0 0.18221635E+04</rscale>
<asrwt>0</asrwt>
<pdfrwt beam="1">  1        2 0.21209422E+00 0.18221635E+04</pdfrwt>
<pdfrwt beam="2">  1       -1 0.92631593E-01 0.18221635E+04</pdfrwt>
<totfact> 0.18116850E+01</totfact>
</mgrwt>
</event>
<event>
12    7  0.1675873E-007  0.2646109E+04  0.7818608E-02  0.8352705E-01
         -1   -1    0    0    0  501 -0.00000000000E+00  0.00000000000E+00  0.58634292888E+03  0.58634292888E+03  0.00000000000E+00 0.  1.
          2   -1    0    0  501    0  0.00000000000E+00 -0.00000000000E+00 -0.29854095487E+04  0.29854095487E+04  0.00000000000E+00 0. -1.
         24    2    1    2    0    0 -0.35950828433E+02 -0.82324430043E+03  0.56241816122E+02  0.82961437294E+03  0.77930903036E+02 0.  0.
        254    2    1    2    0    0  0.35950828433E+02  0.82324430043E+03 -0.24553084359E+04  0.27421381046E+04  0.90097626442E+03 0.  0.
         23    2    4    4    0    0 -0.37553089437E+03  0.59528724539E+03 -0.17631571165E+04  0.19007982540E+04  0.94449075157E+02 0.  0.
         23    2    4    4    0    0  0.41148172280E+03  0.22795705504E+03 -0.69215131944E+03  0.84133985064E+03  0.86589076237E+02 0.  0.
          2    1    3    3  502    0 -0.24777453865E+02 -0.70540096139E+02  0.96716618902E+01  0.75388118606E+02  0.00000000000E+00 0. -1.
         -1    1    3    3    0  502 -0.11173374568E+02 -0.75270420429E+03  0.46570154232E+02  0.75422625433E+03  0.00000000000E+00 0.  1.
         13    1    5    5    0    0 -0.25817031018E+03  0.47630029549E+03 -0.12979091399E+04  0.14064430369E+04  0.00000000000E+00 0. -1.
        -13    1    5    5    0    0 -0.11736058419E+03  0.11898694990E+03 -0.46524797657E+03  0.49435521710E+03  0.00000000000E+00 0.  1.
          3    1    6    6  503    0  0.36385551531E+03  0.16595149174E+03 -0.56953236630E+03  0.69591511687E+03  0.00000000000E+00 0. -1.
         -3    1    6    6    0  503  0.47626207495E+02  0.62005563305E+02 -0.12261895314E+03  0.14542473377E+03  0.00000000000E+00 0.  1.
<mgrwt>
<rscale>  0 0.26461094E+04</rscale>
<asrwt>0</asrwt>
<pdfrwt beam="1">  1        2 0.45929377E+00 0.26461094E+04</pdfrwt>
<pdfrwt beam="2">  1       -1 0.90206607E-01 0.26461094E+04</pdfrwt>
<totfact> 0.21405837E+00</totfact>
</mgrwt>
</event>
<event>
12    7  0.1675873E-007  0.3024605E+04  0.7818608E-02  0.8236739E-01
          2   -1    0    0  501    0  0.00000000000E+00  0.00000000000E+00  0.35621509199E+04  0.35621509199E+04  0.00000000000E+00 0. -1.
         -1   -1    0    0    0  501 -0.00000000000E+00 -0.00000000000E+00 -0.64204440851E+03  0.64204440851E+03  0.00000000000E+00 0.  1.
         24    2    1    2    0    0 -0.67709681007E+02 -0.75518880507E+03  0.29327242338E+04  0.30302417135E+04  0.81232252337E+02 0.  0.
        254    2    1    2    0    0  0.67709681007E+02  0.75518880507E+03 -0.12617722351E+02  0.11739536149E+04  0.89616580544E+03 0.  0.
         23    2    4    4    0    0 -0.30047371984E+03  0.21498018193E+03 -0.26899304622E+03  0.46608843906E+03  0.91543646290E+02 0.  0.
         23    2    4    4    0    0  0.36818340084E+03  0.54020862314E+03  0.25637532387E+03  0.70786517585E+03  0.89221226827E+02 0.  0.
          2    1    3    3  502    0 -0.71831402483E+02 -0.72174427878E+03  0.27286055619E+04  0.28233602084E+04  0.00000000000E+00 0. -1.
         -1    1    3    3    0  502  0.41217214760E+01 -0.33444526295E+02  0.20411867191E+03  0.20688150510E+03  0.00000000000E+00 0.  1.
         13    1    5    5    0    0 -0.12976497479E+03  0.12887718345E+03 -0.17464839026E+03  0.25288403927E+03  0.00000000000E+00 0. -1.
        -13    1    5    5    0    0 -0.17070874504E+03  0.86102998475E+02 -0.94344655960E+02  0.21320439979E+03  0.00000000000E+00 0.  1.
          1    1    6    6  503    0  0.39684521264E+02  0.73471507038E+02  0.65219520232E+02  0.10595522353E+03  0.00000000000E+00 0. -1.
         -1    1    6    6    0  503  0.32849887958E+03  0.46673711611E+03  0.19115580364E+03  0.60190995232E+03  0.00000000000E+00 0.  1.
<mgrwt>
<rscale>  0 0.30246052E+04</rscale>
<asrwt>0</asrwt>
<pdfrwt beam="1">  1        2 0.54802321E+00 0.30246052E+04</pdfrwt>
<pdfrwt beam="2">  1       -1 0.98776065E-01 0.30246052E+04</pdfrwt>
<totfact> 0.69846873E-01</totfact>
</mgrwt>
</event>
<event>
12    7  0.1675873E-007  0.1348747E+04  0.7818608E-02  0.8991777E-01
         -1   -1    0    0    0  501 -0.00000000000E+00  0.00000000000E+00  0.16642431000E+03  0.16642431000E+03  0.00000000000E+00 0.  1.
          2   -1    0    0  501    0  0.00000000000E+00 -0.00000000000E+00 -0.27326508327E+04  0.27326508327E+04  0.00000000000E+00 0. -1.
         24    2    1    2    0    0 -0.38804191223E+02  0.11212327050E+03  0.35890141423E+02  0.14737693482E+03  0.79714902130E+02 0.  0.
        254    2    1    2    0    0  0.38804191223E+02 -0.11212327050E+03 -0.26021166641E+04  0.27516982078E+04  0.88699182660E+03 0.  0.
         23    2    4    4    0    0  0.33168670150E+03 -0.13148806053E+03 -0.46912676260E+03  0.59673037808E+03  0.93284761481E+02 0.  0.
         23    2    4    4    0    0 -0.29288251028E+03  0.19364790030E+02 -0.21329899015E+04  0.21549678298E+04  0.89918115617E+02 0.  0.
          2    1    3    3  502    0  0.10618987879E+02  0.40422312917E+02 -0.17411092826E+02  0.45275516988E+02  0.00000000000E+00 0. -1.
         -1    1    3    3    0  502 -0.49423179103E+02  0.71700957582E+02  0.53301234249E+02  0.10210141783E+03  0.00000000000E+00 0.  1.
         13    1    5    5    0    0  0.32580526390E+03 -0.12581327836E+03 -0.47276897384E+03  0.58778274355E+03  0.00000000000E+00 0. -1.
        -13    1    5    5    0    0  0.58814376063E+01 -0.56747821656E+01  0.36422112399E+01  0.89476345287E+01  0.00000000000E+00 0.  1.
          1    1    6    6  503    0 -0.27614601270E+03  0.16515938265E+01 -0.17969302558E+04  0.18180257678E+04  0.00000000000E+00 0. -1.
         -1    1    6    6    0  503 -0.16736497579E+02  0.17713196203E+02 -0.33605964570E+03  0.33694206200E+03  0.00000000000E+00 0.  1.
<mgrwt>
<rscale>  0 0.13487469E+04</rscale>
<asrwt>0</asrwt>
<pdfrwt beam="1">  1        2 0.42040776E+00 0.13487469E+04</pdfrwt>
<pdfrwt beam="2">  1       -1 0.25603744E-01 0.13487469E+04</pdfrwt>
<totfact> 0.38227849E+01</totfact>
</mgrwt>
</event>
<event>
12    7  0.1675873E-007  0.3219945E+04  0.7818608E-02  0.8183570E-01
         -1   -1    0    0    0  501 -0.00000000000E+00  0.00000000000E+00  0.18688211497E+04  0.18688211497E+04  0.00000000000E+00 0.  1.
          2   -1    0    0  501    0  0.00000000000E+00 -0.00000000000E+00 -0.13869768303E+04  0.13869768303E+04  0.00000000000E+00 0. -1.
         24    2    1    2    0    0  0.79965421366E+03 -0.79425535459E+03  0.12000847201E+04  0.16483456722E+04  0.80942510606E+02 0.  0.
        254    2    1    2    0    0 -0.79965421366E+03  0.79425535459E+03 -0.71824040064E+03  0.16074523078E+04  0.89316584068E+03 0.  0.
         23    2    4    4    0    0 -0.94619192814E+03  0.65584152228E+03 -0.40621973235E+03  0.12245340745E+04  0.95194335653E+02 0.  0.
         23    2    4    4    0    0  0.14653771448E+03  0.13841383231E+03 -0.31202066829E+03  0.38291823323E+03  0.92939685623E+02 0.  0.
          4    1    3    3  502    0  0.10685388339E+03 -0.98608056557E+02  0.19592154028E+03  0.24398063685E+03  0.00000000000E+00 0. -1.
         -3    1    3    3    0  502  0.69280033027E+03 -0.69564729804E+03  0.10041631798E+04  0.14043650354E+04  0.00000000000E+00 0.  1.
         13    1    5    5    0    0 -0.66265909832E+03  0.47786991691E+03 -0.33054392125E+03  0.88132628574E+03  0.00000000000E+00 0.  1.
        -13    1    5    5    0    0 -0.28353282982E+03  0.17797160537E+03 -0.75675811101E+02  0.34320778880E+03  0.00000000000E+00 0. -1.
          1    1    6    6  503    0  0.35151401027E+02  0.64419497445E+02 -0.18271658280E+03  0.19690312917E+03  0.00000000000E+00 0. -1.
         -1    1    6    6    0  503  0.11138631345E+03  0.73994334866E+02 -0.12930408548E+03  0.18601510407E+03  0.00000000000E+00 0.  1.
<mgrwt>
<rscale>  0 0.32199451E+04</rscale>
<asrwt>0</asrwt>
<pdfrwt beam="1">  1        2 0.21338105E+00 0.32199451E+04</pdfrwt>
<pdfrwt beam="2">  1       -1 0.28751095E+00 0.32199451E+04</pdfrwt>
<totfact> 0.56075134E-01</totfact>
</mgrwt>
</event>
<event>
12    7  0.1675873E-007  0.1469953E+04  0.7818608E-02  0.8904684E-01
          2   -1    0    0  501    0  0.00000000000E+00  0.00000000000E+00  0.11310361774E+04  0.11310361774E+04  0.00000000000E+00 0. -1.
         -1   -1    0    0    0  501 -0.00000000000E+00 -0.00000000000E+00 -0.47760641879E+03  0.47760641879E+03  0.00000000000E+00 0.  1.
         24    2    1    2    0    0  0.42543839165E+03 -0.44611466757E+02  0.46565914493E+02  0.43745534838E+03  0.78808561573E+02 0.  0.
        254    2    1    2    0    0 -0.42543839165E+03  0.44611466757E+02  0.60686384417E+03  0.11711872479E+04  0.90576367565E+03 0.  0.
         23    2    4    4    0    0 -0.39857394055E+03 -0.11835731416E+03 -0.10170253718E+03  0.43775882542E+03  0.91759159032E+02 0.  0.
         23    2    4    4    0    0 -0.26864451099E+02  0.16296878091E+03  0.70856638134E+03  0.73342842244E+03  0.92576518512E+02 0.  0.
          4    1    3    3  502    0  0.36771436680E+02 -0.19910269932E+02 -0.12284526057E+02  0.43582874902E+02  0.00000000000E+00 0. -1.
         -3    1    3    3    0  502  0.38866695497E+03 -0.24701196825E+02  0.58850440550E+02  0.39387247348E+03  0.00000000000E+00 0.  1.
         13    1    5    5    0    0 -0.12036247124E+03 -0.56235297638E+02  0.61039396726E+01  0.13299169621E+03  0.00000000000E+00 0. -1.
        -13    1    5    5    0    0 -0.27821146932E+03 -0.62122016519E+02 -0.10780647685E+03  0.30476712921E+03  0.00000000000E+00 0.  1.
          3    1    6    6  503    0 -0.29387753261E+02  0.10097761166E+02  0.66390120245E+02  0.73302475322E+02  0.00000000000E+00 0. -1.
         -3    1    6    6    0  503  0.25233021612E+01  0.15287101975E+03  0.64217626110E+03  0.66012594711E+03  0.00000000000E+00 0.  1.
<mgrwt>
<rscale>  0 0.14699526E+04</rscale>
<asrwt>0</asrwt>
<pdfrwt beam="1">  1        2 0.17400557E+00 0.14699526E+04</pdfrwt>
<pdfrwt beam="2">  1       -1 0.73477911E-01 0.14699526E+04</pdfrwt>
<totfact> 0.42975596E+01</totfact>
</mgrwt>
</event>
<event>
12    7  0.1675873E-007  0.2652077E+04  0.7818608E-02  0.8350724E-01
         -1   -1    0    0    0  501 -0.00000000000E+00  0.00000000000E+00  0.14598924266E+04  0.14598924266E+04  0.00000000000E+00 0.  1.
          2   -1    0    0  501    0  0.00000000000E+00 -0.00000000000E+00 -0.12044576852E+04  0.12044576852E+04  0.00000000000E+00 0. -1.
         24    2    1    2    0    0  0.62454076308E+03  0.37600107739E+03 -0.81031043928E+03  0.10928898846E+04  0.79858105100E+02 0.  0.
        254    2    1    2    0    0 -0.62454076308E+03 -0.37600107739E+03  0.10657451807E+04  0.15714602272E+04  0.89568213139E+03 0.  0.
         23    2    4    4    0    0 -0.36058360602E+03 -0.62272385026E+02 -0.48973254037E+02  0.38006575703E+03  0.90295144877E+02 0.  0.
         23    2    4    4    0    0 -0.26395715707E+03 -0.31372869237E+03  0.11147184347E+04  0.11913944701E+04  0.93405147704E+02 0.  0.
          4    1    3    3  502    0  0.43474590031E+03  0.26112726180E+03 -0.61664393730E+03  0.79839914210E+03  0.00000000000E+00 0. -1.
         -3    1    3    3    0  502  0.18979486278E+03  0.11487381559E+03 -0.19366650198E+03  0.29449074253E+03  0.00000000000E+00 0.  1.
         13    1    5    5    0    0 -0.10581870564E+03  0.17570667076E+01 -0.50749087834E+02  0.11737186913E+03  0.00000000000E+00 0. -1.
        -13    1    5    5    0    0 -0.25476490038E+03 -0.64029451734E+02  0.17758337974E+01  0.26269388790E+03  0.00000000000E+00 0.  1.
          3    1    6    6  503    0 -0.66824699644E+02 -0.70365345978E+02  0.39013416579E+03  0.40202175279E+03  0.00000000000E+00 0. -1.
         -3    1    6    6    0  503 -0.19713245742E+03 -0.24336334639E+03  0.72458426891E+03  0.78937271734E+03  0.00000000000E+00 0.  1.
<mgrwt>
<rscale>  0 0.26520774E+04</rscale>
<asrwt>0</asrwt>
<pdfrwt beam="1">  1        2 0.18530118E+00 0.26520774E+04</pdfrwt>
<pdfrwt beam="2">  1       -1 0.22459883E+00 0.26520774E+04</pdfrwt>
<totfact> 0.19371322E+00</totfact>
</mgrwt>
</event>
<event>
12    7  0.1675873E-007  0.1937973E+04  0.7818608E-02  0.8636182E-01
         -1   -1    0    0    0  501 -0.00000000000E+00  0.00000000000E+00  0.16817751258E+04  0.16817751258E+04  0.00000000000E+00 0.  1.
          2   -1    0    0  501    0  0.00000000000E+00 -0.00000000000E+00 -0.55830013500E+03  0.55830013500E+03  0.00000000000E+00 0. -1.
         24    2    1    2    0    0 -0.28815936284E+03 -0.11729429111E+03 -0.34949596750E+03  0.47436647061E+03  0.77989409642E+02 0.  0.
        254    2    1    2    0    0  0.28815936284E+03  0.11729429111E+03  0.14729709583E+04  0.17657087902E+04  0.92265395392E+03 0.  0.
         23    2    4    4    0    0  0.21414956866E+03 -0.51157893775E+02 -0.38789486537E+02  0.24018689761E+03  0.87794952403E+02 0.  0.
         23    2    4    4    0    0  0.74009794184E+02  0.16845218489E+03  0.15117604449E+04  0.15255218926E+04  0.89128076201E+02 0.  0.
          4    1    3    3  502    0 -0.18436120429E+03 -0.90807820423E+02 -0.17656196597E+03  0.27094139906E+03  0.00000000000E+00 0. -1.
         -3    1    3    3    0  502 -0.10379815855E+03 -0.26486470691E+02 -0.17293400154E+03  0.20342507155E+03  0.00000000000E+00 0.  1.
         13    1    5    5    0    0  0.33836867261E+02 -0.29242019041E+02  0.20388844101E+02  0.49150119303E+02  0.00000000000E+00 0. -1.
        -13    1    5    5    0    0  0.18031270139E+03 -0.21915874734E+02 -0.59178330638E+02  0.19103677831E+03  0.00000000000E+00 0.  1.
          1    1    6    6  503    0 -0.59715880967E+01  0.27064211412E+02  0.81871258643E+02  0.86435145603E+02  0.00000000000E+00 0. -1.
         -1    1    6    6    0  503  0.79981382280E+02  0.14138797348E+03  0.14298891862E+04  0.14390867470E+04  0.00000000000E+00 0.  1.
<mgrwt>
<rscale>  0 0.19379735E+04</rscale>
<asrwt>0</asrwt>
<pdfrwt beam="1">  1        2 0.85892329E-01 0.19379735E+04</pdfrwt>
<pdfrwt beam="2">  1       -1 0.25873463E+00 0.19379735E+04</pdfrwt>
<totfact> 0.35273569E+00</totfact>
</mgrwt>
</event>
<event>
12    7  0.1675873E-007  0.2489633E+04  0.7818608E-02  0.8406688E-01
         -1   -1    0    0    0  501 -0.00000000000E+00  0.00000000000E+00  0.15406375794E+04  0.15406375794E+04  0.00000000000E+00 0.  1.
          2   -1    0    0  501    0  0.00000000000E+00 -0.00000000000E+00 -0.10057965427E+04  0.10057965427E+04  0.00000000000E+00 0. -1.
         24    2    1    2    0    0 -0.67712431451E+02 -0.15330172144E+03  0.13157443301E+04  0.13287566780E+04  0.79528460511E+02 0.  0.
        254    2    1    2    0    0  0.67712431451E+02  0.15330172144E+03 -0.78090329344E+03  0.12176774440E+04  0.91915287786E+03 0.  0.
         23    2    4    4    0    0  0.67952858612E+02  0.52201078908E+03 -0.33134595508E+03  0.62877641838E+03  0.91960792991E+02 0.  0.
         23    2    4    4    0    0 -0.24042716027E+00 -0.36870906764E+03 -0.44955733836E+03  0.58890102567E+03  0.93574479416E+02 0.  0.
          4    1    3    3  502    0  0.62830309980E+01 -0.14282338725E+02  0.34432730602E+02  0.37803103241E+02  0.00000000000E+00 0. -1.
         -3    1    3    3    0  502 -0.73995462449E+02 -0.13901938272E+03  0.12813115995E+04  0.12909535748E+04  0.00000000000E+00 0.  1.
         13    1    5    5    0    0  0.55387839409E+02  0.12104277776E+03 -0.77095274196E+02  0.15382733211E+03  0.00000000000E+00 0. -1.
        -13    1    5    5    0    0  0.12565019203E+02  0.40096801133E+03 -0.25425068088E+03  0.47494908626E+03  0.00000000000E+00 0.  1.
          1    1    6    6  503    0 -0.22025648303E+02 -0.33280536949E+03 -0.36468035539E+03  0.49420269602E+03  0.00000000000E+00 0. -1.
         -1    1    6    6    0  503  0.21785221142E+02 -0.35903698150E+02 -0.84876982964E+02  0.94698329648E+02  0.00000000000E+00 0.  1.
<mgrwt>
<rscale>  0 0.24896329E+04</rscale>
<asrwt>0</asrwt>
<pdfrwt beam="1">  1        2 0.15473793E+00 0.24896329E+04</pdfrwt>
<pdfrwt beam="2">  1       -1 0.23702117E+00 0.24896329E+04</pdfrwt>
<totfact> 0.21556142E+00</totfact>
</mgrwt>
</event>
<event>
12    7  0.1675873E-007  0.2225507E+04  0.7818608E-02  0.8507886E-01
         -1   -1    0    0    0  501 -0.00000000000E+00  0.00000000000E+00  0.64640304287E+03  0.64640304287E+03  0.00000000000E+00 0.  1.
          2   -1    0    0  501    0  0.00000000000E+00 -0.00000000000E+00 -0.19155538364E+04  0.19155538364E+04  0.00000000000E+00 0. -1.
         24    2    1    2    0    0 -0.29142064969E+03 -0.74138285499E+03  0.20433263073E+02  0.80093471865E+03  0.80649690349E+02 0.  0.
        254    2    1    2    0    0  0.29142064969E+03  0.74138285499E+03 -0.12895840566E+04  0.17610221606E+04  0.89643598678E+03 0.  0.
         23    2    4    4    0    0  0.55220107773E+03  0.72369602590E+03 -0.10676755141E+04  0.14062412251E+04  0.94453224623E+02 0.  0.
         23    2    4    4    0    0 -0.26078042804E+03  0.17686829092E+02 -0.22190854244E+03  0.35478093546E+03  0.91141951848E+02 0.  0.
          2    1    3    3  502    0 -0.16535446832E+02 -0.55991828218E+02  0.22233922931E+02  0.62472819354E+02  0.00000000000E+00 0. -1.
         -1    1    3    3    0  502 -0.27488520286E+03 -0.68539102677E+03 -0.18006598573E+01  0.73846189929E+03  0.00000000000E+00 0.  1.
         13    1    5    5    0    0  0.52501440454E+03  0.68865173726E+03 -0.97856142220E+03  0.13066995819E+04  0.00000000000E+00 0. -1.
        -13    1    5    5    0    0  0.27186673184E+02  0.35044288640E+02 -0.89114091935E+02  0.99541643278E+02  0.00000000000E+00 0.  1.
          3    1    6    6  503    0 -0.25142420035E+03  0.29974236264E+02 -0.22534560046E+03  0.33895902851E+03  0.00000000000E+00 0. -1.
         -3    1    6    6    0  503 -0.93562276846E+01 -0.12287407173E+02  0.34370580242E+01  0.15821906945E+02  0.00000000000E+00 0.  1.
<mgrwt>
<rscale>  0 0.22255065E+04</rscale>
<asrwt>0</asrwt>
<pdfrwt beam="1">  1        2 0.29470059E+00 0.22255065E+04</pdfrwt>
<pdfrwt beam="2">  1       -1 0.99446623E-01 0.22255065E+04</pdfrwt>
<totfact> 0.74604204E+00</totfact>
</mgrwt>
</event>
<event>
12    7  0.1675873E-007  0.1436307E+04  0.7818608E-02  0.8927949E-01
          2   -1    0    0  501    0  0.00000000000E+00  0.00000000000E+00  0.14206079220E+04  0.14206079220E+04  0.00000000000E+00 0. -1.
         -1   -1    0    0    0  501 -0.00000000000E+00 -0.00000000000E+00 -0.36304466203E+03  0.36304466203E+03  0.00000000000E+00 0.  1.
         24    2    1    2    0    0  0.23068536581E+03  0.35529669673E+03  0.41896353907E+03  0.60104451555E+03  0.79199633190E+02 0.  0.
        254    2    1    2    0    0 -0.23068536581E+03 -0.35529669673E+03  0.63859972091E+03  0.11826080685E+04  0.90072235421E+03 0.  0.
         23    2    4    4    0    0  0.23492941906E+03  0.15735209893E+03  0.18625311450E+03  0.35050931810E+03  0.90636882295E+02 0.  0.
         23    2    4    4    0    0 -0.46561478487E+03 -0.51264879566E+03  0.45234660641E+03  0.83209875039E+03  0.90360181917E+02 0.  0.
          4    1    3    3  502    0  0.13153299930E+03  0.26322921108E+03  0.30890667646E+03  0.42663085007E+03  0.00000000000E+00 0. -1.
         -3    1    3    3    0  502  0.99152366510E+02  0.92067485649E+02  0.11005686261E+03  0.17441366548E+03  0.00000000000E+00 0.  1.
         13    1    5    5    0    0  0.16120876159E+03  0.68451772380E+02  0.76263904500E+02  0.19102380241E+03  0.00000000000E+00 0.  1.
        -13    1    5    5    0    0  0.73720657471E+02  0.88900326550E+02  0.10998921000E+03  0.15948551569E+03  0.00000000000E+00 0. -1.
          2    1    6    6  503    0 -0.11097294564E+03 -0.16612664254E+03  0.16434631863E+03  0.25869435338E+03  0.00000000000E+00 0. -1.
         -2    1    6    6    0  503 -0.35464183923E+03 -0.34652215312E+03  0.28800028778E+03  0.57340439700E+03  0.00000000000E+00 0.  1.
<mgrwt>
<rscale>  0 0.14363065E+04</rscale>
<asrwt>0</asrwt>
<pdfrwt beam="1">  1        2 0.21855506E+00 0.14363065E+04</pdfrwt>
<pdfrwt beam="2">  1       -1 0.55853026E-01 0.14363065E+04</pdfrwt>
<totfact> 0.50514209E+01</totfact>
</mgrwt>
</event>
<event>
12    7  0.1675873E-007  0.2072567E+04  0.7818608E-02  0.8573425E-01
         -1   -1    0    0    0  501 -0.00000000000E+00  0.00000000000E+00  0.73801666007E+03  0.73801666007E+03  0.00000000000E+00 0.  1.
          2   -1    0    0  501    0  0.00000000000E+00 -0.00000000000E+00 -0.14550937369E+04  0.14550937369E+04  0.00000000000E+00 0. -1.
         24    2    1    2    0    0 -0.57560150559E+03 -0.52784412327E+03  0.22472590394E+02  0.78558901390E+03  0.81905858895E+02 0.  0.
        254    2    1    2    0    0  0.57560150559E+03  0.52784412327E+03 -0.73954966720E+03  0.14075213830E+04  0.90788007014E+03 0.  0.
         23    2    4    4    0    0  0.80363968278E+03  0.46370189330E+03 -0.49060910110E+03  0.10535372468E+04  0.91581955796E+02 0.  0.
         23    2    4    4    0    0 -0.22803817719E+03  0.64142229975E+02 -0.24894056610E+03  0.35398413629E+03  0.84957209069E+02 0.  0.
          4    1    3    3  502    0 -0.19703732787E+03 -0.20603161439E+03  0.42960402506E+02  0.28830249892E+03  0.00000000000E+00 0. -1.
         -3    1    3    3    0  502 -0.37856417772E+03 -0.32181250888E+03 -0.20487812111E+02  0.49728651497E+03  0.00000000000E+00 0.  1.
         13    1    5    5    0    0  0.44426403527E+03  0.21007739254E+03 -0.23398244500E+03  0.54428928747E+03  0.00000000000E+00 0. -1.
        -13    1    5    5    0    0  0.35937564751E+03  0.25362450076E+03 -0.25662665610E+03  0.50924795928E+03  0.00000000000E+00 0.  1.
          4    1    6    6  503    0 -0.12276589133E+03  0.61606483365E+02 -0.18628923790E+03  0.23145302552E+03  0.00000000000E+00 0. -1.
         -4    1    6    6    0  503 -0.10527228586E+03  0.25357466096E+01 -0.62651328203E+02  0.12253111077E+03  0.00000000000E+00 0.  1.
<mgrwt>
<rscale>  0 0.20725669E+04</rscale>
<asrwt>0</asrwt>
<pdfrwt beam="1">  1        2 0.22386057E+00 0.20725669E+04</pdfrwt>
<pdfrwt beam="2">  1       -1 0.11354103E+00 0.20725669E+04</pdfrwt>
<totfact> 0.10025689E+01</totfact>
</mgrwt>
</event>
<event>
12    7  0.1675873E-007  0.1729905E+04  0.7818608E-02  0.8744490E-01
         -1   -1    0    0    0  501 -0.00000000000E+00  0.00000000000E+00  0.16153935097E+04  0.16153935097E+04  0.00000000000E+00 0.  1.
          2   -1    0    0  501    0  0.00000000000E+00 -0.00000000000E+00 -0.46313343006E+03  0.46313343006E+03  0.00000000000E+00 0. -1.
         24    2    1    2    0    0 -0.51051600146E+03  0.22459504146E+03  0.91926527834E+02  0.57061154255E+03  0.77958486228E+02 0.  0.
        254    2    1    2    0    0  0.51051600146E+03 -0.22459504146E+03  0.10603335518E+04  0.15079153972E+04  0.91565937100E+03 0.  0.
         23    2    4    4    0    0  0.71473460918E+03  0.44771071325E+02  0.72070773378E+03  0.10200330067E+04  0.90541078468E+02 0.  0.
         23    2    4    4    0    0 -0.20421860772E+03 -0.26936611278E+03  0.33962581803E+03  0.48788239051E+03  0.91761583670E+02 0.  0.
          4    1    3    3  502    0 -0.32073406865E+03  0.14968139345E+03  0.95314013673E+02  0.36655098355E+03  0.00000000000E+00 0. -1.
         -3    1    3    3    0  502 -0.18978193281E+03  0.74913648009E+02 -0.33874858385E+01  0.20406055900E+03  0.00000000000E+00 0.  1.
         13    1    5    5    0    0  0.39534463107E+03  0.53100561777E+02  0.44925304547E+03  0.60078727170E+03  0.00000000000E+00 0.  1.
        -13    1    5    5    0    0  0.31938997810E+03 -0.83294904521E+01  0.27145468831E+03  0.41924573502E+03  0.00000000000E+00 0. -1.
          3    1    6    6  503    0 -0.20950114020E+03 -0.23751831824E+03  0.31931373730E+03  0.44974097220E+03  0.00000000000E+00 0. -1.
         -3    1    6    6    0  503  0.52825324849E+01 -0.31847794547E+02  0.20312080733E+02  0.38141418310E+02  0.00000000000E+00 0.  1.
<mgrwt>
<rscale>  0 0.17299049E+04</rscale>
<asrwt>0</asrwt>
<pdfrwt beam="1">  1        2 0.71251298E-01 0.17299049E+04</pdfrwt>
<pdfrwt beam="2">  1       -1 0.24852208E+00 0.17299049E+04</pdfrwt>
<totfact> 0.52064108E+00</totfact>
</mgrwt>
</event>
<event>
12    7  0.1675873E-007  0.1358663E+04  0.7818608E-02  0.8984296E-01
          2   -1    0    0  501    0  0.00000000000E+00  0.00000000000E+00  0.29808178651E+03  0.29808178651E+03  0.00000000000E+00 0. -1.
         -1   -1    0    0    0  501 -0.00000000000E+00 -0.00000000000E+00 -0.15482036883E+04  0.15482036883E+04  0.00000000000E+00 0.  1.
         24    2    1    2    0    0  0.31567334086E+03 -0.10870704323E+03 -0.57764597623E+03  0.67182122493E+03  0.78752809647E+02 0.  0.
        254    2    1    2    0    0 -0.31567334086E+03  0.10870704323E+03 -0.67247592560E+03  0.11744642499E+04  0.90314756517E+03 0.  0.
         23    2    4    4    0    0  0.16958380314E+03  0.13530108246E+03  0.10118837245E+03  0.25606553921E+03  0.90914379772E+02 0.  0.
         23    2    4    4    0    0 -0.48525714400E+03 -0.26594039229E+02 -0.77366429805E+03  0.91839871072E+03  0.93370268586E+02 0.  0.
          2    1    3    3  502    0  0.10559740332E+03 -0.66083616428E+02 -0.16414273090E+03  0.20605992345E+03  0.00000000000E+00 0. -1.
         -1    1    3    3    0  502  0.21007593755E+03 -0.42623426801E+02 -0.41350324534E+03  0.46576130147E+03  0.00000000000E+00 0.  1.
         13    1    5    5    0    0  0.13138635384E+03  0.14504608690E+03  0.86951831506E+02  0.21415266121E+03  0.00000000000E+00 0.  1.
        -13    1    5    5    0    0  0.38197449295E+02 -0.97450044385E+01  0.14236540945E+02  0.41912877999E+02  0.00000000000E+00 0. -1.
          4    1    6    6  503    0 -0.74222961291E+01 -0.10133985576E+02 -0.46227920658E+02  0.47904162573E+02  0.00000000000E+00 0. -1.
         -4    1    6    6    0  503 -0.47783484787E+03 -0.16460053653E+02 -0.72743637739E+03  0.87049454815E+03  0.00000000000E+00 0.  1.
<mgrwt>
<rscale>  0 0.13586631E+04</rscale>
<asrwt>0</asrwt>
<pdfrwt beam="1">  1        2 0.45858737E-01 0.13586631E+04</pdfrwt>
<pdfrwt beam="2">  1       -1 0.23818518E+00 0.13586631E+04</pdfrwt>
<totfact> 0.10312215E+01</totfact>
</mgrwt>
</event>
<event>
12    7  0.1675873E-007  0.2525762E+04  0.7818608E-02  0.8393865E-01
         -1   -1    0    0    0  501 -0.00000000000E+00  0.00000000000E+00  0.56076959913E+03  0.56076959913E+03  0.00000000000E+00 0.  1.
          2   -1    0    0  501    0  0.00000000000E+00 -0.00000000000E+00 -0.28440712336E+04  0.28440712336E+04  0.00000000000E+00 0. -1.
         24    2    1    2    0    0 -0.16950500148E+02  0.24059810622E+03 -0.23891402190E+04  0.24026224613E+04  0.80180655424E+02 0.  0.
        254    2    1    2    0    0  0.16950500148E+02 -0.24059810622E+03  0.10583858451E+03  0.10022183714E+04  0.96698763687E+03 0.  0.
         23    2    4    4    0    0  0.15719116001E+03  0.12689241685E+03 -0.33651521943E+03  0.40302293027E+03  0.91510891010E+02 0.  0.
         23    2    4    4    0    0 -0.14024065986E+03 -0.36749052308E+03  0.44235380394E+03  0.59919544115E+03  0.92960000022E+02 0.  0.
          4    1    3    3  502    0 -0.44903385586E+02  0.17512332140E+03 -0.18472565301E+04  0.18560822126E+04  0.00000000000E+00 0. -1.
         -3    1    3    3    0  502  0.27952885437E+02  0.65474784819E+02 -0.54188368889E+03  0.54654024878E+03  0.00000000000E+00 0.  1.
         13    1    5    5    0    0  0.12228988851E+03  0.13025328803E+03 -0.23225043320E+03  0.29302047641E+03  0.00000000000E+00 0.  1.
        -13    1    5    5    0    0  0.34901271502E+02 -0.33608711723E+01 -0.10426478623E+03  0.11000245386E+03  0.00000000000E+00 0. -1.
          1    1    6    6  503    0 -0.46839442378E+02 -0.44138130529E+02  0.45403571085E+02  0.78762885905E+02  0.00000000000E+00 0. -1.
         -1    1    6    6    0  503 -0.93401217482E+02 -0.32335239255E+03  0.39695023286E+03  0.52043255525E+03  0.00000000000E+00 0.  1.
<mgrwt>
<rscale>  0 0.25257622E+04</rscale>
<asrwt>0</asrwt>
<pdfrwt beam="1">  1        2 0.43754942E+00 0.25257622E+04</pdfrwt>
<pdfrwt beam="2">  1       -1 0.86272247E-01 0.25257622E+04</pdfrwt>
<totfact> 0.29164961E+00</totfact>
</mgrwt>
</event>
<event>
12    7  0.1675873E-007  0.1105123E+04  0.7818608E-02  0.9200213E-01
          2   -1    0    0  501    0  0.00000000000E+00  0.00000000000E+00  0.81062160271E+03  0.81062160271E+03  0.00000000000E+00 0. -1.
         -1   -1    0    0    0  501 -0.00000000000E+00 -0.00000000000E+00 -0.37665411634E+03  0.37665411634E+03  0.00000000000E+00 0.  1.
         24    2    1    2    0    0  0.14331232671E+02 -0.69139228043E+02  0.24118679046E+03  0.26549750448E+03  0.85628499406E+02 0.  0.
        254    2    1    2    0    0 -0.14331232671E+02  0.69139228043E+02  0.19278069592E+03  0.92177821457E+03  0.89862398313E+03 0.  0.
         23    2    4    4    0    0 -0.24000544502E+03 -0.29357463816E+03 -0.91566321167E+02  0.40074228326E+03  0.91767666457E+02 0.  0.
         23    2    4    4    0    0  0.22567421235E+03  0.36271386621E+03  0.28434701708E+03  0.52103593132E+03  0.90194327658E+02 0.  0.
          2    1    3    3  502    0  0.21077279193E+02 -0.50698808749E+02  0.23958590301E+03  0.24579671648E+03  0.00000000000E+00 0. -1.
         -1    1    3    3    0  502 -0.67460465229E+01 -0.18440419294E+02  0.16008874423E+01  0.19700788006E+02  0.00000000000E+00 0.  1.
         13    1    5    5    0    0 -0.19845401372E+03 -0.23352008768E+03 -0.10969567294E+03  0.32549772283E+03  0.00000000000E+00 0.  1.
        -13    1    5    5    0    0 -0.41551431298E+02 -0.60054550488E+02  0.18129351774E+02  0.75244560421E+02  0.00000000000E+00 0. -1.
          2    1    6    6  503    0  0.51962933144E+02  0.57926343193E+02  0.16221489299E+02  0.79490530076E+02  0.00000000000E+00 0. -1.
         -2    1    6    6    0  503  0.17371127920E+03  0.30478752301E+03  0.26812552778E+03  0.44154540124E+03  0.00000000000E+00 0.  1.
<mgrwt>
<rscale>  0 0.11051226E+04</rscale>
<asrwt>0</asrwt>
<pdfrwt beam="1">  1        2 0.12471101E+00 0.11051226E+04</pdfrwt>
<pdfrwt beam="2">  1       -1 0.57946788E-01 0.11051226E+04</pdfrwt>
<totfact> 0.11568454E+02</totfact>
</mgrwt>
</event>
<event>
12    7  0.1675873E-007  0.1354518E+04  0.7818608E-02  0.8987415E-01
         -1   -1    0    0    0  501 -0.00000000000E+00  0.00000000000E+00  0.33152657029E+03  0.33152657029E+03  0.00000000000E+00 0.  1.
          2   -1    0    0  501    0  0.00000000000E+00 -0.00000000000E+00 -0.13835380291E+04  0.13835380291E+04  0.00000000000E+00 0. -1.
         24    2    1    2    0    0  0.36121217663E+03  0.38110693989E+02 -0.38148537774E+03  0.53233066870E+03  0.76929746248E+02 0.  0.
        254    2    1    2    0    0 -0.36121217663E+03 -0.38110693989E+02 -0.67052608109E+03  0.11827339307E+04  0.90406175889E+03 0.  0.
         23    2    4    4    0    0  0.21606224837E+03  0.12048829729E+03 -0.48116537807E+03  0.54837472266E+03  0.89411355236E+02 0.  0.
         23    2    4    4    0    0 -0.57727442501E+03 -0.15859899128E+03 -0.18936070302E+03  0.63435920805E+03  0.90303528124E+02 0.  0.
          4    1    3    3  502    0  0.28886386261E+03  0.49494232585E+02 -0.33712658187E+03  0.44670610292E+03  0.00000000000E+00 0. -1.
         -3    1    3    3    0  502  0.72348314028E+02 -0.11383538596E+02 -0.44358795870E+02  0.85624565779E+02  0.00000000000E+00 0.  1.
         13    1    5    5    0    0  0.21913105468E+03  0.10065025082E+03 -0.42384200629E+03  0.48763812240E+03  0.00000000000E+00 0.  1.
        -13    1    5    5    0    0 -0.30688063090E+01  0.19838046465E+02 -0.57323371780E+02  0.60736600267E+02  0.00000000000E+00 0. -1.
          3    1    6    6  503    0 -0.27541882183E+03 -0.90149942840E+02 -0.46664669136E+02  0.29353046002E+03  0.00000000000E+00 0. -1.
         -3    1    6    6    0  503 -0.30185560317E+03 -0.68449048438E+02 -0.14269603388E+03  0.34082874803E+03  0.00000000000E+00 0.  1.
<mgrwt>
<rscale>  0 0.13545178E+04</rscale>
<asrwt>0</asrwt>
<pdfrwt beam="1">  1        2 0.21285201E+00 0.13545178E+04</pdfrwt>
<pdfrwt beam="2">  1       -1 0.51004087E-01 0.13545178E+04</pdfrwt>
<totfact> 0.63587278E+01</totfact>
</mgrwt>
</event>
<event>
12    7  0.1675873E-007  0.1103343E+04  0.7818608E-02  0.9201939E-01
          2   -1    0    0  501    0  0.00000000000E+00  0.00000000000E+00  0.21012723190E+04  0.21012723190E+04  0.00000000000E+00 0. -1.
         -1   -1    0    0    0  501 -0.00000000000E+00 -0.00000000000E+00 -0.14483686119E+03  0.14483686119E+03  0.00000000000E+00 0.  1.
         24    2    1    2    0    0  0.10362306280E+03  0.15192076241E+03  0.25999087604E+03  0.32785961295E+03  0.77968025393E+02 0.  0.
        254    2    1    2    0    0 -0.10362306280E+03 -0.15192076241E+03  0.16964445818E+04  0.19182495672E+04  0.87632158823E+03 0.  0.
         23    2    4    4    0    0  0.31802381317E+03 -0.29058379632E+03  0.79656248746E+03  0.91060189049E+03  0.95424934417E+02 0.  0.
         23    2    4    4    0    0 -0.42164687597E+03  0.13866303391E+03  0.89988209430E+03  0.10076476767E+04  0.92479899474E+02 0.  0.
          2    1    3    3  502    0  0.57892580330E+02  0.43500889284E+02  0.15101315792E+03  0.16747791523E+03  0.00000000000E+00 0. -1.
         -3    1    3    3    0  502  0.45730482472E+02  0.10841987313E+03  0.10897771812E+03  0.16038169772E+03  0.00000000000E+00 0.  1.
         13    1    5    5    0    0  0.31873943211E+02 -0.78661979962E+02  0.16633508449E+03  0.18673782606E+03  0.00000000000E+00 0.  1.
        -13    1    5    5    0    0  0.28614986996E+03 -0.21192181636E+03  0.63022740296E+03  0.72386406443E+03  0.00000000000E+00 0. -1.
          2    1    6    6  503    0 -0.40499284429E+03  0.15141527285E+03  0.86118100337E+03  0.96362778569E+03  0.00000000000E+00 0. -1.
         -2    1    6    6    0  503 -0.16654031684E+02 -0.12752238942E+02  0.38701090931E+02  0.44019891057E+02  0.00000000000E+00 0.  1.
<mgrwt>
<rscale>  0 0.11033434E+04</rscale>
<asrwt>0</asrwt>
<pdfrwt beam="1">  1        2 0.32327264E+00 0.11033434E+04</pdfrwt>
<pdfrwt beam="2">  1       -1 0.22282596E-01 0.11033434E+04</pdfrwt>
<totfact> 0.11344230E+02</totfact>
</mgrwt>
</event>
<event>
12    7  0.1675873E-007  0.1621057E+04  0.7818608E-02  0.8807716E-01
         -1   -1    0    0    0  501 -0.00000000000E+00  0.00000000000E+00  0.59012408493E+03  0.59012408493E+03  0.00000000000E+00 0.  1.
          2   -1    0    0  501    0  0.00000000000E+00 -0.00000000000E+00 -0.11132509017E+04  0.11132509017E+04  0.00000000000E+00 0. -1.
         24    2    1    2    0    0 -0.13173686254E+03 -0.34254947634E+03 -0.64067206217E+03  0.74258182413E+03  0.79198040311E+02 0.  0.
        254    2    1    2    0    0  0.13173686254E+03  0.34254947634E+03  0.11754524539E+03  0.96079316251E+03  0.88012037342E+03 0.  0.
         23    2    4    4    0    0  0.87895204047E+02 -0.23669966926E+03 -0.15870321723E+03  0.31170061733E+03  0.90654637846E+02 0.  0.
         23    2    4    4    0    0  0.43841658497E+02  0.57924914560E+03  0.27624846263E+03  0.64909254518E+03  0.86926724311E+02 0.  0.
          2    1    3    3  502    0 -0.12052672727E+03 -0.31717692516E+03 -0.62381738483E+03  0.71012394936E+03  0.00000000000E+00 0. -1.
         -1    1    3    3    0  502 -0.11210135271E+02 -0.25372551181E+02 -0.16854677339E+02  0.32457874767E+02  0.00000000000E+00 0.  1.
         13    1    5    5    0    0  0.61937449863E+02 -0.52541917852E+02 -0.35665515345E+02  0.88706988518E+02  0.00000000000E+00 0. -1.
        -13    1    5    5    0    0  0.25957754183E+02 -0.18415775141E+03 -0.12303770189E+03  0.22299362881E+03  0.00000000000E+00 0.  1.
          2    1    6    6  503    0  0.16306314440E+01  0.28526044499E+03  0.92700190665E+02  0.29994917200E+03  0.00000000000E+00 0. -1.
         -2    1    6    6    0  503  0.42211027053E+02  0.29398870061E+03  0.18354827196E+03  0.34914337318E+03  0.00000000000E+00 0.  1.
<mgrwt>
<rscale>  0 0.16210567E+04</rscale>
<asrwt>0</asrwt>
<pdfrwt beam="1">  1        2 0.17126937E+00 0.16210567E+04</pdfrwt>
<pdfrwt beam="2">  1       -1 0.90788321E-01 0.16210567E+04</pdfrwt>
<totfact> 0.27666065E+01</totfact>
</mgrwt>
</event>
<event>
12    7  0.1675873E-007  0.1122647E+04  0.7818608E-02  0.9183395E-01
          2   -1    0    0  501    0  0.00000000000E+00  0.00000000000E+00  0.73303068830E+03  0.73303068830E+03  0.00000000000E+00 0. -1.
         -1   -1    0    0    0  501 -0.00000000000E+00 -0.00000000000E+00 -0.42983754805E+03  0.42983754805E+03  0.00000000000E+00 0.  1.
         24    2    1    2    0    0  0.10891778789E+03  0.12786071638E+03 -0.71493270096E+02  0.19920350638E+03  0.79745231645E+02 0.  0.
        254    2    1    2    0    0 -0.10891778789E+03 -0.12786071638E+03  0.37468641035E+03  0.96366472998E+03  0.87180752371E+03 0.  0.
         23    2    4    4    0    0  0.36519473591E+01 -0.22683580859E+03  0.61736188704E+03  0.66389108481E+03  0.90265453792E+02 0.  0.
         23    2    4    4    0    0 -0.11256973525E+03  0.98975092210E+02 -0.24267547669E+03  0.29977364517E+03  0.92221674123E+02 0.  0.
          4    1    3    3  502    0  0.37815677006E+02  0.37641523600E+02  0.14984903560E+02  0.55420727720E+02  0.00000000000E+00 0. -1.
         -3    1    3    3    0  502  0.71102110885E+02  0.90219192784E+02 -0.86478173656E+02  0.14378277866E+03  0.00000000000E+00 0.  1.
         13    1    5    5    0    0  0.37909505162E+01 -0.20275165890E+03  0.43499731337E+03  0.47994298529E+03  0.00000000000E+00 0. -1.
        -13    1    5    5    0    0 -0.13900315714E+00 -0.24084149694E+02  0.18236457367E+03  0.18394809952E+03  0.00000000000E+00 0.  1.
          1    1    6    6  503    0 -0.24875789215E+02  0.83054231358E+02 -0.11319541820E+03  0.14258335435E+03  0.00000000000E+00 0. -1.
         -1    1    6    6    0  503 -0.87693946034E+02  0.15920860851E+02 -0.12948005849E+03  0.15719029082E+03  0.00000000000E+00 0.  1.
<mgrwt>
<rscale>  0 0.11226471E+04</rscale>
<asrwt>0</asrwt>
<pdfrwt beam="1">  1        2 0.11277395E+00 0.11226471E+04</pdfrwt>
<pdfrwt beam="2">  1       -1 0.66128854E-01 0.11226471E+04</pdfrwt>
<totfact> 0.10138452E+02</totfact>
</mgrwt>
</event>
<event>
12    7  0.1675873E-007  0.1452884E+04  0.7818608E-02  0.8916404E-01
         -1   -1    0    0    0  501 -0.00000000000E+00  0.00000000000E+00  0.59549632723E+03  0.59549632723E+03  0.00000000000E+00 0.  1.
          2   -1    0    0  501    0  0.00000000000E+00 -0.00000000000E+00 -0.88618147794E+03  0.88618147794E+03  0.00000000000E+00 0. -1.
         24    2    1    2    0    0 -0.66930504084E+02 -0.47108419778E+02  0.35077107394E+03  0.36847428434E+03  0.77679188470E+02 0.  0.
        254    2    1    2    0    0  0.66930504084E+02  0.47108419778E+02 -0.64145622464E+03  0.11132035208E+04  0.90612200892E+03 0.  0.
         23    2    4    4    0    0  0.25288334854E+03  0.38618876975E+03 -0.17747154929E+03  0.50219707617E+03  0.87258229752E+02 0.  0.
         23    2    4    4    0    0 -0.18595284446E+03 -0.33908034997E+03 -0.46398467536E+03  0.61100644465E+03  0.92158300430E+02 0.  0.
          4    1    3    3  502    0 -0.18925190665E+02  0.64204426896E+01  0.14728829494E+02  0.24825860394E+02  0.00000000000E+00 0. -1.
         -3    1    3    3    0  502 -0.48005313419E+02 -0.53528862467E+02  0.33604224444E+03  0.34364842395E+03  0.00000000000E+00 0.  1.
         13    1    5    5    0    0  0.35919482257E+02  0.14599061588E+02 -0.71803628462E+01  0.39432212916E+02  0.00000000000E+00 0.  1.
        -13    1    5    5    0    0  0.21696386628E+03  0.37158970816E+03 -0.17029118644E+03  0.46276486326E+03  0.00000000000E+00 0. -1.
          3    1    6    6  503    0 -0.14916369420E+03 -0.23080717008E+03 -0.38076331320E+03  0.46957689264E+03  0.00000000000E+00 0. -1.
         -3    1    6    6    0  503 -0.36789150255E+02 -0.10827317990E+03 -0.83221362160E+02  0.14142955201E+03  0.00000000000E+00 0.  1.
<mgrwt>
<rscale>  0 0.14528838E+04</rscale>
<asrwt>0</asrwt>
<pdfrwt beam="1">  1        2 0.13633561E+00 0.14528838E+04</pdfrwt>
<pdfrwt beam="2">  1       -1 0.91614820E-01 0.14528838E+04</pdfrwt>
<totfact> 0.38518069E+01</totfact>
</mgrwt>
</event>
<event>
12    7  0.1675873E-007  0.1448297E+04  0.7818608E-02  0.8919582E-01
         -1   -1    0    0    0  501 -0.00000000000E+00  0.00000000000E+00  0.27980599789E+03  0.27980599789E+03  0.00000000000E+00 0.  1.
          2   -1    0    0  501    0  0.00000000000E+00 -0.00000000000E+00 -0.18741246132E+04  0.18741246132E+04  0.00000000000E+00 0. -1.
         24    2    1    2    0    0  0.19300667818E+03 -0.14924973938E+03  0.61324679271E+02  0.26357487035E+03  0.78637989977E+02 0.  0.
        254    2    1    2    0    0 -0.19300667818E+03  0.14924973938E+03 -0.16556432946E+04  0.18903557408E+04  0.87906942000E+03 0.  0.
         23    2    4    4    0    0  0.27162972956E+03 -0.69358603387E+02 -0.10535686087E+04  0.10938566108E+04  0.89006438396E+02 0.  0.
         23    2    4    4    0    0 -0.46463640773E+03  0.21860834276E+03 -0.60207468595E+03  0.79649912994E+03  0.90776305352E+02 0.  0.
          4    1    3    3  502    0  0.46304829500E+02 -0.17070865922E+02 -0.15444047081E+02  0.51711413524E+02  0.00000000000E+00 0. -1.
         -3    1    3    3    0  502  0.14670184868E+03 -0.13217887345E+03  0.76768726352E+02  0.21186345683E+03  0.00000000000E+00 0.  1.
         13    1    5    5    0    0  0.40063070489E+02 -0.46591962205E+02 -0.22242276437E+03  0.23075473271E+03  0.00000000000E+00 0. -1.
        -13    1    5    5    0    0  0.23156665907E+03 -0.22766641182E+02 -0.83114584430E+03  0.86310187813E+03  0.00000000000E+00 0.  1.
          3    1    6    6  503    0 -0.39709777333E+02  0.10834531140E+02 -0.92419038082E+02  0.10117080647E+03  0.00000000000E+00 0. -1.
         -3    1    6    6    0  503 -0.42492663040E+03  0.20777381162E+03 -0.50965564787E+03  0.69532832347E+03  0.00000000000E+00 0.  1.
<mgrwt>
<rscale>  0 0.14482974E+04</rscale>
<asrwt>0</asrwt>
<pdfrwt beam="1">  1        2 0.28832686E+00 0.14482974E+04</pdfrwt>
<pdfrwt beam="2">  1       -1 0.43047077E-01 0.14482974E+04</pdfrwt>
<totfact> 0.46138409E+01</totfact>
</mgrwt>
</event>
