<event>
12    1  0.1335216E-007  0.3510479E+03  0.7818608E-02  0.1062186E+00
          2   -1    0    0  501    0  0.00000000000E+00  0.00000000000E+00  0.11514836932E+04  0.11514836932E+04  0.00000000000E+00 0. -1.
         -2   -1    0    0    0  501 -0.00000000000E+00 -0.00000000000E+00 -0.21430653955E+03  0.21430653955E+03  0.00000000000E+00 0.  1.
         23    2    1    2    0    0 -0.74786417300E+02 -0.16279737041E+03  0.64382658932E+03  0.67431705539E+03  0.89971229026E+02 0.  0.
    5000000    2    1    2    0    0  0.74786417300E+02  0.16279737041E+03  0.29335056433E+03  0.69147317736E+03  0.59998717435E+03 0.  0.
         23    2    4    4    0    0  0.27718184965E+03  0.30356253286E+02 -0.95551233473E+01  0.29333656698E+03  0.90574617043E+02 0.  0.
         23    2    4    4    0    0 -0.20239543235E+03  0.13244111713E+03  0.30290568768E+03  0.39813661038E+03  0.90864428429E+02 0.  0.
          3    1    3    3  502    0 -0.58207506786E+02 -0.12044576531E+03  0.31313553429E+03  0.34051308207E+03  0.00000000000E+00 0. -1.
         -3    1    3    3    0  502 -0.16578910514E+02 -0.42351605108E+02  0.33069105503E+03  0.33380397332E+03  0.00000000000E+00 0.  1.
         13    1    5    5    0    0  0.17541208046E+03  0.30028139180E+02  0.36438305459E+02  0.18165582077E+03  0.00000000000E+00 0.  1.
        -13    1    5    5    0    0  0.10176976919E+03  0.32811410632E+00 -0.45993428806E+02  0.11168074621E+03  0.00000000000E+00 0. -1.
          1    1    6    6  503    0 -0.85071455876E+02  0.70200711829E+02  0.71863369182E+02  0.13164207677E+03  0.00000000000E+00 0. -1.
         -1    1    6    6    0  503 -0.11732397648E+03  0.62240405299E+02  0.23104231849E+03  0.26649453361E+03  0.00000000000E+00 0.  1.
<mgrwt>
<rscale>  0 0.35104788E+03</rscale>
<asrwt>0</asrwt>
<pdfrwt beam="1">  1        2 0.17715133E+00 0.35104788E+03</pdfrwt>
<pdfrwt beam="2">  1       -2 0.32970238E-01 0.35104788E+03</pdfrwt>
<totfact> 0.18266771E+02</totfact>
</mgrwt>
</event>
<event>
12    1  0.1335216E-007  0.1042430E+04  0.7818608E-02  0.9263195E-01
          2   -1    0    0  501    0  0.00000000000E+00  0.00000000000E+00  0.36967786191E+04  0.36967786191E+04  0.00000000000E+00 0.  1.
         -2   -1    0    0    0  501 -0.00000000000E+00 -0.00000000000E+00 -0.91494093799E+03  0.91494093799E+03  0.00000000000E+00 0. -1.
         23    2    1    2    0    0 -0.12206351044E+03 -0.95229359970E+03 -0.53814291224E+03  0.11040270846E+04  0.86691458056E+02 0.  0.
    5000000    2    1    2    0    0  0.12206351044E+03  0.95229359970E+03  0.33199805933E+04  0.35076924725E+04  0.59989394122E+03 0.  0.
         23    2    4    4    0    0  0.33742125129E+03  0.71149561415E+03  0.21827162066E+04  0.23221742609E+04  0.90355684597E+02 0.  0.
         23    2    4    4    0    0 -0.21535774084E+03  0.24079798555E+03  0.11372643868E+04  0.11855182116E+04  0.87866479422E+02 0.  0.
          4    1    3    3  502    0 -0.11726853807E+03 -0.78986487820E+03 -0.47858199161E+03  0.93095604544E+03  0.00000000000E+00 0. -1.
         -4    1    3    3    0  502 -0.47949723721E+01 -0.16242872150E+03 -0.59560920630E+02  0.17307103915E+03  0.00000000000E+00 0.  1.
         11    1    5    5    0    0  0.15439070391E+03  0.41908963541E+03  0.11725057692E+04  0.12546881648E+04  0.00000000000E+00 0.  1.
        -11    1    5    5    0    0  0.18303054737E+03  0.29240597874E+03  0.10102104373E+04  0.10674860961E+04  0.00000000000E+00 0. -1.
          3    1    6    6  503    0 -0.99598349843E+02  0.56208493256E+02  0.32483802932E+03  0.34438201361E+03  0.00000000000E+00 0. -1.
         -3    1    6    6    0  503 -0.11575939100E+03  0.18458949230E+03  0.81242635745E+03  0.84113619798E+03  0.00000000000E+00 0.  1.
<mgrwt>
<rscale>  0 0.10424301E+04</rscale>
<asrwt>0</asrwt>
<pdfrwt beam="1">  1        2 0.56873516E+00 0.10424301E+04</pdfrwt>
<pdfrwt beam="2">  1       -2 0.14076015E+00 0.10424301E+04</pdfrwt>
<totfact> 0.21379318E-01</totfact>
</mgrwt>
</event>
<event>
12    1  0.1335216E-007  0.8222643E+03  0.7818608E-02  0.9528338E-01
         -2   -1    0    0    0  501 -0.00000000000E+00  0.00000000000E+00  0.13484127346E+04  0.13484127346E+04  0.00000000000E+00 0.  1.
          2   -1    0    0  501    0  0.00000000000E+00 -0.00000000000E+00 -0.54104414987E+03  0.54104414987E+03  0.00000000000E+00 0. -1.
         23    2    1    2    0    0  0.17823579694E+03 -0.72219256966E+03  0.41512511687E+03  0.85661436122E+03  0.90162044135E+02 0.  0.
    5000000    2    1    2    0    0 -0.17823579694E+03  0.72219256966E+03  0.39224346786E+03  0.10328425233E+04  0.59964875784E+03 0.  0.
         23    2    4    4    0    0 -0.34548155428E+03  0.50558055958E+03  0.41235366325E+03  0.74380728613E+03  0.90799387252E+02 0.  0.
         23    2    4    4    0    0  0.16724575734E+03  0.21661201008E+03 -0.20110195388E+02  0.28903523713E+03  0.90802214078E+02 0.  0.
          3    1    3    3  502    0  0.55597349170E+02 -0.23212266811E+03  0.86146747366E+02  0.25375827153E+03  0.00000000000E+00 0. -1.
         -3    1    3    3    0  502  0.12263844777E+03 -0.49006990155E+03  0.32897836951E+03  0.60285608969E+03  0.00000000000E+00 0.  1.
         13    1    5    5    0    0 -0.29906892983E+03  0.37154548087E+03  0.30900369903E+03  0.56830586409E+03  0.00000000000E+00 0.  1.
        -13    1    5    5    0    0 -0.46412624459E+02  0.13403507871E+03  0.10334996422E+03  0.17550142204E+03  0.00000000000E+00 0. -1.
          3    1    6    6  503    0  0.16278096057E+03  0.17123041701E+03  0.62952245965E+01  0.23634112356E+03  0.00000000000E+00 0. -1.
         -3    1    6    6    0  503  0.44647967749E+01  0.45381593075E+02 -0.26405419984E+02  0.52694113569E+02  0.00000000000E+00 0.  1.
<mgrwt>
<rscale>  0 0.82226427E+03</rscale>
<asrwt>0</asrwt>
<pdfrwt beam="1">  1        2 0.83237562E-01 0.82226427E+03</pdfrwt>
<pdfrwt beam="2">  1       -2 0.20744811E+00 0.82226427E+03</pdfrwt>
<totfact> 0.67606647E+00</totfact>
</mgrwt>
</event>
<event>
12    1  0.1335216E-007  0.7111179E+03  0.7818608E-02  0.9698406E-01
         -1   -1    0    0    0  501 -0.00000000000E+00  0.00000000000E+00  0.78375143662E+03  0.78375143662E+03  0.00000000000E+00 0.  1.
          1   -1    0    0  501    0  0.00000000000E+00 -0.00000000000E+00 -0.17601194984E+04  0.17601194984E+04  0.00000000000E+00 0. -1.
         23    2    1    2    0    0  0.57752222235E+03 -0.16108348641E+03 -0.14504834892E+04  0.15720718680E+04  0.89597984357E+02 0.  0.
    5000000    2    1    2    0    0 -0.57752222235E+03  0.16108348641E+03  0.47411542750E+03  0.97179906695E+03  0.60010680802E+03 0.  0.
         23    2    4    4    0    0  0.97845563258E+02  0.58029097072E+02  0.22856861782E+02  0.14783937041E+03  0.91612842756E+02 0.  0.
         23    2    4    4    0    0 -0.67536778561E+03  0.10305438934E+03  0.45125856572E+03  0.82395969654E+03  0.92376595434E+02 0.  0.
          3    1    3    3  502    0  0.73567452873E+02 -0.49675532414E+01 -0.12051604137E+03  0.14128327196E+03  0.00000000000E+00 0. -1.
         -3    1    3    3    0  502  0.50395476948E+03 -0.15611593317E+03 -0.13299674479E+04  0.14307885961E+04  0.00000000000E+00 0.  1.
         13    1    5    5    0    0  0.50631307327E+02  0.68938901990E+02 -0.14369471580E+02  0.86732826558E+02  0.00000000000E+00 0.  1.
        -13    1    5    5    0    0  0.47214255931E+02 -0.10909804919E+02  0.37226333362E+02  0.61106543856E+02  0.00000000000E+00 0. -1.
          1    1    6    6  503    0 -0.47861250131E+03  0.39850200855E+02  0.34687425673E+03  0.59243540990E+03  0.00000000000E+00 0. -1.
         -1    1    6    6    0  503 -0.19675528430E+03  0.63204188485E+02  0.10438430899E+03  0.23152428664E+03  0.00000000000E+00 0.  1.
<mgrwt>
<rscale>  0 0.71111785E+03</rscale>
<asrwt>0</asrwt>
<pdfrwt beam="1">  1        1 0.27078761E+00 0.71111785E+03</pdfrwt>
<pdfrwt beam="2">  1       -1 0.12057714E+00 0.71111785E+03</pdfrwt>
<totfact> 0.28035482E+00</totfact>
</mgrwt>
</event>
<event>
12    1  0.1335216E-007  0.6447430E+03  0.7818608E-02  0.9816694E-01
          1   -1    0    0  501    0  0.00000000000E+00  0.00000000000E+00  0.45716709650E+03  0.45716709650E+03  0.00000000000E+00 0. -1.
         -1   -1    0    0    0  501 -0.00000000000E+00 -0.00000000000E+00 -0.10428663059E+04  0.10428663059E+04  0.00000000000E+00 0.  1.
         23    2    1    2    0    0  0.47304844780E+03 -0.29174087046E+03 -0.23203533892E+03  0.60905425708E+03  0.90659362944E+02 0.  0.
    5000000    2    1    2    0    0 -0.47304844780E+03  0.29174087046E+03 -0.35366387049E+03  0.89097914534E+03  0.59989843697E+03 0.  0.
         23    2    4    4    0    0 -0.80426814359E+02 -0.12896902621E+03 -0.23665936287E+03  0.29632558491E+03  0.93272268367E+02 0.  0.
         23    2    4    4    0    0 -0.39262163344E+03  0.42070989667E+03 -0.11700450762E+03  0.59465356043E+03  0.93670902267E+02 0.  0.
          4    1    3    3  502    0  0.32106885757E+03 -0.20576325834E+03 -0.20310730844E+03  0.43206053803E+03  0.00000000000E+00 0. -1.
         -4    1    3    3    0  502  0.15197959024E+03 -0.85977612120E+02 -0.28928030481E+02  0.17699371905E+03  0.00000000000E+00 0.  1.
         11    1    5    5    0    0 -0.20439976658E+02 -0.37076775922E+02 -0.15182937887E+03  0.15762182668E+03  0.00000000000E+00 0. -1.
        -11    1    5    5    0    0 -0.59986837701E+02 -0.91892250284E+02 -0.84829984002E+02  0.13870375822E+03  0.00000000000E+00 0.  1.
          2    1    6    6  503    0 -0.31192542030E+03  0.37821750066E+03 -0.11437253001E+03  0.50341535660E+03  0.00000000000E+00 0. -1.
         -2    1    6    6    0  503 -0.80696213137E+02  0.42492396011E+02 -0.26319776135E+01  0.91238203838E+02  0.00000000000E+00 0.  1.
<mgrwt>
<rscale>  0 0.64474299E+03</rscale>
<asrwt>0</asrwt>
<pdfrwt beam="1">  1        1 0.70333400E-01 0.64474299E+03</pdfrwt>
<pdfrwt beam="2">  1       -1 0.16044097E+00 0.64474299E+03</pdfrwt>
<totfact> 0.15131518E+01</totfact>
</mgrwt>
</event>
<event>
12    1  0.1335216E-007  0.6748219E+03  0.7818608E-02  0.9761286E-01
          2   -1    0    0  501    0  0.00000000000E+00  0.00000000000E+00  0.11804617221E+04  0.11804617221E+04  0.00000000000E+00 0. -1.
         -2   -1    0    0    0  501 -0.00000000000E+00 -0.00000000000E+00 -0.48901704302E+03  0.48901704302E+03  0.00000000000E+00 0.  1.
         23    2    1    2    0    0  0.52334422810E+03  0.26350683809E+03  0.17022267360E+02  0.59326251337E+03  0.91354350654E+02 0.  0.
    5000000    2    1    2    0    0 -0.52334422810E+03 -0.26350683809E+03  0.67442241171E+03  0.10762162518E+04  0.60005899402E+03 0.  0.
         23    2    4    4    0    0 -0.33246757849E+03 -0.38723889410E+03  0.64700826917E+03  0.82942576939E+03  0.94014651581E+02 0.  0.
         23    2    4    4    0    0 -0.19087664961E+03  0.12373205602E+03  0.27414142548E+02  0.24679048236E+03  0.91708723239E+02 0.  0.
          4    1    3    3  502    0  0.19138028224E+03  0.55059357742E+02 -0.16640425337E+02  0.19983705627E+03  0.00000000000E+00 0. -1.
         -4    1    3    3    0  502  0.33196394586E+03  0.20844748035E+03  0.33662692697E+02  0.39342545710E+03  0.00000000000E+00 0.  1.
         13    1    5    5    0    0 -0.46449203142E+02 -0.11087996617E+03  0.17295445958E+03  0.21063034078E+03  0.00000000000E+00 0. -1.
        -13    1    5    5    0    0 -0.28601837534E+03 -0.27635892793E+03  0.47405380959E+03  0.61879542861E+03  0.00000000000E+00 0.  1.
          2    1    6    6  503    0 -0.14294536029E+03  0.12876246122E+03  0.41019512033E+02  0.19671234790E+03  0.00000000000E+00 0. -1.
         -2    1    6    6    0  503 -0.47931289318E+02 -0.50304052015E+01 -0.13605369485E+02  0.50078134460E+02  0.00000000000E+00 0.  1.
<mgrwt>
<rscale>  0 0.67482187E+03</rscale>
<asrwt>0</asrwt>
<pdfrwt beam="1">  1        2 0.18160949E+00 0.67482187E+03</pdfrwt>
<pdfrwt beam="2">  1       -2 0.75233392E-01 0.67482187E+03</pdfrwt>
<totfact> 0.31681588E+01</totfact>
</mgrwt>
</event>
<event>
12    1  0.1335216E-007  0.6162613E+03  0.7818608E-02  0.9872232E-01
         -1   -1    0    0    0  501 -0.00000000000E+00  0.00000000000E+00  0.80314594249E+03  0.80314594249E+03  0.00000000000E+00 0.  1.
          1   -1    0    0  501    0  0.00000000000E+00 -0.00000000000E+00 -0.57817549406E+03  0.57817549406E+03  0.00000000000E+00 0. -1.
         23    2    1    2    0    0  0.33989402373E+03 -0.33796568766E+03  0.35349386210E+03  0.60271946059E+03  0.92542337526E+02 0.  0.
    5000000    2    1    2    0    0 -0.33989402373E+03  0.33796568766E+03 -0.12852341367E+03  0.77860197595E+03  0.59996167852E+03 0.  0.
         23    2    4    4    0    0 -0.60283722317E+02  0.44251468032E+03 -0.88039831508E+02  0.46408463213E+03  0.90388961569E+02 0.  0.
         23    2    4    4    0    0 -0.27961030141E+03 -0.10454899266E+03 -0.40483582159E+02  0.31451734382E+03  0.90387093203E+02 0.  0.
          2    1    3    3  502    0  0.93578485875E+02 -0.78928382657E+02  0.44595158375E+02  0.13028948829E+03  0.00000000000E+00 0. -1.
         -2    1    3    3    0  502  0.24631553785E+03 -0.25903730500E+03  0.30889870373E+03  0.47242997231E+03  0.00000000000E+00 0.  1.
         13    1    5    5    0    0 -0.68077199143E+02  0.20748339420E+03 -0.64802284837E+02  0.22777884017E+03  0.00000000000E+00 0.  1.
        -13    1    5    5    0    0  0.77934768261E+01  0.23503128612E+03 -0.23237546672E+02  0.23630579196E+03  0.00000000000E+00 0. -1.
          3    1    6    6  503    0 -0.21423311265E+03 -0.88589592390E+02 -0.68328541179E+02  0.24168726068E+03  0.00000000000E+00 0. -1.
         -3    1    6    6    0  503 -0.65377188759E+02 -0.15959400271E+02  0.27844959020E+02  0.72830083138E+02  0.00000000000E+00 0.  1.
<mgrwt>
<rscale>  0 0.61626133E+03</rscale>
<asrwt>0</asrwt>
<pdfrwt beam="1">  1        1 0.88950076E-01 0.61626133E+03</pdfrwt>
<pdfrwt beam="2">  1       -1 0.12356091E+00 0.61626133E+03</pdfrwt>
<totfact> 0.21689993E+01</totfact>
</mgrwt>
</event>
<event>
12    1  0.1335216E-007  0.5732218E+03  0.7818608E-02  0.9962575E-01
         -2   -1    0    0    0  501 -0.00000000000E+00  0.00000000000E+00  0.20842061030E+03  0.20842061030E+03  0.00000000000E+00 0.  1.
          2   -1    0    0  501    0  0.00000000000E+00 -0.00000000000E+00 -0.18438072392E+04  0.18438072392E+04  0.00000000000E+00 0. -1.
         23    2    1    2    0    0  0.46668666055E+03  0.45257117127E+02 -0.59810876026E+03  0.76551716804E+03  0.91857496573E+02 0.  0.
    5000000    2    1    2    0    0 -0.46668666055E+03 -0.45257117127E+02 -0.10372778686E+04  0.12867106814E+04  0.59986194677E+03 0.  0.
         23    2    4    4    0    0 -0.90375695317E+02  0.19461929902E+03 -0.11994445987E+03  0.26254377104E+03  0.92185250455E+02 0.  0.
         23    2    4    4    0    0 -0.37631096524E+03 -0.23987641615E+03 -0.91733340873E+03  0.10241669104E+04  0.90921064362E+02 0.  0.
          1    1    3    3  502    0  0.40644424943E+03  0.30151412685E+02 -0.46305999942E+03  0.61687162250E+03  0.00000000000E+00 0. -1.
         -1    1    3    3    0  502  0.60242411122E+02  0.15105704442E+02 -0.13504876085E+03  0.14864554555E+03  0.00000000000E+00 0.  1.
         11    1    5    5    0    0 -0.31122546549E+02  0.15137468650E+03 -0.10721914829E+03  0.18809267497E+03  0.00000000000E+00 0.  1.
        -11    1    5    5    0    0 -0.59253148768E+02  0.43244612524E+02 -0.12725311576E+02  0.74451096070E+02  0.00000000000E+00 0. -1.
          2    1    6    6  503    0 -0.18033400978E+03 -0.14363280656E+03 -0.38426672170E+03  0.44812013078E+03  0.00000000000E+00 0. -1.
         -2    1    6    6    0  503 -0.19597695546E+03 -0.96243609592E+02 -0.53306668703E+03  0.57604677960E+03  0.00000000000E+00 0.  1.
<mgrwt>
<rscale>  0 0.57322178E+03</rscale>
<asrwt>0</asrwt>
<pdfrwt beam="1">  1        2 0.28366265E+00 0.57322178E+03</pdfrwt>
<pdfrwt beam="2">  1       -2 0.32064709E-01 0.57322178E+03</pdfrwt>
<totfact> 0.77301433E+01</totfact>
</mgrwt>
</event>
<event>
12    1  0.1335216E-007  0.1050481E+04  0.7818608E-02  0.9254848E-01
          1   -1    0    0  501    0  0.00000000000E+00  0.00000000000E+00  0.10174339037E+04  0.10174339037E+04  0.00000000000E+00 0. -1.
         -1   -1    0    0    0  501 -0.00000000000E+00 -0.00000000000E+00 -0.14074572475E+04  0.14074572475E+04  0.00000000000E+00 0.  1.
         23    2    1    2    0    0  0.65981059831E+03  0.72753166922E+03 -0.72751166146E+03  0.12255796412E+04  0.90110398821E+02 0.  0.
    5000000    2    1    2    0    0 -0.65981059831E+03 -0.72753166922E+03  0.33748831770E+03  0.11993115100E+04  0.59983112468E+03 0.  0.
         23    2    4    4    0    0 -0.30165967160E+02  0.77699742101E+02  0.33777634364E+02  0.12907424892E+03  0.92585083328E+02 0.  0.
         23    2    4    4    0    0 -0.62964463115E+03 -0.80523141132E+03  0.30371068333E+03  0.10702372611E+04  0.91201033803E+02 0.  0.
          1    1    3    3  502    0  0.86706092349E+02  0.14594207843E+03 -0.12211955472E+03  0.20911772366E+03  0.00000000000E+00 0. -1.
         -1    1    3    3    0  502  0.57310450596E+03  0.58158959079E+03 -0.60539210674E+03  0.10164619175E+04  0.00000000000E+00 0.  1.
         13    1    5    5    0    0 -0.42217680436E+01  0.60317357488E+02 -0.22660919137E+02  0.64571852969E+02  0.00000000000E+00 0. -1.
        -13    1    5    5    0    0 -0.25944199116E+02  0.17382384612E+02  0.56438553500E+02  0.64502395954E+02  0.00000000000E+00 0.  1.
          1    1    6    6  503    0 -0.29243496020E+03 -0.40720108180E+03  0.10636573050E+03  0.51248862971E+03  0.00000000000E+00 0. -1.
         -1    1    6    6    0  503 -0.33720967096E+03 -0.39803032952E+03  0.19734495284E+03  0.55774863139E+03  0.00000000000E+00 0.  1.
<mgrwt>
<rscale>  0 0.10504810E+04</rscale>
<asrwt>0</asrwt>
<pdfrwt beam="1">  1        1 0.15652829E+00 0.10504810E+04</pdfrwt>
<pdfrwt beam="2">  1       -1 0.21653188E+00 0.10504810E+04</pdfrwt>
<totfact> 0.17005888E+00</totfact>
</mgrwt>
</event>
<event>
12    1  0.1335216E-007  0.8552467E+03  0.7818608E-02  0.9483322E-01
          2   -1    0    0  501    0  0.00000000000E+00  0.00000000000E+00  0.14978803939E+04  0.14978803939E+04  0.00000000000E+00 0.  1.
         -2   -1    0    0    0  501 -0.00000000000E+00 -0.00000000000E+00 -0.81990810910E+03  0.81990810910E+03  0.00000000000E+00 0. -1.
         23    2    1    2    0    0 -0.73558204398E+03  0.26041131356E+03  0.10094218993E+04  0.12791502783E+04  0.91639881717E+02 0.  0.
    5000000    2    1    2    0    0  0.73558204398E+03 -0.26041131356E+03 -0.33144961453E+03  0.10386382247E+04  0.60001293253E+03 0.  0.
         23    2    4    4    0    0  0.40861474624E+03 -0.39458410545E+03 -0.50053584370E+02  0.57787224668E+03  0.93639441828E+02 0.  0.
         23    2    4    4    0    0  0.32696729774E+03  0.13417279189E+03 -0.28139603016E+03  0.46076597803E+03  0.90617927815E+02 0.  0.
          2    1    3    3  502    0 -0.38132909423E+03  0.14075477023E+03  0.59949647316E+03  0.72430643016E+03  0.00000000000E+00 0. -1.
         -2    1    3    3    0  502 -0.35425294975E+03  0.11965654333E+03  0.40992542614E+03  0.55484384809E+03  0.00000000000E+00 0.  1.
         13    1    5    5    0    0  0.26757504221E+02 -0.90827278434E+01 -0.19635938372E+02  0.34409737763E+02  0.00000000000E+00 0.  1.
        -13    1    5    5    0    0  0.38185724201E+03 -0.38550137761E+03 -0.30417645999E+02  0.54346250892E+03  0.00000000000E+00 0. -1.
          3    1    6    6  503    0  0.20342394449E+03  0.11652878954E+03 -0.22076224955E+03  0.32201899138E+03  0.00000000000E+00 0. -1.
         -3    1    6    6    0  503  0.12354335326E+03  0.17644002350E+02 -0.60633780604E+02  0.13874698665E+03  0.00000000000E+00 0.  1.
<mgrwt>
<rscale>  0 0.85524672E+03</rscale>
<asrwt>0</asrwt>
<pdfrwt beam="1">  1        2 0.23044314E+00 0.85524672E+03</pdfrwt>
<pdfrwt beam="2">  1       -2 0.12613971E+00 0.85524672E+03</pdfrwt>
<totfact> 0.60290257E+00</totfact>
</mgrwt>
</event>
<event>
12    1  0.1335216E-007  0.1365106E+04  0.7818608E-02  0.8979471E-01
          1   -1    0    0  501    0  0.00000000000E+00  0.00000000000E+00  0.88700010116E+03  0.88700010116E+03  0.00000000000E+00 0. -1.
         -1   -1    0    0    0  501 -0.00000000000E+00 -0.00000000000E+00 -0.23678089389E+04  0.23678089389E+04  0.00000000000E+00 0.  1.
         23    2    1    2    0    0  0.62598508171E+03 -0.11937062412E+04 -0.34893264685E+03  0.13952467314E+04  0.90374424687E+02 0.  0.
    5000000    2    1    2    0    0 -0.62598508171E+03  0.11937062412E+04 -0.11318761909E+04  0.18595623086E+04  0.60003029539E+03 0.  0.
         23    2    4    4    0    0 -0.58749239899E+03  0.89124605450E+03 -0.56808936926E+03  0.12126623397E+04  0.91419746520E+02 0.  0.
         23    2    4    4    0    0 -0.38492682719E+02  0.30246018671E+03 -0.56378682161E+03  0.64689996896E+03  0.87522216886E+02 0.  0.
          2    1    3    3  502    0  0.31542741568E+03 -0.50645651917E+03 -0.14574750986E+03  0.61419459213E+03  0.00000000000E+00 0. -1.
         -2    1    3    3    0  502  0.31055766603E+03 -0.68724972204E+03 -0.20318513699E+03  0.78105213927E+03  0.00000000000E+00 0.  1.
         13    1    5    5    0    0 -0.23420640675E+03  0.43542618225E+03 -0.27525113899E+03  0.56587259225E+03  0.00000000000E+00 0. -1.
        -13    1    5    5    0    0 -0.35328599224E+03  0.45581987225E+03 -0.29283823027E+03  0.64678974742E+03  0.00000000000E+00 0.  1.
          4    1    6    6  503    0 -0.46619999949E+02  0.28752311340E+03 -0.48048109663E+03  0.56187636483E+03  0.00000000000E+00 0. -1.
         -4    1    6    6    0  503  0.81273172296E+01  0.14937073307E+02 -0.83305724981E+02  0.85023604128E+02  0.00000000000E+00 0.  1.
<mgrwt>
<rscale>  0 0.13651061E+04</rscale>
<asrwt>0</asrwt>
<pdfrwt beam="1">  1        1 0.13646156E+00 0.13651061E+04</pdfrwt>
<pdfrwt beam="2">  1       -1 0.36427829E+00 0.13651061E+04</pdfrwt>
<totfact> 0.22576116E-01</totfact>
</mgrwt>
</event>
<event>
12    1  0.1335216E-007  0.8724175E+03  0.7818608E-02  0.9460733E-01
         -2   -1    0    0    0  501 -0.00000000000E+00  0.00000000000E+00  0.17473865988E+04  0.17473865988E+04  0.00000000000E+00 0.  1.
          2   -1    0    0  501    0  0.00000000000E+00 -0.00000000000E+00 -0.50497027211E+03  0.50497027211E+03  0.00000000000E+00 0. -1.
         23    2    1    2    0    0  0.27124871300E+03 -0.78141263140E+03  0.74123817648E+03  0.11142028952E+04  0.88501370968E+02 0.  0.
    5000000    2    1    2    0    0 -0.27124871300E+03  0.78141263140E+03  0.50117815019E+03  0.11381539756E+04  0.60002780705E+03 0.  0.
         23    2    4    4    0    0  0.94034091136E+02  0.19292550193E+03 -0.63428601149E+02  0.23970461983E+03  0.85863017242E+02 0.  0.
         23    2    4    4    0    0 -0.36528280414E+03  0.58848712947E+03  0.56460675134E+03  0.89844935582E+03  0.93176353055E+02 0.  0.
          2    1    3    3  502    0  0.78678925536E+02 -0.20480698972E+03  0.24999578476E+03  0.33261715043E+03  0.00000000000E+00 0. -1.
         -2    1    3    3    0  502  0.19256978746E+03 -0.57660564168E+03  0.49124239172E+03  0.78158574481E+03  0.00000000000E+00 0.  1.
         11    1    5    5    0    0  0.54856334550E+01  0.60033884966E+02 -0.51988423749E+02  0.79604998100E+02  0.00000000000E+00 0.  1.
        -11    1    5    5    0    0  0.88548457681E+02  0.13289161697E+03 -0.11440177401E+02  0.16009962173E+03  0.00000000000E+00 0. -1.
          2    1    6    6  503    0 -0.43404921641E+02  0.13228934406E+03  0.91175072074E+02  0.16642521306E+03  0.00000000000E+00 0. -1.
         -2    1    6    6    0  503 -0.32187788250E+03  0.45619778540E+03  0.47343167926E+03  0.73202414276E+03  0.00000000000E+00 0.  1.
<mgrwt>
<rscale>  0 0.87241745E+03</rscale>
<asrwt>0</asrwt>
<pdfrwt beam="1">  1        2 0.77687735E-01 0.87241745E+03</pdfrwt>
<pdfrwt beam="2">  1       -2 0.26882870E+00 0.87241745E+03</pdfrwt>
<totfact> 0.30505716E+00</totfact>
</mgrwt>
</event>
<event>
12    1  0.1335216E-007  0.1162050E+04  0.7818608E-02  0.9146738E-01
         -2   -1    0    0    0  501 -0.00000000000E+00  0.00000000000E+00  0.16891786940E+04  0.16891786940E+04  0.00000000000E+00 0.  1.
          2   -1    0    0  501    0  0.00000000000E+00 -0.00000000000E+00 -0.86575935273E+03  0.86575935273E+03  0.00000000000E+00 0. -1.
         23    2    1    2    0    0  0.49243563715E+03  0.10170130833E+04  0.47432556330E+03  0.12288115162E+04  0.90468413834E+02 0.  0.
    5000000    2    1    2    0    0 -0.49243563715E+03 -0.10170130833E+04  0.34909377801E+03  0.13261265306E+04  0.59994719851E+03 0.  0.
         23    2    4    4    0    0  0.49728471154E+02 -0.15359146719E+03 -0.97863109696E+02  0.20919967940E+03  0.90133556386E+02 0.  0.
         23    2    4    4    0    0 -0.54216410831E+03 -0.86342161611E+03  0.44695688771E+03  0.11169268512E+04  0.91193881253E+02 0.  0.
          3    1    3    3  502    0  0.39065280476E+03  0.77376098260E+03  0.32453075092E+03  0.92554626051E+03  0.00000000000E+00 0. -1.
         -3    1    3    3    0  502  0.10178283240E+03  0.24325210070E+03  0.14979481237E+03  0.30326525564E+03  0.00000000000E+00 0.  1.
         11    1    5    5    0    0  0.57694721200E+02 -0.86648808624E+02 -0.96232051517E+02  0.14176496263E+03  0.00000000000E+00 0. -1.
        -11    1    5    5    0    0 -0.79662500466E+01 -0.66942658564E+02 -0.16310581785E+01  0.67434716773E+02  0.00000000000E+00 0.  1.
          1    1    6    6  503    0 -0.26653000617E+03 -0.35672701625E+03  0.22463391957E+03  0.49875124675E+03  0.00000000000E+00 0. -1.
         -1    1    6    6    0  503 -0.27563410214E+03 -0.50669459986E+03  0.22232296814E+03  0.61817560446E+03  0.00000000000E+00 0.  1.
<mgrwt>
<rscale>  0 0.11620504E+04</rscale>
<asrwt>0</asrwt>
<pdfrwt beam="1">  1        2 0.13319375E+00 0.11620504E+04</pdfrwt>
<pdfrwt beam="2">  1       -2 0.25987364E+00 0.11620504E+04</pdfrwt>
<totfact> 0.16955795E+00</totfact>
</mgrwt>
</event>
<event>
12    1  0.1335216E-007  0.6968215E+03  0.7818608E-02  0.9722683E-01
         -2   -1    0    0    0  501 -0.00000000000E+00  0.00000000000E+00  0.10263681914E+04  0.10263681914E+04  0.00000000000E+00 0.  1.
          2   -1    0    0  501    0  0.00000000000E+00 -0.00000000000E+00 -0.11440173425E+04  0.11440173425E+04  0.00000000000E+00 0. -1.
         23    2    1    2    0    0 -0.46244841548E+03  0.37241098929E+03  0.74929087065E+03  0.96039982132E+03  0.91556135943E+02 0.  0.
    5000000    2    1    2    0    0  0.46244841548E+03 -0.37241098929E+03 -0.86694002182E+03  0.12099857126E+04  0.59994328170E+03 0.  0.
         23    2    4    4    0    0  0.56213914456E+03 -0.36186340615E+03 -0.83007203834E+03  0.10698198809E+04  0.92463215240E+02 0.  0.
         23    2    4    4    0    0 -0.99690729075E+02 -0.10547583134E+02 -0.36867983483E+02  0.14016583167E+03  0.90761881804E+02 0.  0.
          2    1    3    3  502    0 -0.27702561785E+03  0.18130044363E+03  0.46566952367E+03  0.57136778793E+03  0.00000000000E+00 0. -1.
         -2    1    3    3    0  502 -0.18542279763E+03  0.19111054566E+03  0.28362134698E+03  0.38903203339E+03  0.00000000000E+00 0.  1.
         13    1    5    5    0    0  0.12047745986E+03 -0.35618368405E+02 -0.16432689196E+03  0.20684973755E+03  0.00000000000E+00 0. -1.
        -13    1    5    5    0    0  0.44166168470E+03 -0.32624503775E+03 -0.66574514638E+03  0.86297014335E+03  0.00000000000E+00 0.  1.
          3    1    6    6  503    0 -0.82069707900E+02  0.21632477830E+02 -0.53027011250E+02  0.10007629576E+03  0.00000000000E+00 0. -1.
         -3    1    6    6    0  503 -0.17621021176E+02 -0.32180060964E+02  0.16159027767E+02  0.40089535908E+02  0.00000000000E+00 0.  1.
<mgrwt>
<rscale>  0 0.69682153E+03</rscale>
<asrwt>0</asrwt>
<pdfrwt beam="1">  1        2 0.17600267E+00 0.69682153E+03</pdfrwt>
<pdfrwt beam="2">  1       -2 0.15790280E+00 0.69682153E+03</pdfrwt>
<totfact> 0.54999414E+00</totfact>
</mgrwt>
</event>
<event>
12    1  0.1335216E-007  0.8403439E+03  0.7818608E-02  0.9503389E-01
          2   -1    0    0  501    0  0.00000000000E+00  0.00000000000E+00  0.26506527140E+04  0.26506527140E+04  0.00000000000E+00 0. -1.
         -2   -1    0    0    0  501 -0.00000000000E+00 -0.00000000000E+00 -0.32648019685E+03  0.32648019685E+03  0.00000000000E+00 0.  1.
         23    2    1    2    0    0 -0.69738359108E+03 -0.45103262026E+03  0.10679374084E+04  0.13560024837E+04  0.92076760739E+02 0.  0.
    5000000    2    1    2    0    0  0.69738359108E+03  0.45103262026E+03  0.12562351087E+04  0.16211304271E+04  0.60013574774E+03 0.  0.
         23    2    4    4    0    0  0.15488600720E+03  0.89528891630E+02  0.78852415911E+03  0.81375647789E+03  0.91783212737E+02 0.  0.
         23    2    4    4    0    0  0.54249758388E+03  0.36150372863E+03  0.46771094959E+03  0.80737394922E+03  0.90058798492E+02 0.  0.
          2    1    3    3  502    0 -0.33140055075E+03 -0.18688121296E+03  0.55323195436E+03  0.67142870666E+03  0.00000000000E+00 0. -1.
         -2    1    3    3    0  502 -0.36598304033E+03 -0.26415140731E+03  0.51470545407E+03  0.68457377706E+03  0.00000000000E+00 0.  1.
         13    1    5    5    0    0  0.11113992160E+03  0.17297497813E+02  0.36669237121E+03  0.38355518600E+03  0.00000000000E+00 0.  1.
        -13    1    5    5    0    0  0.43746085597E+02  0.72231393817E+02  0.42183178791E+03  0.43020129189E+03  0.00000000000E+00 0. -1.
          3    1    6    6  503    0  0.46031169528E+03  0.30975316263E+03  0.35540754954E+03  0.65889938901E+03  0.00000000000E+00 0. -1.
         -3    1    6    6    0  503  0.82185888596E+02  0.51750566002E+02  0.11230340005E+03  0.14847456021E+03  0.00000000000E+00 0.  1.
<mgrwt>
<rscale>  0 0.84034389E+03</rscale>
<asrwt>0</asrwt>
<pdfrwt beam="1">  1        2 0.40779271E+00 0.84034389E+03</pdfrwt>
<pdfrwt beam="2">  1       -2 0.50227724E-01 0.84034389E+03</pdfrwt>
<totfact> 0.11050228E+01</totfact>
</mgrwt>
</event>
<event>
12    1  0.1558602E-007  0.9396055E+03  0.7818608E-02  0.9377383E-01
          1   -1    0    0  501    0  0.00000000000E+00  0.00000000000E+00  0.17773650565E+04  0.17773650565E+04  0.00000000000E+00 0. -1.
         -1   -1    0    0    0  501 -0.00000000000E+00 -0.00000000000E+00 -0.13263183852E+04  0.13263183852E+04  0.00000000000E+00 0.  1.
         23    2    1    2    0    0 -0.15389235234E+03 -0.84256064252E+03  0.14312425208E+04  0.16703968032E+04  0.90438014657E+02 0.  0.
    5000000    2    1    2    0    0  0.15389235234E+03  0.84256064252E+03 -0.98019584955E+03  0.14332866385E+04  0.59994615772E+03 0.  0.
         23    2    4    4    0    0 -0.14387092098E+03  0.59843761641E+03 -0.75122621791E+03  0.97571592777E+03  0.94097388895E+02 0.  0.
         23    2    4    4    0    0  0.29776327331E+03  0.24412302611E+03 -0.22896963164E+03  0.45757071072E+03  0.93192511928E+02 0.  0.
          2    1    3    3  502    0 -0.12676774351E+03 -0.45754881087E+03  0.76080438443E+03  0.89679668069E+03  0.00000000000E+00 0. -1.
         -2    1    3    3    0  502 -0.27124608828E+02 -0.38501183165E+03  0.67043813635E+03  0.77360012254E+03  0.00000000000E+00 0.  1.
         13    1    5    5    0    0 -0.50735057811E+02  0.39869646015E+03 -0.46962359188E+03  0.61812557905E+03  0.00000000000E+00 0. -1.
        -13    1    5    5    0    0 -0.93135863167E+02  0.19974115626E+03 -0.28160262602E+03  0.35759034872E+03  0.00000000000E+00 0.  1.
          1    1    6    6  503    0  0.19576631645E+03  0.21349730721E+03 -0.16690681411E+03  0.33431038787E+03  0.00000000000E+00 0. -1.
         -1    1    6    6    0  503  0.10199695686E+03  0.30625718899E+02 -0.62062817535E+02  0.12326032285E+03  0.00000000000E+00 0.  1.
<mgrwt>
<rscale>  0 0.93960547E+03</rscale>
<asrwt>0</asrwt>
<pdfrwt beam="1">  1        1 0.27344078E+00 0.93960547E+03</pdfrwt>
<pdfrwt beam="2">  1       -1 0.20404898E+00 0.93960547E+03</pdfrwt>
<totfact> 0.60817463E-01</totfact>
</mgrwt>
</event>
<event>
12    1  0.1335216E-007  0.8021486E+03  0.7818608E-02  0.9556912E-01
          2   -1    0    0  501    0  0.00000000000E+00  0.00000000000E+00  0.94000311476E+03  0.94000311476E+03  0.00000000000E+00 0.  1.
         -2   -1    0    0    0  501 -0.00000000000E+00 -0.00000000000E+00 -0.10089256746E+04  0.10089256746E+04  0.00000000000E+00 0. -1.
         23    2    1    2    0    0 -0.73513492942E+03  0.22084697795E+03  0.39684517556E+03  0.86900605453E+03  0.92134018195E+02 0.  0.
    5000000    2    1    2    0    0  0.73513492942E+03 -0.22084697795E+03 -0.46576773543E+03  0.10799227349E+04  0.60008064274E+03 0.  0.
         23    2    4    4    0    0  0.25788298727E+03  0.63026521952E+02 -0.43346091656E+03  0.51655199546E+03  0.91987065559E+02 0.  0.
         23    2    4    4    0    0  0.47725194215E+03 -0.28387349991E+03 -0.32306818863E+02  0.56337073941E+03  0.89382768145E+02 0.  0.
          1    1    3    3  502    0 -0.51359380117E+03  0.15813077779E+03  0.22935531463E+03  0.58428400271E+03  0.00000000000E+00 0. -1.
         -1    1    3    3    0  502 -0.22154112826E+03  0.62716200163E+02  0.16748986093E+03  0.28472205181E+03  0.00000000000E+00 0.  1.
         13    1    5    5    0    0  0.48473472706E+02  0.42121345648E+02 -0.60046950976E+02  0.87917698087E+02  0.00000000000E+00 0.  1.
        -13    1    5    5    0    0  0.20940951456E+03  0.20905176304E+02 -0.37341396559E+03  0.42863429737E+03  0.00000000000E+00 0. -1.
          3    1    6    6  503    0  0.15920018224E+03 -0.48836361182E+02  0.68065000630E+00  0.16652372649E+03  0.00000000000E+00 0. -1.
         -3    1    6    6    0  503  0.31805175991E+03 -0.23503713872E+03 -0.32987468870E+02  0.39684701292E+03  0.00000000000E+00 0.  1.
<mgrwt>
<rscale>  0 0.80214864E+03</rscale>
<asrwt>0</asrwt>
<pdfrwt beam="1">  1        2 0.14461586E+00 0.80214864E+03</pdfrwt>
<pdfrwt beam="2">  1       -2 0.15521933E+00 0.80214864E+03</pdfrwt>
<totfact> 0.76275602E+00</totfact>
</mgrwt>
</event>
<event>
12    1  0.1540797E-007  0.1500844E+04  0.7818608E-02  0.8883892E-01
         -1   -1    0    0    0  501 -0.00000000000E+00  0.00000000000E+00  0.17483448488E+04  0.17483448488E+04  0.00000000000E+00 0.  1.
          1   -1    0    0  501    0  0.00000000000E+00 -0.00000000000E+00 -0.13662073886E+04  0.13662073886E+04  0.00000000000E+00 0. -1.
         23    2    1    2    0    0  0.10102528814E+04 -0.10804248222E+04  0.32613365465E+03  0.15173021612E+04  0.88960703296E+02 0.  0.
    5000000    2    1    2    0    0 -0.10102528814E+04  0.10804248222E+04  0.56003805604E+02  0.15972500762E+04  0.60011890384E+03 0.  0.
         23    2    4    4    0    0 -0.69670972916E+03  0.94128552142E+03 -0.15438707696E+03  0.11846578798E+04  0.90310813284E+02 0.  0.
         23    2    4    4    0    0 -0.31354315227E+03  0.13913930080E+03  0.21039088256E+03  0.41259219643E+03  0.91098538592E+02 0.  0.
          3    1    3    3  502    0  0.41858870663E+03 -0.46771593568E+03  0.95667506365E+02  0.63492280915E+03  0.00000000000E+00 0. -1.
         -3    1    3    3    0  502  0.59166417479E+03 -0.61270888654E+03  0.23046614829E+03  0.88237935203E+03  0.00000000000E+00 0.  1.
         13    1    5    5    0    0 -0.61231681186E+03  0.78076334986E+03 -0.11304220346E+03  0.99865000191E+03  0.00000000000E+00 0. -1.
        -13    1    5    5    0    0 -0.84392917301E+02  0.16052217156E+03 -0.41344873499E+02  0.18600787784E+03  0.00000000000E+00 0.  1.
          1    1    6    6  503    0 -0.29916458150E+03  0.14583369460E+03  0.18015238942E+03  0.37844655728E+03  0.00000000000E+00 0. -1.
         -1    1    6    6    0  503 -0.14378570768E+02 -0.66943938003E+01  0.30238493144E+02  0.34145639155E+02  0.00000000000E+00 0.  1.
<mgrwt>
<rscale>  0 0.15008439E+04</rscale>
<asrwt>0</asrwt>
<pdfrwt beam="1">  1        1 0.21018575E+00 0.15008439E+04</pdfrwt>
<pdfrwt beam="2">  1       -1 0.26897613E+00 0.15008439E+04</pdfrwt>
<totfact> 0.40309395E-01</totfact>
</mgrwt>
</event>
<event>
12    1  0.1335216E-007  0.8131730E+03  0.7818608E-02  0.9541143E-01
          2   -1    0    0  501    0  0.00000000000E+00  0.00000000000E+00  0.18066545597E+04  0.18066545597E+04  0.00000000000E+00 0. -1.
         -2   -1    0    0    0  501 -0.00000000000E+00 -0.00000000000E+00 -0.84503866361E+03  0.84503866361E+03  0.00000000000E+00 0.  1.
         23    2    1    2    0    0  0.73672769584E+02 -0.78746533658E+03 -0.45888284735E+03  0.91867423501E+03  0.88654098463E+02 0.  0.
    5000000    2    1    2    0    0 -0.73672769584E+02  0.78746533658E+03  0.14204987434E+04  0.17330189883E+04  0.60000733363E+03 0.  0.
         23    2    4    4    0    0 -0.11178157368E+03  0.18873605321E+03  0.90893762896E+03  0.93944147927E+03  0.90918984007E+02 0.  0.
         23    2    4    4    0    0  0.38108804093E+02  0.59872928337E+03  0.51156111444E+03  0.79357750899E+03  0.90230001949E+02 0.  0.
          1    1    3    3  502    0  0.63010360091E+02 -0.23826007539E+03 -0.14878614601E+03  0.28788102794E+03  0.00000000000E+00 0. -1.
         -1    1    3    3    0  502  0.10662409492E+02 -0.54920526119E+03 -0.31009670135E+03  0.63079320707E+03  0.00000000000E+00 0.  1.
         11    1    5    5    0    0 -0.25701120152E+01  0.62012616925E+02  0.15093269580E+03  0.16319573768E+03  0.00000000000E+00 0.  1.
        -11    1    5    5    0    0 -0.10921146166E+03  0.12672343628E+03  0.75800493315E+03  0.77624574160E+03  0.00000000000E+00 0. -1.
          2    1    6    6  503    0 -0.45983809938E+01  0.22842406560E+03  0.14391468747E+03  0.27001876995E+03  0.00000000000E+00 0. -1.
         -2    1    6    6    0  503  0.42707185087E+02  0.37030521777E+03  0.36764642697E+03  0.52355873904E+03  0.00000000000E+00 0.  1.
<mgrwt>
<rscale>  0 0.81317299E+03</rscale>
<asrwt>0</asrwt>
<pdfrwt beam="1">  1        2 0.27794685E+00 0.81317299E+03</pdfrwt>
<pdfrwt beam="2">  1       -2 0.13000595E+00 0.81317299E+03</pdfrwt>
<totfact> 0.37963402E+00</totfact>
</mgrwt>
</event>
<event>
12    1  0.1335216E-007  0.6974407E+03  0.7818608E-02  0.9721619E-01
         -1   -1    0    0    0  501 -0.00000000000E+00  0.00000000000E+00  0.44393378555E+03  0.44393378555E+03  0.00000000000E+00 0.  1.
          1   -1    0    0  501    0  0.00000000000E+00 -0.00000000000E+00 -0.22971932703E+04  0.22971932703E+04  0.00000000000E+00 0. -1.
         23    2    1    2    0    0 -0.16329096995E+03 -0.64833648076E+03 -0.17010538171E+04  0.18299677822E+04  0.90519954302E+02 0.  0.
    5000000    2    1    2    0    0  0.16329096995E+03  0.64833648076E+03 -0.15220566764E+03  0.91115927363E+03  0.60003376864E+03 0.  0.
         23    2    4    4    0    0  0.16883517920E+03  0.63104015754E+03  0.77658799100E+02  0.66402804968E+03  0.90472998820E+02 0.  0.
         23    2    4    4    0    0 -0.55442092457E+01  0.17296323219E+02 -0.22986446674E+03  0.24713122395E+03  0.88917195922E+02 0.  0.
          2    1    3    3  502    0 -0.14074863909E+03 -0.48924127858E+03 -0.13809347936E+04  0.14717839896E+04  0.00000000000E+00 0. -1.
         -2    1    3    3    0  502 -0.22542330863E+02 -0.15909520219E+03 -0.32011902354E+03  0.35818379258E+03  0.00000000000E+00 0.  1.
         13    1    5    5    0    0  0.12885865300E+03  0.31011637357E+03  0.48603359025E+02  0.33932138766E+03  0.00000000000E+00 0. -1.
        -13    1    5    5    0    0  0.39976526194E+02  0.32092378397E+03  0.29055440075E+02  0.32470666202E+03  0.00000000000E+00 0.  1.
          1    1    6    6  503    0  0.28718606718E+02  0.12375446026E+02 -0.26939630291E+02  0.41275340294E+02  0.00000000000E+00 0. -1.
         -1    1    6    6    0  503 -0.34262815963E+02  0.49208771929E+01 -0.20292483645E+03  0.20585588366E+03  0.00000000000E+00 0.  1.
<mgrwt>
<rscale>  0 0.69744071E+03</rscale>
<asrwt>0</asrwt>
<pdfrwt beam="1">  1        1 0.35341435E+00 0.69744071E+03</pdfrwt>
<pdfrwt beam="2">  1       -1 0.68297506E-01 0.69744071E+03</pdfrwt>
<totfact> 0.43268649E+00</totfact>
</mgrwt>
</event>
<event>
12    1  0.1335216E-007  0.4385856E+03  0.7818608E-02  0.1031182E+00
          1   -1    0    0  501    0  0.00000000000E+00  0.00000000000E+00  0.19260597887E+04  0.19260597887E+04  0.00000000000E+00 0. -1.
         -1   -1    0    0    0  501 -0.00000000000E+00 -0.00000000000E+00 -0.18006636499E+03  0.18006636499E+03  0.00000000000E+00 0.  1.
         23    2    1    2    0    0  0.10356029306E+03  0.32219120289E+03  0.11265332343E+04  0.11796964307E+04  0.89858972746E+02 0.  0.
    5000000    2    1    2    0    0 -0.10356029306E+03 -0.32219120289E+03  0.61946018933E+03  0.92642972297E+03  0.60000766655E+03 0.  0.
         23    2    4    4    0    0  0.85267830810E+02 -0.30517552782E+03  0.69112034502E+02  0.33712173508E+03  0.92042844358E+02 0.  0.
         23    2    4    4    0    0 -0.18882812387E+03 -0.17015675073E+02  0.55034815483E+03  0.58930798790E+03  0.91952267573E+02 0.  0.
          1    1    3    3  502    0  0.90804473852E+01  0.64993922478E+02  0.12278949140E+03  0.13922616020E+03  0.00000000000E+00 0. -1.
         -1    1    3    3    0  502  0.94479845671E+02  0.25719728041E+03  0.10037437429E+04  0.10404702705E+04  0.00000000000E+00 0.  1.
         13    1    5    5    0    0  0.10110987396E+03 -0.28076730728E+03  0.50719865937E+02  0.30269785637E+03  0.00000000000E+00 0. -1.
        -13    1    5    5    0    0 -0.15842043145E+02 -0.24408220538E+02  0.18392168565E+02  0.34423878709E+02  0.00000000000E+00 0.  1.
          3    1    6    6  503    0 -0.10031232340E+03  0.36319520369E+02  0.30330449018E+03  0.32152026927E+03  0.00000000000E+00 0. -1.
         -3    1    6    6    0  503 -0.88515800464E+02 -0.53335195442E+02  0.24704366465E+03  0.26778771863E+03  0.00000000000E+00 0.  1.
<mgrwt>
<rscale>  0 0.43858562E+03</rscale>
<asrwt>0</asrwt>
<pdfrwt beam="1">  1        1 0.29631688E+00 0.43858562E+03</pdfrwt>
<pdfrwt beam="2">  1       -1 0.27702519E-01 0.43858562E+03</pdfrwt>
<totfact> 0.42623750E+01</totfact>
</mgrwt>
</event>
<event>
12    1  0.1335216E-007  0.1104853E+04  0.7818608E-02  0.9200474E-01
         -1   -1    0    0    0  501 -0.00000000000E+00  0.00000000000E+00  0.98803136720E+03  0.98803136720E+03  0.00000000000E+00 0.  1.
          1   -1    0    0  501    0  0.00000000000E+00 -0.00000000000E+00 -0.13787325213E+04  0.13787325213E+04  0.00000000000E+00 0. -1.
         23    2    1    2    0    0 -0.43582360733E+03 -0.93612366534E+03 -0.53130389221E+03  0.11642592830E+04  0.83343378203E+02 0.  0.
    5000000    2    1    2    0    0  0.43582360733E+03  0.93612366534E+03  0.14060273810E+03  0.12025046055E+04  0.59998205206E+03 0.  0.
         23    2    4    4    0    0  0.13981024982E+03  0.85286590754E+03  0.13538582468E+03  0.87908788112E+03  0.86827524467E+02 0.  0.
         23    2    4    4    0    0  0.29601335752E+03  0.83257757795E+02  0.52169134128E+01  0.32341672439E+03  0.10007696721E+03 0.  0.
          2    1    3    3  502    0 -0.10071907979E+03 -0.26140065223E+03 -0.18034138620E+03  0.33316309759E+03  0.00000000000E+00 0. -1.
         -2    1    3    3    0  502 -0.33510452755E+03 -0.67472301311E+03 -0.35096250601E+03  0.83109618542E+03  0.00000000000E+00 0.  1.
         11    1    5    5    0    0  0.40698051259E+02  0.28289006602E+03  0.40150258507E+01  0.28583079132E+03  0.00000000000E+00 0.  1.
        -11    1    5    5    0    0  0.99112198559E+02  0.56997584152E+03  0.13137079883E+03  0.59325708980E+03  0.00000000000E+00 0. -1.
          3    1    6    6  503    0  0.26830254614E+03  0.90655457838E+02  0.30941086449E+02  0.28488948582E+03  0.00000000000E+00 0. -1.
         -3    1    6    6    0  503  0.27710811380E+02 -0.73977000424E+01 -0.25724173037E+02  0.38527238568E+02  0.00000000000E+00 0.  1.
<mgrwt>
<rscale>  0 0.11048535E+04</rscale>
<asrwt>0</asrwt>
<pdfrwt beam="1">  1        1 0.21211269E+00 0.11048535E+04</pdfrwt>
<pdfrwt beam="2">  1       -1 0.15200483E+00 0.11048535E+04</pdfrwt>
<totfact> 0.26540064E+00</totfact>
</mgrwt>
</event>
<event>
12    1  0.1335216E-007  0.7609213E+03  0.7818608E-02  0.9618371E-01
         -3   -1    0    0    0  501 -0.00000000000E+00  0.00000000000E+00  0.12064983285E+04  0.12064983285E+04  0.00000000000E+00 0.  1.
          3   -1    0    0  501    0  0.00000000000E+00 -0.00000000000E+00 -0.10498137002E+04  0.10498137002E+04  0.00000000000E+00 0. -1.
         23    2    1    2    0    0  0.62216733188E+03 -0.25692704988E+03 -0.72643535250E+03  0.99439115793E+03  0.89452533736E+02 0.  0.
    5000000    2    1    2    0    0 -0.62216733188E+03  0.25692704988E+03  0.88311998083E+03  0.12619208708E+04  0.59953288969E+03 0.  0.
         23    2    4    4    0    0  0.61741585749E+02 -0.10789495505E+01  0.30233769205E+03  0.32367718777E+03  0.97701864390E+02 0.  0.
         23    2    4    4    0    0 -0.68390891763E+03  0.25800599943E+03  0.58078228878E+03  0.93824368303E+03  0.93245045119E+02 0.  0.
          2    1    3    3  502    0  0.24177975679E+03 -0.75773426433E+02 -0.21951113023E+03  0.33523752660E+03  0.00000000000E+00 0.  1.
         -2    1    3    3    0  502  0.38038757509E+03 -0.18115362344E+03 -0.50692422228E+03  0.65915363133E+03  0.00000000000E+00 0. -1.
         13    1    5    5    0    0  0.13791631221E+02  0.45779090168E+02  0.14402093592E+03  0.15174967602E+03  0.00000000000E+00 0.  1.
        -13    1    5    5    0    0  0.47949954528E+02 -0.46858039718E+02  0.15831675613E+03  0.17192751175E+03  0.00000000000E+00 0. -1.
          4    1    6    6  503    0 -0.31796118175E+03  0.96443863812E+02  0.21179949607E+03  0.39403014923E+03  0.00000000000E+00 0. -1.
         -4    1    6    6    0  503 -0.36594773588E+03  0.16156213562E+03  0.36898279270E+03  0.54421353380E+03  0.00000000000E+00 0.  1.
<mgrwt>
<rscale>  0 0.76092135E+03</rscale>
<asrwt>0</asrwt>
<pdfrwt beam="1">  1        3 0.16150980E+00 0.76092135E+03</pdfrwt>
<pdfrwt beam="2">  1       -3 0.18561513E+00 0.76092135E+03</pdfrwt>
<totfact> 0.12496039E-01</totfact>
</mgrwt>
</event>
<event>
12    1  0.1335216E-007  0.3256986E+03  0.7818608E-02  0.1073056E+00
          2   -1    0    0  501    0  0.00000000000E+00  0.00000000000E+00  0.10373738571E+04  0.10373738571E+04  0.00000000000E+00 0. -1.
         -2   -1    0    0    0  501 -0.00000000000E+00 -0.00000000000E+00 -0.29612519250E+03  0.29612519250E+03  0.00000000000E+00 0.  1.
         23    2    1    2    0    0  0.19613395791E+03  0.23374283240E+02 -0.13250686466E+03  0.25529716437E+03  0.92756058511E+02 0.  0.
    5000000    2    1    2    0    0 -0.19613395791E+03 -0.23374283240E+02  0.87375552923E+03  0.10782018852E+04  0.60004640973E+03 0.  0.
         23    2    4    4    0    0  0.97762347702E+02  0.25245886222E+02  0.71732141870E+03  0.72986974058E+03  0.89246787568E+02 0.  0.
         23    2    4    4    0    0 -0.29389630561E+03 -0.48620169463E+02  0.15643411053E+03  0.34833214462E+03  0.90137077322E+02 0.  0.
          1    1    3    3  502    0  0.17535233167E+03  0.51930748220E+02 -0.11227888771E+03  0.21459681139E+03  0.00000000000E+00 0. -1.
         -1    1    3    3    0  502  0.20781626244E+02 -0.28556464980E+02 -0.20227976950E+02  0.40700352984E+02  0.00000000000E+00 0.  1.
         11    1    5    5    0    0  0.65550557534E+02  0.49644482616E+02  0.60374675186E+03  0.60932059757E+03  0.00000000000E+00 0. -1.
        -11    1    5    5    0    0  0.32211790168E+02 -0.24398596394E+02  0.11357466684E+03  0.12054914300E+03  0.00000000000E+00 0.  1.
          2    1    6    6  503    0 -0.24690028540E+03 -0.57765481717E+01  0.11499232851E+03  0.27242678843E+03  0.00000000000E+00 0. -1.
         -2    1    6    6    0  503 -0.46996020212E+02 -0.42843621291E+02  0.41441782023E+02  0.75905356190E+02  0.00000000000E+00 0.  1.
<mgrwt>
<rscale>  0 0.32569859E+03</rscale>
<asrwt>0</asrwt>
<pdfrwt beam="1">  1        2 0.15959598E+00 0.32569859E+03</pdfrwt>
<pdfrwt beam="2">  1       -2 0.45557722E-01 0.32569859E+03</pdfrwt>
<totfact> 0.11545949E+02</totfact>
</mgrwt>
</event>
<event>
12    1  0.1335216E-007  0.6935613E+03  0.7818608E-02  0.9728307E-01
         -2   -1    0    0    0  501 -0.00000000000E+00  0.00000000000E+00  0.27216606608E+03  0.27216606608E+03  0.00000000000E+00 0.  1.
          2   -1    0    0  501    0  0.00000000000E+00 -0.00000000000E+00 -0.18276558053E+04  0.18276558053E+04  0.00000000000E+00 0. -1.
         23    2    1    2    0    0  0.39065486502E+03  0.41158754811E+03 -0.54022871389E+03  0.79107533396E+03  0.10925926677E+03 0.  0.
    5000000    2    1    2    0    0 -0.39065486502E+03 -0.41158754811E+03 -0.10152610254E+04  0.13087465374E+04  0.60003917899E+03 0.  0.
         23    2    4    4    0    0 -0.10055073592E+03 -0.48951934628E+03 -0.67834422166E+03  0.84739266135E+03  0.90464349700E+02 0.  0.
         23    2    4    4    0    0 -0.29010412910E+03  0.77931798175E+02 -0.33691680369E+03  0.46135387609E+03  0.95397565378E+02 0.  0.
          3    1    3    3  502    0  0.24565088509E+03  0.24779010176E+03 -0.40199394080E+03  0.53230012240E+03  0.00000000000E+00 0. -1.
         -3    1    3    3    0  502  0.14500397993E+03  0.16379744635E+03 -0.13823477309E+03  0.25877521156E+03  0.00000000000E+00 0.  1.
         13    1    5    5    0    0 -0.86839992940E+01 -0.26534135035E+03 -0.34597717569E+03  0.43609821158E+03  0.00000000000E+00 0. -1.
        -13    1    5    5    0    0 -0.91866736622E+02 -0.22417799593E+03 -0.33236704598E+03  0.41129444977E+03  0.00000000000E+00 0.  1.
          1    1    6    6  503    0 -0.27673864280E+03  0.50685764525E+02 -0.32181748718E+03  0.42745738758E+03  0.00000000000E+00 0. -1.
         -1    1    6    6    0  503 -0.13365486306E+02  0.27246033650E+02 -0.15099316513E+02  0.33896488506E+02  0.00000000000E+00 0.  1.
<mgrwt>
<rscale>  0 0.69356126E+03</rscale>
<asrwt>0</asrwt>
<pdfrwt beam="1">  1        2 0.28117781E+00 0.69356126E+03</pdfrwt>
<pdfrwt beam="2">  1       -2 0.41871703E-01 0.69356126E+03</pdfrwt>
<totfact> 0.46564136E+01</totfact>
</mgrwt>
</event>
<event>
12    1  0.1335216E-007  0.1257359E+04  0.7818608E-02  0.9064080E-01
          2   -1    0    0  501    0  0.00000000000E+00  0.00000000000E+00  0.37406193301E+04  0.37406193301E+04  0.00000000000E+00 0. -1.
         -2   -1    0    0    0  501 -0.00000000000E+00 -0.00000000000E+00 -0.47209977555E+03  0.47209977555E+03  0.00000000000E+00 0.  1.
         23    2    1    2    0    0 -0.64424758079E+03 -0.10711550922E+04  0.17973166848E+04  0.21911406872E+04  0.91225374782E+02 0.  0.
    5000000    2    1    2    0    0  0.64424758079E+03  0.10711550922E+04  0.14712028698E+04  0.20215784184E+04  0.59992769653E+03 0.  0.
         23    2    4    4    0    0  0.12495346592E+03  0.32682087943E+03  0.83494121000E+03  0.90994835047E+03  0.91945203733E+02 0.  0.
         23    2    4    4    0    0  0.51929411487E+03  0.74433421273E+03  0.63626165976E+03  0.11116300680E+04  0.84809848151E+02 0.  0.
          1    1    3    3  502    0 -0.30262453867E+03 -0.57969473259E+03  0.89847864470E+03  0.11112567072E+04  0.00000000000E+00 0. -1.
         -1    1    3    3    0  502 -0.34162304212E+03 -0.49146035957E+03  0.89883804011E+03  0.10798839800E+04  0.00000000000E+00 0.  1.
         13    1    5    5    0    0  0.27725413549E+02  0.11515121115E+03  0.18641918724E+03  0.22086333638E+03  0.00000000000E+00 0. -1.
        -13    1    5    5    0    0  0.97228052375E+02  0.21166966828E+03  0.64852202276E+03  0.68908501409E+03  0.00000000000E+00 0.  1.
          1    1    6    6  503    0  0.33893836184E+03  0.54741668595E+03  0.46869628691E+03  0.79637958949E+03  0.00000000000E+00 0. -1.
         -1    1    6    6    0  503  0.18035575302E+03  0.19691752677E+03  0.16756537285E+03  0.31525047847E+03  0.00000000000E+00 0.  1.
<mgrwt>
<rscale>  0 0.12573591E+04</rscale>
<asrwt>0</asrwt>
<pdfrwt beam="1">  1        2 0.57547988E+00 0.12573591E+04</pdfrwt>
<pdfrwt beam="2">  1       -2 0.72630737E-01 0.12573591E+04</pdfrwt>
<totfact> 0.93538661E-01</totfact>
</mgrwt>
</event>
<event>
12    1  0.1335216E-007  0.8254080E+03  0.7818608E-02  0.9523951E-01
         -1   -1    0    0    0  501 -0.00000000000E+00  0.00000000000E+00  0.20051532890E+04  0.20051532890E+04  0.00000000000E+00 0.  1.
          1   -1    0    0  501    0  0.00000000000E+00 -0.00000000000E+00 -0.56746169223E+03  0.56746169223E+03  0.00000000000E+00 0. -1.
         23    2    1    2    0    0  0.73394540187E+03 -0.11953274100E+03  0.14330778365E+04  0.16171592022E+04  0.92346470325E+02 0.  0.
    5000000    2    1    2    0    0 -0.73394540187E+03  0.11953274100E+03  0.46137602677E+01  0.95545577906E+03  0.59992543691E+03 0.  0.
         23    2    4    4    0    0 -0.39245628002E+03  0.31332774973E+03  0.14211497890E+03  0.52888012336E+03  0.85564637450E+02 0.  0.
         23    2    4    4    0    0 -0.34148912186E+03 -0.19379500873E+03 -0.13750121863E+03  0.42657565570E+03  0.94280852546E+02 0.  0.
          2    1    3    3  502    0  0.48660528009E+03 -0.69618704860E+02  0.85146937039E+03  0.98317422230E+03  0.00000000000E+00 0. -1.
         -2    1    3    3    0  502  0.24734012178E+03 -0.49914036141E+02  0.58160846612E+03  0.63398497988E+03  0.00000000000E+00 0.  1.
         13    1    5    5    0    0 -0.26667286646E+03  0.19289893824E+03  0.13147735200E+03  0.35441601567E+03  0.00000000000E+00 0. -1.
        -13    1    5    5    0    0 -0.12578341356E+03  0.12042881149E+03  0.10637626897E+02  0.17446410768E+03  0.00000000000E+00 0.  1.
          1    1    6    6  503    0 -0.18940020695E+03 -0.15983268992E+03 -0.89952145531E+02  0.26364809054E+03  0.00000000000E+00 0. -1.
         -1    1    6    6    0  503 -0.15208891491E+03 -0.33962318810E+02 -0.47549073101E+02  0.16292756516E+03  0.00000000000E+00 0.  1.
<mgrwt>
<rscale>  0 0.82540798E+03</rscale>
<asrwt>0</asrwt>
<pdfrwt beam="1">  1        1 0.87301800E-01 0.82540798E+03</pdfrwt>
<pdfrwt beam="2">  1       -1 0.30848512E+00 0.82540798E+03</pdfrwt>
<totfact> 0.11252511E+00</totfact>
</mgrwt>
</event>
<event>
12    1  0.1335216E-007  0.4388412E+03  0.7818608E-02  0.1031103E+00
         -1   -1    0    0    0  501 -0.00000000000E+00  0.00000000000E+00  0.11757894767E+03  0.11757894767E+03  0.00000000000E+00 0.  1.
          1   -1    0    0  501    0  0.00000000000E+00 -0.00000000000E+00 -0.25951612741E+04  0.25951612741E+04  0.00000000000E+00 0. -1.
         23    2    1    2    0    0 -0.37550887619E+03 -0.34467816407E+02 -0.73417016193E+03  0.83061665132E+03  0.93398331444E+02 0.  0.
    5000000    2    1    2    0    0  0.37550887619E+03  0.34467816407E+02 -0.17434121645E+04  0.18821235704E+04  0.60058988723E+03 0.  0.
         23    2    4    4    0    0  0.29998290717E+03 -0.11013901788E+03 -0.16336240528E+04  0.16672079168E+04  0.93457712576E+02 0.  0.
         23    2    4    4    0    0  0.75525969013E+02  0.14460683429E+03 -0.10978811166E+03  0.21491565362E+03  0.86717934664E+02 0.  0.
          3    1    3    3  502    0 -0.63152539712E+02 -0.18106580096E+02 -0.21186432463E+03  0.22181655386E+03  0.00000000000E+00 0. -1.
         -3    1    3    3    0  502 -0.31235633647E+03 -0.16361236310E+02 -0.52230583730E+03  0.60880009746E+03  0.00000000000E+00 0.  1.
         13    1    5    5    0    0  0.23415881102E+03 -0.46290443501E+02 -0.12671283653E+04  0.12894136063E+04  0.00000000000E+00 0. -1.
        -13    1    5    5    0    0  0.65824096156E+02 -0.63848574383E+02 -0.36649568755E+03  0.37779431055E+03  0.00000000000E+00 0.  1.
          2    1    6    6  503    0  0.80547926279E+02  0.12609074986E+03 -0.12123597702E+03  0.19257468097E+03  0.00000000000E+00 0. -1.
         -2    1    6    6    0  503 -0.50219572669E+01  0.18516084433E+02  0.11447865366E+02  0.22340972650E+02  0.00000000000E+00 0.  1.
<mgrwt>
<rscale>  0 0.43884122E+03</rscale>
<asrwt>0</asrwt>
<pdfrwt beam="1">  1        1 0.39925558E+00 0.43884122E+03</pdfrwt>
<pdfrwt beam="2">  1       -1 0.18089069E-01 0.43884122E+03</pdfrwt>
<totfact> 0.31129534E+01</totfact>
</mgrwt>
</event>
<event>
12    1  0.1335216E-007  0.5453302E+03  0.7818608E-02  0.1002581E+00
         -2   -1    0    0    0  501 -0.00000000000E+00  0.00000000000E+00  0.95529538414E+02  0.95529538414E+02  0.00000000000E+00 0.  1.
          2   -1    0    0  501    0  0.00000000000E+00 -0.00000000000E+00 -0.47828390725E+04  0.47828390725E+04  0.00000000000E+00 0. -1.
         23    2    1    2    0    0  0.72010589679E+02  0.42975377801E+03 -0.75309722750E+03  0.87487547632E+03  0.91530488160E+02 0.  0.
    5000000    2    1    2    0    0 -0.72010589679E+02 -0.42975377801E+03 -0.39342123066E+04  0.40034931346E+04  0.60004747371E+03 0.  0.
         23    2    4    4    0    0  0.49759070213E+02 -0.48562516336E+03 -0.19293541578E+04  0.19921932468E+04  0.90103838959E+02 0.  0.
         23    2    4    4    0    0 -0.12176965989E+03  0.55871385356E+02 -0.20048581488E+04  0.20112998878E+04  0.89003260262E+02 0.  0.
          4    1    3    3  502    0  0.32976522458E+02  0.37286524232E+03 -0.60393627132E+03  0.71053146291E+03  0.00000000000E+00 0. -1.
         -4    1    3    3    0  502  0.39034067221E+02  0.56888535681E+02 -0.14916095618E+03  0.16434401341E+03  0.00000000000E+00 0.  1.
         13    1    5    5    0    0  0.57158583947E+02 -0.23862654831E+03 -0.10863875623E+04  0.11137538636E+04  0.00000000000E+00 0. -1.
        -13    1    5    5    0    0 -0.73995137336E+01 -0.24699861505E+03 -0.84296659553E+03  0.87843938312E+03  0.00000000000E+00 0.  1.
          4    1    6    6  503    0 -0.84970636447E+02  0.75045946870E+02 -0.16767950704E+04  0.16806229831E+04  0.00000000000E+00 0. -1.
         -4    1    6    6    0  503 -0.36799023445E+02 -0.19174561514E+02 -0.32806307838E+03  0.33067690474E+03  0.00000000000E+00 0.  1.
<mgrwt>
<rscale>  0 0.54533024E+03</rscale>
<asrwt>0</asrwt>
<pdfrwt beam="1">  1        2 0.73582146E+00 0.54533024E+03</pdfrwt>
<pdfrwt beam="2">  1       -2 0.14696851E-01 0.54533024E+03</pdfrwt>
<totfact> 0.27639573E+00</totfact>
</mgrwt>
</event>
<event>
12    1  0.1335216E-007  0.3881990E+03  0.7818608E-02  0.1047944E+00
          2   -1    0    0  501    0  0.00000000000E+00  0.00000000000E+00  0.62497664108E+03  0.62497664108E+03  0.00000000000E+00 0. -1.
         -2   -1    0    0    0  501 -0.00000000000E+00 -0.00000000000E+00 -0.31284065666E+03  0.31284065666E+03  0.00000000000E+00 0.  1.
         23    2    1    2    0    0 -0.15662284008E+03  0.11309904741E+03 -0.35275562494E+02  0.21791601119E+03  0.94450590598E+02 0.  0.
    5000000    2    1    2    0    0  0.15662284008E+03 -0.11309904741E+03  0.34741154692E+03  0.71990128656E+03  0.60020077549E+03 0.  0.
         23    2    4    4    0    0  0.30926366640E+03 -0.22809236628E+03  0.12929900034E+03  0.41552859688E+03  0.90970547021E+02 0.  0.
         23    2    4    4    0    0 -0.15264082632E+03  0.11499331888E+03  0.21811254658E+03  0.30437268968E+03  0.92449802594E+02 0.  0.
          3    1    3    3  502    0 -0.89038380933E+01  0.15130446369E+02  0.25127954019E+02  0.30653267579E+02  0.00000000000E+00 0. -1.
         -3    1    3    3    0  502 -0.14771900198E+03  0.97968601037E+02 -0.60403516514E+02  0.18726274361E+03  0.00000000000E+00 0.  1.
         13    1    5    5    0    0  0.24316829246E+03 -0.15246354724E+03  0.59223561214E+02  0.29305866631E+03  0.00000000000E+00 0.  1.
        -13    1    5    5    0    0  0.66095373936E+02 -0.75628819042E+02  0.70075439122E+02  0.12246993057E+03  0.00000000000E+00 0. -1.
          2    1    6    6  503    0  0.18232881340E+01  0.22849772590E+01  0.49054450001E+02  0.49141475004E+02  0.00000000000E+00 0. -1.
         -2    1    6    6    0  503 -0.15446411446E+03  0.11270834162E+03  0.16905809658E+03  0.25523121467E+03  0.00000000000E+00 0.  1.
<mgrwt>
<rscale>  0 0.38819901E+03</rscale>
<asrwt>0</asrwt>
<pdfrwt beam="1">  1        2 0.96150252E-01 0.38819901E+03</pdfrwt>
<pdfrwt beam="2">  1       -2 0.48129332E-01 0.38819901E+03</pdfrwt>
<totfact> 0.19911033E+02</totfact>
</mgrwt>
</event>
<event>
12    1  0.1335216E-007  0.1121365E+04  0.7818608E-02  0.9184614E-01
         -2   -1    0    0    0  501 -0.00000000000E+00  0.00000000000E+00  0.10048653471E+04  0.10048653471E+04  0.00000000000E+00 0.  1.
          2   -1    0    0  501    0  0.00000000000E+00 -0.00000000000E+00 -0.13852409310E+04  0.13852409310E+04  0.00000000000E+00 0. -1.
         23    2    1    2    0    0  0.86367598198E+03 -0.62150912046E+03  0.11016941408E+03  0.10737096438E+04  0.92224241030E+02 0.  0.
    5000000    2    1    2    0    0 -0.86367598198E+03  0.62150912046E+03 -0.49054499801E+03  0.13163966344E+04  0.60004659420E+03 0.  0.
         23    2    4    4    0    0 -0.11363403912E+03  0.35900369051E+03 -0.18806269429E+02  0.38825736524E+03  0.92702541758E+02 0.  0.
         23    2    4    4    0    0 -0.75004194287E+03  0.26250542995E+03 -0.47173872858E+03  0.92813926912E+03  0.86215184411E+02 0.  0.
          1    1    3    3  502    0  0.71742187944E+03 -0.55239973815E+03  0.10862143566E+03  0.91194201575E+03  0.00000000000E+00 0. -1.
         -1    1    3    3    0  502  0.14625410254E+03 -0.69109382309E+02  0.15479784163E+01  0.16176762801E+03  0.00000000000E+00 0.  1.
         13    1    5    5    0    0 -0.57899029156E+02  0.13745160865E+03 -0.50822990493E+02  0.15756972634E+03  0.00000000000E+00 0. -1.
        -13    1    5    5    0    0 -0.55735009962E+02  0.22155208186E+03  0.32016721064E+02  0.23068763890E+03  0.00000000000E+00 0.  1.
          4    1    6    6  503    0 -0.38482371600E+03  0.17281809266E+03 -0.22196043188E+03  0.47667789844E+03  0.00000000000E+00 0. -1.
         -4    1    6    6    0  503 -0.36521822687E+03  0.89687337293E+02 -0.24977829671E+03  0.45146137067E+03  0.00000000000E+00 0.  1.
<mgrwt>
<rscale>  0 0.11213653E+04</rscale>
<asrwt>0</asrwt>
<pdfrwt beam="1">  1        2 0.21311399E+00 0.11213653E+04</pdfrwt>
<pdfrwt beam="2">  1       -2 0.15459467E+00 0.11213653E+04</pdfrwt>
<totfact> 0.39948418E+00</totfact>
</mgrwt>
</event>
<event>
12    1  0.1335216E-007  0.6481156E+03  0.7818608E-02  0.9810321E-01
         -1   -1    0    0    0  501 -0.00000000000E+00  0.00000000000E+00  0.65732282746E+03  0.65732282746E+03  0.00000000000E+00 0.  1.
          1   -1    0    0  501    0  0.00000000000E+00 -0.00000000000E+00 -0.69144330821E+03  0.69144330821E+03  0.00000000000E+00 0. -1.
         23    2    1    2    0    0  0.10327619266E+03 -0.52511018499E+03  0.16737084403E+02  0.54310968248E+03  0.91001751951E+02 0.  0.
    5000000    2    1    2    0    0 -0.10327619266E+03  0.52511018499E+03 -0.50857565149E+02  0.80565645319E+03  0.60007428731E+03 0.  0.
         23    2    4    4    0    0  0.21291564490E+03  0.28108450522E+03  0.84245132821E+02  0.37412266781E+03  0.92352353790E+02 0.  0.
         23    2    4    4    0    0 -0.31619183756E+03  0.24402567977E+03 -0.13510269797E+03  0.43153378538E+03  0.91885028183E+02 0.  0.
          4    1    3    3  502    0  0.37350504661E+02 -0.38100778202E+03 -0.68605115279E+01  0.38289562126E+03  0.00000000000E+00 0. -1.
         -4    1    3    3    0  502  0.65925688001E+02 -0.14410240296E+03  0.23597595930E+02  0.16021406122E+03  0.00000000000E+00 0.  1.
         11    1    5    5    0    0  0.13025966524E+03  0.13833469538E+03  0.87380675022E+02  0.20913978747E+03  0.00000000000E+00 0. -1.
        -11    1    5    5    0    0  0.82655979654E+02  0.14274980984E+03 -0.31355422013E+01  0.16498288034E+03  0.00000000000E+00 0.  1.
          1    1    6    6  503    0 -0.16381190708E+03  0.11306356744E+03 -0.20174097216E+02  0.20006175392E+03  0.00000000000E+00 0. -1.
         -1    1    6    6    0  503 -0.15237993047E+03  0.13096211233E+03 -0.11492860075E+03  0.23147203146E+03  0.00000000000E+00 0.  1.
<mgrwt>
<rscale>  0 0.64811565E+03</rscale>
<asrwt>0</asrwt>
<pdfrwt beam="1">  1        1 0.10637589E+00 0.64811565E+03</pdfrwt>
<pdfrwt beam="2">  1       -1 0.10112659E+00 0.64811565E+03</pdfrwt>
<totfact> 0.26749032E+01</totfact>
</mgrwt>
</event>
<event>
12    1  0.1335216E-007  0.1098765E+04  0.7818608E-02  0.9206396E-01
          1   -1    0    0  501    0  0.00000000000E+00  0.00000000000E+00  0.39552923399E+04  0.39552923399E+04  0.00000000000E+00 0. -1.
         -1   -1    0    0    0  501 -0.00000000000E+00 -0.00000000000E+00 -0.32504952428E+03  0.32504952428E+03  0.00000000000E+00 0.  1.
         23    2    1    2    0    0 -0.40637454939E+03 -0.96194814809E+03  0.19373370940E+04  0.22027568234E+04  0.91531925711E+02 0.  0.
    5000000    2    1    2    0    0  0.40637454939E+03  0.96194814809E+03  0.16929057217E+04  0.20775850408E+04  0.59995441923E+03 0.  0.
         23    2    4    4    0    0 -0.74209167476E+02  0.33624153986E+03  0.27510340443E+03  0.45215360469E+03  0.10097338978E+03 0.  0.
         23    2    4    4    0    0  0.48058371687E+03  0.62570660823E+03  0.14178023172E+04  0.16254314361E+04  0.96925095373E+02 0.  0.
          1    1    3    3  502    0 -0.19130823056E+03 -0.44381400445E+03  0.80151651439E+03  0.93594787914E+03  0.00000000000E+00 0. -1.
         -1    1    3    3    0  502 -0.21506631883E+03 -0.51813414365E+03  0.11358205796E+04  0.12668089443E+04  0.00000000000E+00 0.  1.
         13    1    5    5    0    0 -0.47643873645E+02  0.42427691027E+02  0.50905940758E+02  0.81617782782E+02  0.00000000000E+00 0.  1.
        -13    1    5    5    0    0 -0.26565293830E+02  0.29381384884E+03  0.22419746367E+03  0.37053582191E+03  0.00000000000E+00 0. -1.
          4    1    6    6  503    0  0.43694073405E+03  0.51468514979E+03  0.12241791909E+04  0.13980102646E+04  0.00000000000E+00 0.  1.
         -4    1    6    6    0  503  0.43642982817E+02  0.11102145844E+03  0.19362312634E+03  0.22742117148E+03  0.00000000000E+00 0. -1.
<mgrwt>
<rscale>  0 0.10987651E+04</rscale>
<asrwt>0</asrwt>
<pdfrwt beam="1">  1        1 0.60850648E+00 0.10987651E+04</pdfrwt>
<pdfrwt beam="2">  1       -1 0.50007622E-01 0.10987651E+04</pdfrwt>
<totfact> 0.43602288E-01</totfact>
</mgrwt>
</event>
<event>
12    1  0.1335216E-007  0.1300530E+04  0.7818608E-02  0.9029145E-01
          1   -1    0    0  501    0  0.00000000000E+00  0.00000000000E+00  0.21723122188E+04  0.21723122188E+04  0.00000000000E+00 0. -1.
         -1   -1    0    0    0  501 -0.00000000000E+00 -0.00000000000E+00 -0.83032850896E+03  0.83032850896E+03  0.00000000000E+00 0.  1.
         23    2    1    2    0    0  0.10305494702E+04 -0.72691702357E+03  0.84268511488E+03  0.15195023985E+04  0.91262075598E+02 0.  0.
    5000000    2    1    2    0    0 -0.10305494702E+04  0.72691702357E+03  0.49929859493E+03  0.14831383293E+04  0.59996637168E+03 0.  0.
         23    2    4    4    0    0 -0.10144562984E+03 -0.59979110606E+02  0.15348853078E+03  0.21409679735E+03  0.91596943359E+02 0.  0.
         23    2    4    4    0    0 -0.92910384036E+03  0.78689613418E+03  0.34581006416E+03  0.12690415319E+04  0.91882191393E+02 0.  0.
          3    1    3    3  502    0  0.21042249052E+03 -0.18367997101E+03  0.15733418127E+03  0.32057760505E+03  0.00000000000E+00 0. -1.
         -3    1    3    3    0  502  0.82012697968E+03 -0.54323705256E+03  0.68535093361E+03  0.11989247934E+04  0.00000000000E+00 0.  1.
         11    1    5    5    0    0 -0.22606186158E+02 -0.31843488352E+01 -0.91894954136E+01  0.24609481020E+02  0.00000000000E+00 0. -1.
        -11    1    5    5    0    0 -0.78839443680E+02 -0.56794761771E+02  0.16267802619E+03  0.18948731633E+03  0.00000000000E+00 0.  1.
          2    1    6    6  503    0 -0.72911004241E+03  0.59897903143E+03  0.30456065725E+03  0.99153140545E+03  0.00000000000E+00 0.  1.
         -2    1    6    6    0  503 -0.19999379795E+03  0.18791710275E+03  0.41249406905E+02  0.27751012647E+03  0.00000000000E+00 0. -1.
<mgrwt>
<rscale>  0 0.13005297E+04</rscale>
<asrwt>0</asrwt>
<pdfrwt beam="1">  1        1 0.33420188E+00 0.13005297E+04</pdfrwt>
<pdfrwt beam="2">  1       -1 0.12774285E+00 0.13005297E+04</pdfrwt>
<totfact> 0.11737296E+00</totfact>
</mgrwt>
</event>
<event>
12    1  0.1335216E-007  0.9024041E+03  0.7818608E-02  0.9422581E-01
          1   -1    0    0  501    0  0.00000000000E+00  0.00000000000E+00  0.12824229463E+04  0.12824229463E+04  0.00000000000E+00 0. -1.
         -1   -1    0    0    0  501 -0.00000000000E+00 -0.00000000000E+00 -0.70063767171E+03  0.70063767171E+03  0.00000000000E+00 0.  1.
         23    2    1    2    0    0  0.47660270148E+03  0.69983720803E+03  0.17980589580E+03  0.87020389490E+03  0.89456166575E+02 0.  0.
    5000000    2    1    2    0    0 -0.47660270148E+03 -0.69983720803E+03  0.40197937881E+03  0.11128567231E+04  0.59995034163E+03 0.  0.
         23    2    4    4    0    0 -0.33734854422E+03 -0.15131040942E+03 -0.47490901438E+02  0.38421766338E+03  0.93107179345E+02 0.  0.
         23    2    4    4    0    0 -0.13925415726E+03 -0.54852679861E+03  0.44947028025E+03  0.72863905975E+03  0.92833062325E+02 0.  0.
          3    1    3    3  502    0  0.36200607984E+03  0.59133043506E+03  0.15492734196E+03  0.71043829187E+03  0.00000000000E+00 0. -1.
         -3    1    3    3    0  502  0.11459662164E+03  0.10850677298E+03  0.24878553845E+02  0.15976560304E+03  0.00000000000E+00 0.  1.
         11    1    5    5    0    0 -0.81182539240E+02 -0.83059450088E+02 -0.12450044873E+02  0.11680959098E+03  0.00000000000E+00 0. -1.
        -11    1    5    5    0    0 -0.25616600498E+03 -0.68250959334E+02 -0.35040856566E+02  0.26740807241E+03  0.00000000000E+00 0.  1.
          4    1    6    6  503    0 -0.10123237956E+02 -0.20753655798E+03  0.14184215028E+03  0.25158119652E+03  0.00000000000E+00 0. -1.
         -4    1    6    6    0  503 -0.12913091930E+03 -0.34099024063E+03  0.30762812997E+03  0.47705786323E+03  0.00000000000E+00 0.  1.
<mgrwt>
<rscale>  0 0.90240409E+03</rscale>
<asrwt>0</asrwt>
<pdfrwt beam="1">  1        1 0.19729584E+00 0.90240409E+03</pdfrwt>
<pdfrwt beam="2">  1       -1 0.10779041E+00 0.90240409E+03</pdfrwt>
<totfact> 0.75709412E+00</totfact>
</mgrwt>
</event>
<event>
12    1  0.1335216E-007  0.8387486E+03  0.7818608E-02  0.9505564E-01
          2   -1    0    0  501    0  0.00000000000E+00  0.00000000000E+00  0.17930245085E+04  0.17930245085E+04  0.00000000000E+00 0.  1.
         -2   -1    0    0    0  501 -0.00000000000E+00 -0.00000000000E+00 -0.57586238469E+03  0.57586238469E+03  0.00000000000E+00 0. -1.
         23    2    1    2    0    0 -0.81721954447E+03  0.56555054252E+02  0.10578620367E+04  0.13410568124E+04  0.91186772812E+02 0.  0.
    5000000    2    1    2    0    0  0.81721954447E+03 -0.56555054252E+02  0.15930008720E+03  0.10278300808E+04  0.60000991591E+03 0.  0.
         23    2    4    4    0    0  0.52346417881E+03  0.46585103063E+02  0.36253204931E+03  0.64449603023E+03  0.88094993534E+02 0.  0.
         23    2    4    4    0    0  0.29375536567E+03 -0.10314015732E+03 -0.20323196210E+03  0.38333405057E+03  0.93336257683E+02 0.  0.
          4    1    3    3  502    0 -0.45056467087E+03  0.13706302497E+02  0.51288682004E+03  0.68282448369E+03  0.00000000000E+00 0.  1.
         -4    1    3    3    0  502 -0.36665487360E+03  0.42848751755E+02  0.54497521662E+03  0.65823232874E+03  0.00000000000E+00 0. -1.
         13    1    5    5    0    0  0.15371865395E+03  0.53695597952E+02  0.11950487311E+03  0.20197538590E+03  0.00000000000E+00 0. -1.
        -13    1    5    5    0    0  0.36974552486E+03 -0.71104948887E+01  0.24302717620E+03  0.44252064433E+03  0.00000000000E+00 0.  1.
          3    1    6    6  503    0 -0.47041856242E+01 -0.11966864750E+02 -0.63078716320E+01  0.14322166695E+02  0.00000000000E+00 0. -1.
         -3    1    6    6    0  503  0.29845955129E+03 -0.91173292566E+02 -0.19692409047E+03  0.36901188388E+03  0.00000000000E+00 0.  1.
<mgrwt>
<rscale>  0 0.83874860E+03</rscale>
<asrwt>0</asrwt>
<pdfrwt beam="1">  1        2 0.27584992E+00 0.83874860E+03</pdfrwt>
<pdfrwt beam="2">  1       -2 0.88594214E-01 0.83874860E+03</pdfrwt>
<totfact> 0.97138757E+00</totfact>
</mgrwt>
</event>
<event>
12    1  0.1335216E-007  0.1088421E+04  0.7818608E-02  0.9216552E-01
          1   -1    0    0  501    0  0.00000000000E+00  0.00000000000E+00  0.74425880706E+03  0.74425880706E+03  0.00000000000E+00 0. -1.
         -1   -1    0    0    0  501 -0.00000000000E+00 -0.00000000000E+00 -0.16278790404E+04  0.16278790404E+04  0.00000000000E+00 0.  1.
         23    2    1    2    0    0  0.15041091060E+03  0.99902023821E+03 -0.54123031438E+03  0.11482819056E+04  0.70400306314E+02 0.  0.
    5000000    2    1    2    0    0 -0.15041091060E+03 -0.99902023821E+03 -0.34238991898E+03  0.12238559419E+04  0.59993968992E+03 0.  0.
         23    2    4    4    0    0  0.92342839037E+02  0.11116296380E+02 -0.15609759681E+02  0.13103414670E+03  0.90969835861E+02 0.  0.
         23    2    4    4    0    0 -0.24275374964E+03 -0.10101365346E+04 -0.32678015930E+03  0.10928217952E+04  0.90382532035E+02 0.  0.
          1    1    3    3  502    0  0.38360549956E+02  0.27195925599E+03 -0.11230911776E+03  0.29672665307E+03  0.00000000000E+00 0. -1.
         -1    1    3    3    0  502  0.11205036064E+03  0.72706098222E+03 -0.42892119662E+03  0.85155525252E+03  0.00000000000E+00 0.  1.
         13    1    5    5    0    0  0.11940669781E+02  0.39224981542E+02 -0.20257578379E+02  0.45733447865E+02  0.00000000000E+00 0.  1.
        -13    1    5    5    0    0  0.80402169255E+02 -0.28108685162E+02  0.46478186985E+01  0.85300698831E+02  0.00000000000E+00 0. -1.
          2    1    6    6  503    0 -0.15222849356E+02 -0.14556940266E+03 -0.20421951332E+02  0.14778106181E+03  0.00000000000E+00 0. -1.
         -2    1    6    6    0  503 -0.22753090028E+03 -0.86456713193E+03 -0.30635820797E+03  0.94504073340E+03  0.00000000000E+00 0.  1.
<mgrwt>
<rscale>  0 0.10884206E+04</rscale>
<asrwt>0</asrwt>
<pdfrwt beam="1">  1        1 0.11450136E+00 0.10884206E+04</pdfrwt>
<pdfrwt beam="2">  1       -1 0.25044293E+00 0.10884206E+04</pdfrwt>
<totfact> 0.17115632E+00</totfact>
</mgrwt>
</event>
<event>
12    1  0.1335216E-007  0.6719999E+03  0.7818608E-02  0.9766352E-01
         -2   -1    0    0    0  501 -0.00000000000E+00  0.00000000000E+00  0.47199952569E+03  0.47199952569E+03  0.00000000000E+00 0.  1.
          2   -1    0    0  501    0  0.00000000000E+00 -0.00000000000E+00 -0.12996750023E+04  0.12996750023E+04  0.00000000000E+00 0. -1.
         23    2    1    2    0    0  0.58700211367E+03 -0.88964774769E+02 -0.69289575477E+03  0.91694592027E+03  0.90548777614E+02 0.  0.
    5000000    2    1    2    0    0 -0.58700211367E+03  0.88964774769E+02 -0.13477972186E+03  0.85472860775E+03  0.59992433430E+03 0.  0.
         23    2    4    4    0    0 -0.17953562558E+02 -0.10618141906E+03 -0.19728779009E+03  0.24344241815E+03  0.93514248513E+02 0.  0.
         23    2    4    4    0    0 -0.56904855111E+03  0.19514619383E+03  0.62508068227E+02  0.61128618960E+03  0.88686281406E+02 0.  0.
          1    1    3    3  502    0  0.25093788414E+03 -0.12053884519E+01 -0.33058739811E+03  0.41504132619E+03  0.00000000000E+00 0. -1.
         -1    1    3    3    0  502  0.33606422952E+03 -0.87759386317E+02 -0.36230835666E+03  0.50190459408E+03  0.00000000000E+00 0.  1.
         11    1    5    5    0    0  0.25545111491E+02 -0.93913187299E+02 -0.13035868121E+03  0.16268259045E+03  0.00000000000E+00 0. -1.
        -11    1    5    5    0    0 -0.43498674049E+02 -0.12268231763E+02 -0.66929108884E+02  0.80759827703E+02  0.00000000000E+00 0.  1.
          3    1    6    6  503    0 -0.33091741214E+03  0.90323135403E+02  0.73753178259E+02  0.35086198675E+03  0.00000000000E+00 0. -1.
         -3    1    6    6    0  503 -0.23813113897E+03  0.10482305843E+03 -0.11245110032E+02  0.26042420284E+03  0.00000000000E+00 0.  1.
<mgrwt>
<rscale>  0 0.67199992E+03</rscale>
<asrwt>0</asrwt>
<pdfrwt beam="1">  1        2 0.19994999E+00 0.67199992E+03</pdfrwt>
<pdfrwt beam="2">  1       -2 0.72615315E-01 0.67199992E+03</pdfrwt>
<totfact> 0.29196985E+01</totfact>
</mgrwt>
</event>
<event>
12    1  0.1335216E-007  0.9654841E+03  0.7818608E-02  0.9347233E-01
         -2   -1    0    0    0  501 -0.00000000000E+00  0.00000000000E+00  0.89348914721E+03  0.89348914721E+03  0.00000000000E+00 0.  1.
          2   -1    0    0  501    0  0.00000000000E+00 -0.00000000000E+00 -0.12145905176E+04  0.12145905176E+04  0.00000000000E+00 0. -1.
         23    2    1    2    0    0  0.35923057541E+03 -0.86971648211E+03 -0.29960048927E+03  0.99173173201E+03  0.91203122435E+02 0.  0.
    5000000    2    1    2    0    0 -0.35923057541E+03  0.86971648211E+03 -0.21500881084E+02  0.11163479328E+04  0.60026415313E+03 0.  0.
         23    2    4    4    0    0  0.45035731359E+01  0.11445100060E+03  0.19757163805E+03  0.24538478406E+03  0.89776535780E+02 0.  0.
         23    2    4    4    0    0 -0.36373414855E+03  0.75526548151E+03 -0.21907251913E+03  0.87096314871E+03  0.88631593625E+02 0.  0.
          4    1    3    3  502    0  0.22377761397E+03 -0.64535342799E+03 -0.20599295480E+03  0.71343574690E+03  0.00000000000E+00 0. -1.
         -4    1    3    3    0  502  0.13545296144E+03 -0.22436305412E+03 -0.93607534470E+02  0.27829598511E+03  0.00000000000E+00 0.  1.
         13    1    5    5    0    0 -0.12889256914E+02  0.12453284955E+03  0.17476944815E+03  0.21498586829E+03  0.00000000000E+00 0.  1.
        -13    1    5    5    0    0  0.17392830050E+02 -0.10081848947E+02  0.22802189897E+02  0.30398915761E+02  0.00000000000E+00 0. -1.
          3    1    6    6  503    0 -0.24879661098E+03  0.44755420225E+03 -0.10110142998E+03  0.52194445752E+03  0.00000000000E+00 0. -1.
         -3    1    6    6    0  503 -0.11493753756E+03  0.30771127926E+03 -0.11797108915E+03  0.34901869119E+03  0.00000000000E+00 0.  1.
<mgrwt>
<rscale>  0 0.96548409E+03</rscale>
<asrwt>0</asrwt>
<pdfrwt beam="1">  1        2 0.18686008E+00 0.96548409E+03</pdfrwt>
<pdfrwt beam="2">  1       -2 0.13745987E+00 0.96548409E+03</pdfrwt>
<totfact> 0.69589938E+00</totfact>
</mgrwt>
</event>
<event>
12    1  0.1335216E-007  0.7849972E+03  0.7818608E-02  0.9581991E-01
          2   -1    0    0  501    0  0.00000000000E+00  0.00000000000E+00  0.20875737831E+04  0.20875737831E+04  0.00000000000E+00 0. -1.
         -2   -1    0    0    0  501 -0.00000000000E+00 -0.00000000000E+00 -0.43090829405E+03  0.43090829405E+03  0.00000000000E+00 0.  1.
         23    2    1    2    0    0  0.68649162596E+03  0.22912433657E+03  0.15331531438E+03  0.74544933249E+03  0.91762778781E+02 0.  0.
    5000000    2    1    2    0    0 -0.68649162596E+03 -0.22912433657E+03  0.15033501747E+04  0.17730327447E+04  0.59984552333E+03 0.  0.
         23    2    4    4    0    0  0.33634916185E+02  0.18123552731E+02  0.10308418432E+02  0.94839333930E+02  0.86188543435E+02 0.  0.
         23    2    4    4    0    0 -0.72012654214E+03 -0.24724788930E+03  0.14930417562E+04  0.16781934107E+04  0.86288368326E+02 0.  0.
          3    1    3    3  502    0  0.53420613132E+03  0.15886018309E+03  0.15218805632E+03  0.57773173100E+03  0.00000000000E+00 0. -1.
         -3    1    3    3    0  502  0.15228549463E+03  0.70264153477E+02  0.11272580605E+01  0.16771760149E+03  0.00000000000E+00 0.  1.
         11    1    5    5    0    0  0.15696177599E+02  0.46917761639E+02 -0.15904373548E+02  0.51967253597E+02  0.00000000000E+00 0. -1.
        -11    1    5    5    0    0  0.17938738586E+02 -0.28794208908E+02  0.26212791980E+02  0.42872080334E+02  0.00000000000E+00 0.  1.
          3    1    6    6  503    0 -0.41707421757E+03 -0.13488866041E+03  0.76618132265E+03  0.88271154567E+03  0.00000000000E+00 0. -1.
         -3    1    6    6    0  503 -0.30305232457E+03 -0.11235922889E+03  0.72686043359E+03  0.79548186508E+03  0.00000000000E+00 0.  1.
<mgrwt>
<rscale>  0 0.78499715E+03</rscale>
<asrwt>0</asrwt>
<pdfrwt beam="1">  1        2 0.32116519E+00 0.78499715E+03</pdfrwt>
<pdfrwt beam="2">  1       -2 0.66293585E-01 0.78499715E+03</pdfrwt>
<totfact> 0.12890241E+01</totfact>
</mgrwt>
</event>
<event>
12    1  0.1335216E-007  0.4572382E+03  0.7818608E-02  0.1025585E+00
          1   -1    0    0  501    0  0.00000000000E+00  0.00000000000E+00  0.58191315611E+03  0.58191315611E+03  0.00000000000E+00 0. -1.
         -1   -1    0    0    0  501 -0.00000000000E+00 -0.00000000000E+00 -0.37823364060E+03  0.37823364060E+03  0.00000000000E+00 0.  1.
         23    2    1    2    0    0  0.23117020649E+03 -0.11653537635E+03  0.12814523772E+03  0.30228904552E+03  0.89091564038E+02 0.  0.
    5000000    2    1    2    0    0 -0.23117020649E+03  0.11653537635E+03  0.75534277794E+02  0.65785775119E+03  0.60004269463E+03 0.  0.
         23    2    4    4    0    0 -0.20171475714E+03 -0.21353918504E+03  0.56529975307E+01  0.30708431478E+03  0.89336404752E+02 0.  0.
         23    2    4    4    0    0 -0.29455449352E+02  0.33007456138E+03  0.69881280263E+02  0.35077343641E+03  0.91333295078E+02 0.  0.
          2    1    3    3  502    0  0.77124523067E+02  0.33233427718E+01  0.22802241762E+02  0.80493346899E+02  0.00000000000E+00 0.  1.
         -2    1    3    3    0  502  0.15404568342E+03 -0.11985871912E+03  0.10534299596E+03  0.22179569862E+03  0.00000000000E+00 0. -1.
         11    1    5    5    0    0 -0.14875569193E+03 -0.18763905542E+03  0.33680415872E+02  0.24180786053E+03  0.00000000000E+00 0. -1.
        -11    1    5    5    0    0 -0.52959065203E+02 -0.25900129619E+02 -0.28027418341E+02  0.65276454257E+02  0.00000000000E+00 0.  1.
          1    1    6    6  503    0  0.32555306851E+02  0.88850162378E+02  0.16623431202E+02  0.96075687995E+02  0.00000000000E+00 0. -1.
         -1    1    6    6    0  503 -0.62010756203E+02  0.24122439901E+03  0.53257849061E+02  0.25469774841E+03  0.00000000000E+00 0.  1.
<mgrwt>
<rscale>  0 0.45723824E+03</rscale>
<asrwt>0</asrwt>
<pdfrwt beam="1">  1        1 0.89525101E-01 0.45723824E+03</pdfrwt>
<pdfrwt beam="2">  1       -1 0.58189791E-01 0.45723824E+03</pdfrwt>
<totfact> 0.11170094E+02</totfact>
</mgrwt>
</event>
<event>
12    1  0.1335216E-007  0.4053357E+03  0.7818608E-02  0.1041948E+00
         -2   -1    0    0    0  501 -0.00000000000E+00  0.00000000000E+00  0.12667241913E+03  0.12667241913E+03  0.00000000000E+00 0.  1.
          2   -1    0    0  501    0  0.00000000000E+00 -0.00000000000E+00 -0.27726686348E+04  0.27726686348E+04  0.00000000000E+00 0. -1.
         23    2    1    2    0    0  0.34590846279E+03  0.54081237370E+02 -0.16236343852E+04  0.16633007954E+04  0.88337275854E+02 0.  0.
    5000000    2    1    2    0    0 -0.34590846279E+03 -0.54081237370E+02 -0.10223618305E+04  0.12360402585E+04  0.59999530284E+03 0.  0.
         23    2    4    4    0    0 -0.15933160460E+03 -0.13923312238E+03 -0.46918723896E+02  0.23507220510E+03  0.91022812353E+02 0.  0.
         23    2    4    4    0    0 -0.18657685820E+03  0.85151885010E+02 -0.97544310655E+03  0.10009680534E+04  0.91575227440E+02 0.  0.
          4    1    3    3  502    0  0.16726746771E+03  0.60338609561E+02 -0.67864632978E+03  0.70155541084E+03  0.00000000000E+00 0. -1.
         -4    1    3    3    0  502  0.17864099508E+03 -0.62573721914E+01 -0.94498805543E+03  0.96174538456E+03  0.00000000000E+00 0.  1.
         11    1    5    5    0    0 -0.31337081770E+02 -0.84903772320E+02 -0.28053519866E+02  0.94750531528E+02  0.00000000000E+00 0. -1.
        -11    1    5    5    0    0 -0.12799452283E+03 -0.54329350060E+02 -0.18865204030E+02  0.14032167357E+03  0.00000000000E+00 0.  1.
          4    1    6    6  503    0 -0.14615763636E+03  0.19494892185E+02 -0.63013723507E+03  0.64715920801E+03  0.00000000000E+00 0. -1.
         -4    1    6    6    0  503 -0.40419221835E+02  0.65656992824E+02 -0.34530587149E+03  0.35380884540E+03  0.00000000000E+00 0.  1.
<mgrwt>
<rscale>  0 0.40533566E+03</rscale>
<asrwt>0</asrwt>
<pdfrwt beam="1">  1        2 0.42656438E+00 0.40533566E+03</pdfrwt>
<pdfrwt beam="2">  1       -2 0.19488065E-01 0.40533566E+03</pdfrwt>
<totfact> 0.59915619E+01</totfact>
</mgrwt>
</event>
<event>
12    1  0.1335216E-007  0.6691166E+03  0.7818608E-02  0.9771555E-01
          2   -1    0    0  501    0  0.00000000000E+00  0.00000000000E+00  0.29945839441E+04  0.29945839441E+04  0.00000000000E+00 0. -1.
         -2   -1    0    0    0  501 -0.00000000000E+00 -0.00000000000E+00 -0.20995277067E+03  0.20995277067E+03  0.00000000000E+00 0.  1.
         23    2    1    2    0    0 -0.58215419564E+03 -0.31053253581E+03  0.89933162411E+03  0.11189674091E+04  0.89200500197E+02 0.  0.
    5000000    2    1    2    0    0  0.58215419564E+03  0.31053253581E+03  0.18852995493E+04  0.20855693056E+04  0.59992580767E+03 0.  0.
         23    2    4    4    0    0  0.15605770715E+03  0.27313400770E+02  0.12550532707E+04  0.12686309767E+04  0.95738252744E+02 0.  0.
         23    2    4    4    0    0  0.42609648850E+03  0.28321913504E+03  0.63024627863E+03  0.81693832892E+03  0.91687325018E+02 0.  0.
          2    1    3    3  502    0 -0.40301830226E+03 -0.20510309091E+03  0.68143823105E+03  0.81783194642E+03  0.00000000000E+00 0. -1.
         -2    1    3    3    0  502 -0.17913589338E+03 -0.10542944491E+03  0.21789339306E+03  0.30113546269E+03  0.00000000000E+00 0.  1.
         11    1    5    5    0    0  0.26696964404E+02  0.25235557339E+02  0.58802754015E+03  0.58917395499E+03  0.00000000000E+00 0. -1.
        -11    1    5    5    0    0  0.12936074274E+03  0.20778434313E+01  0.66702573051E+03  0.67945702171E+03  0.00000000000E+00 0.  1.
          2    1    6    6  503    0  0.13593906395E+03  0.10205788010E+03  0.14611542485E+03  0.22415386986E+03  0.00000000000E+00 0. -1.
         -2    1    6    6    0  503  0.29015742455E+03  0.18116125495E+03  0.48413085378E+03  0.59278445906E+03  0.00000000000E+00 0.  1.
<mgrwt>
<rscale>  0 0.66911659E+03</rscale>
<asrwt>0</asrwt>
<pdfrwt beam="1">  1        2 0.46070519E+00 0.66911659E+03</pdfrwt>
<pdfrwt beam="2">  1       -2 0.32300428E-01 0.66911659E+03</pdfrwt>
<totfact> 0.16844744E+01</totfact>
</mgrwt>
</event>
<event>
12    1  0.1335216E-007  0.6663540E+03  0.7818608E-02  0.9776567E-01
         -2   -1    0    0    0  501 -0.00000000000E+00  0.00000000000E+00  0.40074733983E+03  0.40074733983E+03  0.00000000000E+00 0.  1.
          2   -1    0    0  501    0  0.00000000000E+00 -0.00000000000E+00 -0.14226499732E+04  0.14226499732E+04  0.00000000000E+00 0. -1.
         23    2    1    2    0    0  0.59218841078E+03 -0.21987490618E+03 -0.40821517378E+03  0.75769473017E+03  0.91812786600E+02 0.  0.
    5000000    2    1    2    0    0 -0.59218841078E+03  0.21987490618E+03 -0.61368745961E+03  0.10657025829E+04  0.60006467054E+03 0.  0.
         23    2    4    4    0    0 -0.52124698582E+03  0.86799526170E+02 -0.68898194531E+03  0.87308555729E+03  0.91376645884E+02 0.  0.
         23    2    4    4    0    0 -0.70941424960E+02  0.13307538001E+03  0.75294485697E+02  0.19261702559E+03  0.93221866693E+02 0.  0.
          3    1    3    3  502    0  0.41258137031E+03 -0.17675679231E+03 -0.33000778912E+03  0.55710994573E+03  0.00000000000E+00 0. -1.
         -3    1    3    3    0  502  0.17960704047E+03 -0.43118113869E+02 -0.78207384667E+02  0.20058478443E+03  0.00000000000E+00 0.  1.
         13    1    5    5    0    0 -0.29012794039E+03  0.23929564597E+02 -0.44011970285E+03  0.52768570067E+03  0.00000000000E+00 0.  1.
        -13    1    5    5    0    0 -0.23111904543E+03  0.62869961573E+02 -0.24886224246E+03  0.34539985662E+03  0.00000000000E+00 0. -1.
          3    1    6    6  503    0 -0.86819924234E+02  0.11895400620E+03  0.42035643504E+02  0.15314943735E+03  0.00000000000E+00 0. -1.
         -3    1    6    6    0  503  0.15878499273E+02  0.14121373809E+02  0.33258842193E+02  0.39467588239E+02  0.00000000000E+00 0.  1.
<mgrwt>
<rscale>  0 0.66635399E+03</rscale>
<asrwt>0</asrwt>
<pdfrwt beam="1">  1        2 0.21886922E+00 0.66635399E+03</pdfrwt>
<pdfrwt beam="2">  1       -2 0.61653437E-01 0.66635399E+03</pdfrwt>
<totfact> 0.35421357E+01</totfact>
</mgrwt>
</event>
<event>
12    1  0.1335216E-007  0.1151148E+04  0.7818608E-02  0.9156725E-01
          1   -1    0    0  501    0  0.00000000000E+00  0.00000000000E+00  0.21215248655E+04  0.21215248655E+04  0.00000000000E+00 0. -1.
         -1   -1    0    0    0  501 -0.00000000000E+00 -0.00000000000E+00 -0.67041637497E+03  0.67041637497E+03  0.00000000000E+00 0.  1.
         23    2    1    2    0    0 -0.10879164315E+04 -0.22328767970E+02  0.96625401860E+03  0.14581187227E+04  0.91665943758E+02 0.  0.
    5000000    2    1    2    0    0  0.10879164315E+04  0.22328767970E+02  0.48485447191E+03  0.13338225177E+04  0.59994825933E+03 0.  0.
         23    2    4    4    0    0  0.10524422068E+04 -0.10802365281E+03  0.49218354314E+03  0.11704306485E+04  0.91430599994E+02 0.  0.
         23    2    4    4    0    0  0.35474224778E+02  0.13035242078E+03 -0.73290712280E+01  0.16339186922E+03  0.91613391025E+02 0.  0.
          2    1    3    3  502    0 -0.69203665272E+03  0.12778059130E+02  0.65986108197E+03  0.95629213894E+03  0.00000000000E+00 0. -1.
         -2    1    3    3    0  502 -0.39587977883E+03 -0.35106827100E+02  0.30639293663E+03  0.50182658381E+03  0.00000000000E+00 0.  1.
         13    1    5    5    0    0  0.93223887699E+03 -0.96255090058E+02  0.46680348951E+03  0.10470147391E+04  0.00000000000E+00 0. -1.
        -13    1    5    5    0    0  0.12020332978E+03 -0.11768562748E+02  0.25380053623E+02  0.12341590935E+03  0.00000000000E+00 0.  1.
          4    1    6    6  503    0 -0.20299143444E+01  0.11366942271E+03 -0.28501510416E+02  0.11720577762E+03  0.00000000000E+00 0. -1.
         -4    1    6    6    0  503  0.37504139122E+02  0.16682998066E+02  0.21172439188E+02  0.46186091596E+02  0.00000000000E+00 0.  1.
<mgrwt>
<rscale>  0 0.11511479E+04</rscale>
<asrwt>0</asrwt>
<pdfrwt beam="1">  1        1 0.32638844E+00 0.11511479E+04</pdfrwt>
<pdfrwt beam="2">  1       -1 0.10314098E+00 0.11511479E+04</pdfrwt>
<totfact> 0.21705335E+00</totfact>
</mgrwt>
</event>
<event>
12    1  0.1335216E-007  0.1138082E+04  0.7818608E-02  0.9168849E-01
         -1   -1    0    0    0  501 -0.00000000000E+00  0.00000000000E+00  0.63292108290E+03  0.63292108290E+03  0.00000000000E+00 0.  1.
          1   -1    0    0  501    0  0.00000000000E+00 -0.00000000000E+00 -0.23409251948E+04  0.23409251948E+04  0.00000000000E+00 0. -1.
         23    2    1    2    0    0 -0.10090412262E+04 -0.38110949721E+03 -0.12593589588E+04  0.16606942069E+04  0.92258423690E+02 0.  0.
    5000000    2    1    2    0    0  0.10090412262E+04  0.38110949721E+03 -0.44864515313E+03  0.13131520708E+04  0.59973097528E+03 0.  0.
         23    2    4    4    0    0  0.14403002617E+03 -0.10631475061E+03 -0.20333478978E+03  0.28635573145E+03  0.92774423003E+02 0.  0.
         23    2    4    4    0    0  0.86501120000E+03  0.48742424782E+03 -0.24531036336E+03  0.10267963394E+04  0.91141509168E+02 0.  0.
          4    1    3    3  502    0 -0.39431327062E+03 -0.18953618239E+03 -0.54756133885E+03  0.70087826306E+03  0.00000000000E+00 0. -1.
         -4    1    3    3    0  502 -0.61472795555E+03 -0.19157331483E+03 -0.71179761993E+03  0.95981594383E+03  0.00000000000E+00 0.  1.
         11    1    5    5    0    0  0.21203466403E+02  0.17283485410E+02 -0.26060811738E+02  0.37781897303E+02  0.00000000000E+00 0. -1.
        -11    1    5    5    0    0  0.12282655977E+03 -0.12359823602E+03 -0.17727397804E+03  0.24857383415E+03  0.00000000000E+00 0.  1.
          4    1    6    6  503    0  0.57258773735E+03  0.30969738394E+03 -0.11740975215E+03  0.66147882542E+03  0.00000000000E+00 0.  1.
         -4    1    6    6    0  503  0.29242346265E+03  0.17772686388E+03 -0.12790061120E+03  0.36531751395E+03  0.00000000000E+00 0. -1.
<mgrwt>
<rscale>  0 0.11380823E+04</rscale>
<asrwt>0</asrwt>
<pdfrwt beam="1">  1        1 0.36014234E+00 0.11380823E+04</pdfrwt>
<pdfrwt beam="2">  1       -1 0.97372474E-01 0.11380823E+04</pdfrwt>
<totfact> 0.17610594E+00</totfact>
</mgrwt>
</event>
<event>
12    1  0.1335216E-007  0.1545741E+04  0.7818608E-02  0.8854593E-01
         -1   -1    0    0    0  501 -0.00000000000E+00  0.00000000000E+00  0.18803596204E+04  0.18803596204E+04  0.00000000000E+00 0.  1.
          1   -1    0    0  501    0  0.00000000000E+00 -0.00000000000E+00 -0.13512494587E+04  0.13512494587E+04  0.00000000000E+00 0. -1.
         23    2    1    2    0    0  0.64248362107E+03  0.13507179907E+04 -0.99541765563E+02  0.15017804991E+04  0.90619041399E+02 0.  0.
    5000000    2    1    2    0    0 -0.64248362107E+03 -0.13507179907E+04  0.62865192723E+03  0.17298285800E+04  0.59989947236E+03 0.  0.
         23    2    4    4    0    0 -0.18566443022E+03 -0.10003638697E+04  0.48141669774E+03  0.11293404956E+04  0.91917167280E+02 0.  0.
         23    2    4    4    0    0 -0.45681919084E+03 -0.35035412099E+03  0.14723522949E+03  0.60048808444E+03  0.86463538755E+02 0.  0.
          2    1    3    3  502    0  0.47586476760E+02  0.15923698991E+03 -0.23778983039E+02  0.16788785472E+03  0.00000000000E+00 0.  1.
         -2    1    3    3    0  502  0.59489714431E+03  0.11914810008E+04 -0.75762782524E+02  0.13338926444E+04  0.00000000000E+00 0. -1.
         11    1    5    5    0    0 -0.13678190166E+03 -0.77679362660E+03  0.33038730346E+03  0.85514524920E+03  0.00000000000E+00 0.  1.
        -11    1    5    5    0    0 -0.48882528565E+02 -0.22357024311E+03  0.15102939428E+03  0.27419524639E+03  0.00000000000E+00 0. -1.
          3    1    6    6  503    0 -0.14094845319E+03 -0.11806392601E+03  0.88400698239E+02  0.20401039319E+03  0.00000000000E+00 0. -1.
         -3    1    6    6    0  503 -0.31587073765E+03 -0.23229019499E+03  0.58834531252E+02  0.39647769125E+03  0.00000000000E+00 0.  1.
<mgrwt>
<rscale>  0 0.15457409E+04</rscale>
<asrwt>0</asrwt>
<pdfrwt beam="1">  1        1 0.20788453E+00 0.15457409E+04</pdfrwt>
<pdfrwt beam="2">  1       -1 0.28928610E+00 0.15457409E+04</pdfrwt>
<totfact> 0.30362391E-01</totfact>
</mgrwt>
</event>
<event>
12    1  0.1335216E-007  0.1281147E+04  0.7818608E-02  0.9044651E-01
          1   -1    0    0  501    0  0.00000000000E+00  0.00000000000E+00  0.16350290076E+04  0.16350290076E+04  0.00000000000E+00 0. -1.
         -1   -1    0    0    0  501 -0.00000000000E+00 -0.00000000000E+00 -0.12721387995E+04  0.12721387995E+04  0.00000000000E+00 0.  1.
         23    2    1    2    0    0  0.34049407646E+03  0.11941107312E+04  0.77649103472E+03  0.14674229601E+04  0.92494121694E+02 0.  0.
    5000000    2    1    2    0    0 -0.34049407646E+03 -0.11941107312E+04 -0.41360082656E+03  0.14397448470E+04  0.59996910446E+03 0.  0.
         23    2    4    4    0    0 -0.44118182545E+03 -0.10576241691E+04 -0.46631259870E+03  0.12405139410E+04  0.90648286745E+02 0.  0.
         23    2    4    4    0    0  0.10068774899E+03 -0.13648656208E+03  0.52711772143E+02  0.19923090602E+03  0.90265267771E+02 0.  0.
          1    1    3    3  502    0  0.31887244809E+03  0.10451721290E+04  0.65499703143E+03  0.12740037397E+04  0.00000000000E+00 0. -1.
         -1    1    3    3    0  502  0.21621628372E+02  0.14893860212E+03  0.12149400329E+03  0.19341922048E+03  0.00000000000E+00 0.  1.
         11    1    5    5    0    0 -0.31489472782E+03 -0.64200676909E+03 -0.29712985661E+03  0.77434974841E+03  0.00000000000E+00 0. -1.
        -11    1    5    5    0    0 -0.12628709763E+03 -0.41561739999E+03 -0.16918274209E+03  0.46616419256E+03  0.00000000000E+00 0.  1.
          1    1    6    6  503    0  0.68289401755E+02 -0.92718677196E+02  0.78109574498E+02  0.13914489254E+03  0.00000000000E+00 0. -1.
         -1    1    6    6    0  503  0.32398347234E+02 -0.43767884889E+02 -0.25397802355E+02  0.60086013477E+02  0.00000000000E+00 0.  1.
<mgrwt>
<rscale>  0 0.12811472E+04</rscale>
<asrwt>0</asrwt>
<pdfrwt beam="1">  1        1 0.25154293E+00 0.12811472E+04</pdfrwt>
<pdfrwt beam="2">  1       -1 0.19571366E+00 0.12811472E+04</pdfrwt>
<totfact> 0.82554808E-01</totfact>
</mgrwt>
</event>
<event>
12    1  0.1335216E-007  0.3279653E+03  0.7818608E-02  0.1072041E+00
         -1   -1    0    0    0  501 -0.00000000000E+00  0.00000000000E+00  0.50974156493E+03  0.50974156493E+03  0.00000000000E+00 0.  1.
          1   -1    0    0  501    0  0.00000000000E+00 -0.00000000000E+00 -0.13598330256E+04  0.13598330256E+04  0.00000000000E+00 0. -1.
         23    2    1    2    0    0 -0.14613268737E+03 -0.16931636756E+03 -0.11410671811E+04  0.11663614151E+04  0.91333696787E+02 0.  0.
    5000000    2    1    2    0    0  0.14613268737E+03  0.16931636756E+03  0.29097572041E+03  0.70321317547E+03  0.59984923576E+03 0.  0.
         23    2    4    4    0    0  0.16563210194E+03 -0.62267960217E+02  0.38845473927E+03  0.43631790679E+03  0.90360053444E+02 0.  0.
         23    2    4    4    0    0 -0.19499414569E+02  0.23158432778E+03 -0.97479018868E+02  0.26689526868E+03  0.87860100626E+02 0.  0.
          1    1    3    3  502    0 -0.11452803105E+03 -0.17061157561E+03 -0.10510451196E+04  0.10709438935E+04  0.00000000000E+00 0. -1.
         -1    1    3    3    0  502 -0.31604656324E+02  0.12952080477E+01 -0.90022061529E+02  0.95417521594E+02  0.00000000000E+00 0.  1.
         13    1    5    5    0    0  0.96753785118E+02 -0.55205435778E+01  0.12505635465E+03  0.15821145084E+03  0.00000000000E+00 0.  1.
        -13    1    5    5    0    0  0.68878316825E+02 -0.56747416640E+02  0.26339838462E+03  0.27810645596E+03  0.00000000000E+00 0. -1.
          1    1    6    6  503    0 -0.26182624406E+00  0.59548798836E+02 -0.69530677246E+02  0.91545852305E+02  0.00000000000E+00 0. -1.
         -1    1    6    6    0  503 -0.19237588325E+02  0.17203552894E+03 -0.27948341621E+02  0.17534941637E+03  0.00000000000E+00 0.  1.
<mgrwt>
<rscale>  0 0.32796534E+03</rscale>
<asrwt>0</asrwt>
<pdfrwt beam="1">  1        1 0.20920508E+00 0.32796534E+03</pdfrwt>
<pdfrwt beam="2">  1       -1 0.78421780E-01 0.32796534E+03</pdfrwt>
<totfact> 0.15077646E+01</totfact>
</mgrwt>
</event>
<event>
12    1  0.1335216E-007  0.6633276E+03  0.7818608E-02  0.9782087E-01
          2   -1    0    0  501    0  0.00000000000E+00  0.00000000000E+00  0.54325344493E+03  0.54325344493E+03  0.00000000000E+00 0. -1.
         -2   -1    0    0    0  501 -0.00000000000E+00 -0.00000000000E+00 -0.10002854452E+04  0.10002854452E+04  0.00000000000E+00 0.  1.
         23    2    1    2    0    0  0.82355931388E+02  0.58271714872E+03 -0.19034423815E+02  0.59596809945E+03  0.92053742011E+02 0.  0.
    5000000    2    1    2    0    0 -0.82355931388E+02 -0.58271714872E+03 -0.43799757644E+03  0.94757079067E+03  0.59975557648E+03 0.  0.
         23    2    4    4    0    0  0.14844731684E+03 -0.38086989312E+03 -0.18517707388E+02  0.42008212046E+03  0.95013688930E+02 0.  0.
         23    2    4    4    0    0 -0.23080324822E+03 -0.20184725561E+03 -0.41947986905E+03  0.52748867022E+03  0.90931197508E+02 0.  0.
          2    1    3    3  502    0  0.85429794872E+02  0.39328486271E+03 -0.44077051511E+02  0.40486296392E+03  0.00000000000E+00 0.  1.
         -2    1    3    3    0  502 -0.30738634843E+01  0.18943228602E+03  0.25042627696E+02  0.19110513553E+03  0.00000000000E+00 0. -1.
         13    1    5    5    0    0  0.24918336828E+02 -0.15945394736E+03  0.23464703375E+02  0.16308610347E+03  0.00000000000E+00 0.  1.
        -13    1    5    5    0    0  0.12352898001E+03 -0.22141594575E+03 -0.41982410763E+02  0.25699601699E+03  0.00000000000E+00 0. -1.
          3    1    6    6  503    0 -0.95236581801E+02 -0.14348063382E+03 -0.22740084167E+03  0.28525048920E+03  0.00000000000E+00 0. -1.
         -3    1    6    6    0  503 -0.13556666642E+03 -0.58366621787E+02 -0.19207902738E+03  0.24223818102E+03  0.00000000000E+00 0.  1.
<mgrwt>
<rscale>  0 0.66332764E+03</rscale>
<asrwt>0</asrwt>
<pdfrwt beam="1">  1        2 0.83577453E-01 0.66332764E+03</pdfrwt>
<pdfrwt beam="2">  1       -2 0.15389007E+00 0.66332764E+03</pdfrwt>
<totfact> 0.15994794E+01</totfact>
</mgrwt>
</event>
<event>
12    1  0.1335216E-007  0.1063446E+04  0.7818608E-02  0.9241571E-01
          2   -1    0    0  501    0  0.00000000000E+00  0.00000000000E+00  0.11585051568E+04  0.11585051568E+04  0.00000000000E+00 0. -1.
         -2   -1    0    0    0  501 -0.00000000000E+00 -0.00000000000E+00 -0.10804289118E+04  0.10804289118E+04  0.00000000000E+00 0.  1.
         23    2    1    2    0    0 -0.16031524514E+03  0.10215459249E+04 -0.27526299469E+02  0.10387456781E+04  0.94751423476E+02 0.  0.
    5000000    2    1    2    0    0  0.16031524514E+03 -0.10215459249E+04  0.10560254443E+03  0.12001883905E+04  0.60003601629E+03 0.  0.
         23    2    4    4    0    0  0.31701333958E+01 -0.80725718816E+03  0.29177918004E+03  0.86350539286E+03  0.93980083095E+02 0.  0.
         23    2    4    4    0    0  0.15714511174E+03 -0.21428873669E+03 -0.18617663561E+03  0.33668299762E+03  0.89885774288E+02 0.  0.
          3    1    3    3  502    0 -0.14784364368E+03  0.65516760280E+03 -0.26211539041E+02  0.67215279180E+03  0.00000000000E+00 0. -1.
         -3    1    3    3    0  502 -0.12471601453E+02  0.36637832205E+03 -0.13147604287E+01  0.36659288633E+03  0.00000000000E+00 0.  1.
         13    1    5    5    0    0 -0.13683137629E+02 -0.61496120353E+03  0.18216253085E+03  0.64151983426E+03  0.00000000000E+00 0.  1.
        -13    1    5    5    0    0  0.16853271025E+02 -0.19229598462E+03  0.10961664919E+03  0.22198555860E+03  0.00000000000E+00 0. -1.
          4    1    6    6  503    0 -0.10403207882E+02 -0.28468964693E+02 -0.19197089048E+02  0.35878084018E+02  0.00000000000E+00 0. -1.
         -4    1    6    6    0  503  0.16754831962E+03 -0.18581977200E+03 -0.16697954656E+03  0.30080491360E+03  0.00000000000E+00 0.  1.
<mgrwt>
<rscale>  0 0.10634458E+04</rscale>
<asrwt>0</asrwt>
<pdfrwt beam="1">  1        2 0.17823156E+00 0.10634458E+04</pdfrwt>
<pdfrwt beam="2">  1       -2 0.16621983E+00 0.10634458E+04</pdfrwt>
<totfact> 0.44817539E+00</totfact>
</mgrwt>
</event>
<event>
12    1  0.1335216E-007  0.7451402E+03  0.7818608E-02  0.9643006E-01
         -2   -1    0    0    0  501 -0.00000000000E+00  0.00000000000E+00  0.73889183040E+03  0.73889183040E+03  0.00000000000E+00 0. -1.
          2   -1    0    0  501    0  0.00000000000E+00 -0.00000000000E+00 -0.18315991745E+04  0.18315991745E+04  0.00000000000E+00 0.  1.
         23    2    1    2    0    0  0.40549725628E+03  0.61320423038E+03 -0.13902048404E+04  0.15763042387E+04  0.10778729777E+03 0.  0.
    5000000    2    1    2    0    0 -0.40549725628E+03 -0.61320423038E+03  0.29749749631E+03  0.99418676622E+03  0.59954575539E+03 0.  0.
         23    2    4    4    0    0 -0.19313779868E+03 -0.35480932215E+03  0.45346501662E+03  0.61400641102E+03  0.90451573334E+02 0.  0.
         23    2    4    4    0    0 -0.21235945760E+03 -0.25839490822E+03 -0.15596752030E+03  0.38018035519E+03  0.91360643925E+02 0.  0.
          3    1    3    3  502    0  0.19462881559E+03  0.32794829445E+03 -0.82704663964E+03  0.91073410160E+03  0.00000000000E+00 0. -1.
         -3    1    3    3    0  502  0.21086844068E+03  0.28525593593E+03 -0.56315820075E+03  0.66557013705E+03  0.00000000000E+00 0.  1.
         13    1    5    5    0    0 -0.84294127037E+02 -0.21258390953E+03  0.30600404972E+03  0.38201557153E+03  0.00000000000E+00 0.  1.
        -13    1    5    5    0    0 -0.10884367165E+03 -0.14222541262E+03  0.14746096689E+03  0.23199083950E+03  0.00000000000E+00 0. -1.
          3    1    6    6  503    0 -0.21155344763E+03 -0.21025620809E+03 -0.12868434904E+03  0.32484180139E+03  0.00000000000E+00 0. -1.
         -3    1    6    6    0  503 -0.80600996793E+00 -0.48138700130E+02 -0.27283171265E+02  0.55338553799E+02  0.00000000000E+00 0.  1.
<mgrwt>
<rscale>  0 0.74514019E+03</rscale>
<asrwt>0</asrwt>
<pdfrwt beam="1">  1        2 0.28178449E+00 0.74514019E+03</pdfrwt>
<pdfrwt beam="2">  1       -2 0.11367567E+00 0.74514019E+03</pdfrwt>
<totfact> 0.51921502E+00</totfact>
</mgrwt>
</event>
<event>
12    1  0.1335216E-007  0.7771731E+03  0.7818608E-02  0.9593659E-01
          2   -1    0    0  501    0  0.00000000000E+00  0.00000000000E+00  0.22981088123E+04  0.22981088123E+04  0.00000000000E+00 0.  1.
         -2   -1    0    0    0  501 -0.00000000000E+00 -0.00000000000E+00 -0.56095378980E+03  0.56095378980E+03  0.00000000000E+00 0. -1.
         23    2    1    2    0    0 -0.56406375762E+03 -0.37078376440E+03 -0.20992445949E+03  0.71291053833E+03  0.92328946484E+02 0.  0.
    5000000    2    1    2    0    0  0.56406375762E+03  0.37078376440E+03  0.19470794819E+04  0.21461520637E+04  0.59933433826E+03 0.  0.
         23    2    4    4    0    0 -0.97132294034E+02  0.60710183811E+02  0.18647923932E+03  0.23782701750E+03  0.93095513272E+02 0.  0.
         23    2    4    4    0    0  0.66119605166E+03  0.31007358059E+03  0.17606002426E+04  0.19083250462E+04  0.93088257182E+02 0.  0.
          3    1    3    3  502    0 -0.22351311544E+03 -0.15087646608E+03 -0.37034435417E+02  0.27220097390E+03  0.00000000000E+00 0.  1.
         -3    1    3    3    0  502 -0.34055064219E+03 -0.21990729832E+03 -0.17289002407E+03  0.44070956442E+03  0.00000000000E+00 0. -1.
         13    1    5    5    0    0 -0.85202424760E+02  0.45202966908E-01  0.11830625631E+03  0.14579377734E+03  0.00000000000E+00 0. -1.
        -13    1    5    5    0    0 -0.11929869273E+02  0.60664980844E+02  0.68172983012E+02  0.92033240160E+02  0.00000000000E+00 0.  1.
          1    1    6    6  503    0  0.29756411137E+03  0.11013661028E+03  0.86177020038E+03  0.91832584171E+03  0.00000000000E+00 0. -1.
         -1    1    6    6    0  503  0.36363194029E+03  0.19993697031E+03  0.89883004224E+03  0.98999920451E+03  0.00000000000E+00 0.  1.
<mgrwt>
<rscale>  0 0.77717314E+03</rscale>
<asrwt>0</asrwt>
<pdfrwt beam="1">  1        2 0.35355520E+00 0.77717314E+03</pdfrwt>
<pdfrwt beam="2">  1       -2 0.86300584E-01 0.77717314E+03</pdfrwt>
<totfact> 0.54962348E+00</totfact>
</mgrwt>
</event>
<event>
12    1  0.1335216E-007  0.1293454E+04  0.7818608E-02  0.9034772E-01
          1   -1    0    0  501    0  0.00000000000E+00  0.00000000000E+00  0.25171393729E+04  0.25171393729E+04  0.00000000000E+00 0. -1.
         -1   -1    0    0    0  501 -0.00000000000E+00 -0.00000000000E+00 -0.71932591197E+03  0.71932591197E+03  0.00000000000E+00 0.  1.
         23    2    1    2    0    0  0.11815301148E+04  0.34032819143E+03  0.12699143644E+04  0.17699802992E+04  0.91165107241E+02 0.  0.
    5000000    2    1    2    0    0 -0.11815301148E+04 -0.34032819143E+03  0.52789909662E+03  0.14664849857E+04  0.60005338683E+03 0.  0.
         23    2    4    4    0    0  0.32366237065E+01 -0.13144658651E+03  0.39413327051E+02  0.16514224835E+03  0.91814328964E+02 0.  0.
         23    2    4    4    0    0 -0.11847667385E+04 -0.20888160491E+03  0.48848576957E+03  0.13013427373E+04  0.87010479012E+02 0.  0.
          4    1    3    3  502    0  0.52429429343E+03  0.17078664838E+03  0.62862327361E+03  0.83619364116E+03  0.00000000000E+00 0. -1.
         -4    1    3    3    0  502  0.65723582135E+03  0.16954154305E+03  0.64129109074E+03  0.93378665805E+03  0.00000000000E+00 0.  1.
         13    1    5    5    0    0  0.40217322998E+02 -0.49319085221E+02 -0.66371216255E+01  0.63983252650E+02  0.00000000000E+00 0.  1.
        -13    1    5    5    0    0 -0.36980699291E+02 -0.82127501293E+02  0.46050448676E+02  0.10115899571E+03  0.00000000000E+00 0. -1.
          3    1    6    6  503    0 -0.23123411480E+03 -0.41109617787E+02  0.13340275189E+03  0.27010277809E+03  0.00000000000E+00 0. -1.
         -3    1    6    6    0  503 -0.95353262369E+03 -0.16777198713E+03  0.35508301768E+03  0.10312399592E+04  0.00000000000E+00 0.  1.
<mgrwt>
<rscale>  0 0.12934540E+04</rscale>
<asrwt>0</asrwt>
<pdfrwt beam="1">  1        1 0.38725221E+00 0.12934540E+04</pdfrwt>
<pdfrwt beam="2">  1       -1 0.11066553E+00 0.12934540E+04</pdfrwt>
<totfact> 0.96962047E-01</totfact>
</mgrwt>
</event>
<event>
12    1  0.1335216E-007  0.2128821E+04  0.7818608E-02  0.8548653E-01
         -1   -1    0    0    0  501 -0.00000000000E+00  0.00000000000E+00  0.24647313546E+04  0.24647313546E+04  0.00000000000E+00 0.  1.
          1   -1    0    0  501    0  0.00000000000E+00 -0.00000000000E+00 -0.18950985443E+04  0.18950985443E+04  0.00000000000E+00 0. -1.
         23    2    1    2    0    0 -0.20605213333E+04  0.48951628594E+03  0.22432043070E+03  0.21316895296E+04  0.91685527671E+02 0.  0.
    5000000    2    1    2    0    0  0.20605213333E+04 -0.48951628594E+03  0.34531237966E+03  0.22281403693E+04  0.59999542211E+03 0.  0.
         23    2    4    4    0    0  0.10213430491E+04 -0.38356147433E+03  0.42936390178E+03  0.11760568452E+04  0.92170030536E+02 0.  0.
         23    2    4    4    0    0  0.10391782842E+04 -0.10595481161E+03 -0.84051522118E+02  0.10520835240E+04  0.93258537370E+02 0.  0.
          2    1    3    3  502    0 -0.68455648330E+03  0.15084300986E+03  0.32478782875E+02  0.70173076304E+03  0.00000000000E+00 0. -1.
         -2    1    3    3    0  502 -0.13759648500E+04  0.33867327608E+03  0.19184164782E+03  0.14299587666E+04  0.00000000000E+00 0.  1.
         13    1    5    5    0    0  0.61822371240E+03 -0.18431186195E+03  0.24553911325E+03  0.69026145566E+03  0.00000000000E+00 0. -1.
        -13    1    5    5    0    0  0.40311933671E+03 -0.19924961238E+03  0.18382478852E+03  0.48579538959E+03  0.00000000000E+00 0.  1.
          1    1    6    6  503    0  0.13364228633E+03 -0.55026313800E+01  0.19334934884E+02  0.13514577076E+03  0.00000000000E+00 0. -1.
         -1    1    6    6    0  503  0.90553599782E+03 -0.10045218023E+03 -0.10338645700E+03  0.91693775326E+03  0.00000000000E+00 0.  1.
<mgrwt>
<rscale>  0 0.21288214E+04</rscale>
<asrwt>0</asrwt>
<pdfrwt beam="1">  1        1 0.29155362E+00 0.21288214E+04</pdfrwt>
<pdfrwt beam="2">  1       -1 0.37918944E+00 0.21288214E+04</pdfrwt>
<totfact> 0.30548879E-02</totfact>
</mgrwt>
</event>
<event>
12    1  0.1335216E-007  0.2954298E+03  0.7818608E-02  0.1087548E+00
         -1   -1    0    0    0  501 -0.00000000000E+00  0.00000000000E+00  0.15744889703E+03  0.15744889703E+03  0.00000000000E+00 0.  1.
          1   -1    0    0  501    0  0.00000000000E+00 -0.00000000000E+00 -0.86460483490E+03  0.86460483490E+03  0.00000000000E+00 0. -1.
         23    2    1    2    0    0 -0.37451087754E+02  0.60853589475E+02 -0.20808746998E+03  0.23862191230E+03  0.92381159004E+02 0.  0.
    5000000    2    1    2    0    0  0.37451087754E+02 -0.60853589475E+02 -0.49906846789E+03  0.78343181964E+03  0.59965851704E+03 0.  0.
         23    2    4    4    0    0 -0.15558905807E+03  0.11126074076E+03 -0.45820939860E+03  0.50510549020E+03  0.92675756483E+02 0.  0.
         23    2    4    4    0    0  0.19304014582E+03 -0.17211433023E+03 -0.40859069291E+02  0.27832632944E+03  0.94383481315E+02 0.  0.
          3    1    3    3  502    0 -0.89697624261E+01  0.79012598200E+02 -0.17022139295E+03  0.18787966875E+03  0.00000000000E+00 0. -1.
         -3    1    3    3    0  502 -0.28481325328E+02 -0.18159008725E+02 -0.37866077035E+02  0.50742243548E+02  0.00000000000E+00 0.  1.
         11    1    5    5    0    0 -0.16069875287E+03  0.11720434004E+03 -0.40373275185E+03  0.45006786312E+03  0.00000000000E+00 0. -1.
        -11    1    5    5    0    0  0.51096948007E+01 -0.59435992812E+01 -0.54476646745E+02  0.55037627074E+02  0.00000000000E+00 0.  1.
          3    1    6    6  503    0  0.17550212320E+03 -0.18017435585E+03 -0.23940849533E+02  0.25265976734E+03  0.00000000000E+00 0. -1.
         -3    1    6    6    0  503  0.17538022621E+02  0.80600256167E+01 -0.16918219758E+02  0.25666562103E+02  0.00000000000E+00 0.  1.
<mgrwt>
<rscale>  0 0.29542983E+03</rscale>
<asrwt>0</asrwt>
<pdfrwt beam="1">  1        1 0.13301613E+00 0.29542983E+03</pdfrwt>
<pdfrwt beam="2">  1       -1 0.24222908E-01 0.29542983E+03</pdfrwt>
<totfact> 0.30071683E+02</totfact>
</mgrwt>
</event>
<event>
12    1  0.1335216E-007  0.2638569E+04  0.7818608E-02  0.8355217E-01
          1   -1    0    0  501    0  0.00000000000E+00  0.00000000000E+00  0.28367133450E+04  0.28367133450E+04  0.00000000000E+00 0. -1.
         -1   -1    0    0    0  501 -0.00000000000E+00 -0.00000000000E+00 -0.26799732884E+04  0.26799732884E+04  0.00000000000E+00 0.  1.
         23    2    1    2    0    0  0.23024046668E+04 -0.12235749600E+04 -0.71093409417E+03  0.27040768213E+04  0.91658261211E+02 0.  0.
    5000000    2    1    2    0    0 -0.23024046668E+04  0.12235749600E+04  0.86767415079E+03  0.28126098120E+04  0.59976044401E+03 0.  0.
         23    2    4    4    0    0 -0.65047380316E+03  0.83679753539E+02  0.28184449879E+03  0.71984773820E+03  0.92876126884E+02 0.  0.
         23    2    4    4    0    0 -0.16519308637E+04  0.11398952065E+04  0.58582965200E+03  0.20927620738E+04  0.90664526900E+02 0.  0.
          3    1    3    3  502    0  0.63983322692E+03 -0.35673564702E+03 -0.23976889677E+03  0.77080218213E+03  0.00000000000E+00 0. -1.
         -3    1    3    3    0  502  0.16625714399E+04 -0.86683931298E+03 -0.47116519739E+03  0.19332746392E+04  0.00000000000E+00 0.  1.
         13    1    5    5    0    0 -0.15841147875E+03  0.55897391829E+02  0.93397618205E+02  0.19220257568E+03  0.00000000000E+00 0. -1.
        -13    1    5    5    0    0 -0.49206232441E+03  0.27782361711E+02  0.18844688058E+03  0.52764516252E+03  0.00000000000E+00 0.  1.
          4    1    6    6  503    0 -0.13606083879E+04  0.89945066844E+03  0.46083373555E+03  0.16948847813E+04  0.00000000000E+00 0. -1.
         -4    1    6    6    0  503 -0.29132247577E+03  0.24044453802E+03  0.12499591645E+03  0.39787729249E+03  0.00000000000E+00 0.  1.
<mgrwt>
<rscale>  0 0.26385694E+04</rscale>
<asrwt>0</asrwt>
<pdfrwt beam="1">  1        1 0.43641744E+00 0.26385694E+04</pdfrwt>
<pdfrwt beam="2">  1       -1 0.41230358E+00 0.26385694E+04</pdfrwt>
<totfact> 0.38054290E-03</totfact>
</mgrwt>
</event>
<event>
12    1  0.1335216E-007  0.1547045E+04  0.7818608E-02  0.8853757E-01
          1   -1    0    0  501    0  0.00000000000E+00  0.00000000000E+00  0.21651043795E+04  0.21651043795E+04  0.00000000000E+00 0. -1.
         -1   -1    0    0    0  501 -0.00000000000E+00 -0.00000000000E+00 -0.11585598220E+04  0.11585598220E+04  0.00000000000E+00 0.  1.
         23    2    1    2    0    0  0.14769330988E+04  0.23108323369E+03  0.16641200994E+03  0.15069091850E+04  0.91386516849E+02 0.  0.
    5000000    2    1    2    0    0 -0.14769330988E+04 -0.23108323369E+03  0.84013254753E+03  0.18167550166E+04  0.60003771001E+03 0.  0.
         23    2    4    4    0    0 -0.10192583347E+04 -0.42065458669E+03  0.59340170244E+03  0.12556334777E+04  0.93016212282E+02 0.  0.
         23    2    4    4    0    0 -0.45767476413E+03  0.18957135300E+03  0.24673084509E+03  0.56112153883E+03  0.92616325917E+02 0.  0.
          1    1    3    3  502    0  0.62307622653E+03  0.84413429963E+02  0.26537000733E+02  0.62932807313E+03  0.00000000000E+00 0. -1.
         -1    1    3    3    0  502  0.85385687230E+03  0.14666980373E+03  0.13987500921E+03  0.87758111187E+03  0.00000000000E+00 0.  1.
         11    1    5    5    0    0 -0.13532605564E+03 -0.46841075566E+02  0.44158242273E+02  0.14985719221E+03  0.00000000000E+00 0.  1.
        -11    1    5    5    0    0 -0.88393227906E+03 -0.37381351113E+03  0.54924346016E+03  0.11057762855E+04  0.00000000000E+00 0. -1.
          2    1    6    6  503    0 -0.31527588903E+03  0.11776607336E+03  0.21245511432E+03  0.39800114301E+03  0.00000000000E+00 0. -1.
         -2    1    6    6    0  503 -0.14239887510E+03  0.71805279640E+02  0.34275730773E+02  0.16312039582E+03  0.00000000000E+00 0.  1.
<mgrwt>
<rscale>  0 0.15470454E+04</rscale>
<asrwt>0</asrwt>
<pdfrwt beam="1">  1        1 0.33309298E+00 0.15470454E+04</pdfrwt>
<pdfrwt beam="2">  1       -1 0.17823997E+00 0.15470454E+04</pdfrwt>
<totfact> 0.46449841E-01</totfact>
</mgrwt>
</event>
<event>
12    1  0.1335216E-007  0.1351934E+04  0.7818608E-02  0.8989365E-01
         -1   -1    0    0    0  501 -0.00000000000E+00  0.00000000000E+00  0.22929019267E+04  0.22929019267E+04  0.00000000000E+00 0.  1.
          1   -1    0    0  501    0  0.00000000000E+00 -0.00000000000E+00 -0.15778753192E+04  0.15778753192E+04  0.00000000000E+00 0. -1.
         23    2    1    2    0    0  0.12952786621E+04  0.15895516830E+03  0.16875096416E+04  0.21361241859E+04  0.11101436322E+03 0.  0.
    5000000    2    1    2    0    0 -0.12952786621E+04 -0.15895516830E+03 -0.97248303406E+03  0.17346530600E+04  0.60023697750E+03 0.  0.
         23    2    4    4    0    0 -0.99371463868E+03  0.89073208491E+02 -0.51550843006E+03  0.11266789282E+04  0.90849580275E+02 0.  0.
         23    2    4    4    0    0 -0.30156402341E+03 -0.24802837680E+03 -0.45697460400E+03  0.60797413181E+03  0.91366407068E+02 0.  0.
          4    1    3    3  502    0  0.45667336077E+03  0.10441689539E+03  0.64171126729E+03  0.79451041343E+03  0.00000000000E+00 0.  1.
         -4    1    3    3    0  502  0.83860530132E+03  0.54538272914E+02  0.10457983743E+04  0.13416137724E+04  0.00000000000E+00 0. -1.
         13    1    5    5    0    0 -0.27092281123E+03  0.29594714968E+02 -0.96571130928E+02  0.28913837539E+03  0.00000000000E+00 0.  1.
        -13    1    5    5    0    0 -0.72279182745E+03  0.59478493523E+02 -0.41893729913E+03  0.83754055283E+03  0.00000000000E+00 0. -1.
          3    1    6    6  503    0 -0.17246115121E+03 -0.94453740704E+02 -0.18479095313E+03  0.26983708820E+03  0.00000000000E+00 0. -1.
         -3    1    6    6    0  503 -0.12910287219E+03 -0.15357463609E+03 -0.27218365087E+03  0.33813704361E+03  0.00000000000E+00 0.  1.
<mgrwt>
<rscale>  0 0.13519341E+04</rscale>
<asrwt>0</asrwt>
<pdfrwt beam="1">  1        1 0.24275005E+00 0.13519341E+04</pdfrwt>
<pdfrwt beam="2">  1       -1 0.35275414E+00 0.13519341E+04</pdfrwt>
<totfact> 0.83114034E-02</totfact>
</mgrwt>
</event>
<event>
12    1  0.1335216E-007  0.1132194E+04  0.7818608E-02  0.9174370E-01
          1   -1    0    0  501    0  0.00000000000E+00  0.00000000000E+00  0.20666297741E+04  0.20666297741E+04  0.00000000000E+00 0. -1.
         -1   -1    0    0    0  501 -0.00000000000E+00 -0.00000000000E+00 -0.82725158868E+03  0.82725158868E+03  0.00000000000E+00 0.  1.
         23    2    1    2    0    0  0.91812504690E+03  0.54846986428E+03 -0.10032476216E+03  0.10779305447E+04  0.89980039827E+02 0.  0.
    5000000    2    1    2    0    0 -0.91812504690E+03 -0.54846986428E+03  0.13397029476E+04  0.18159508181E+04  0.59925002471E+03 0.  0.
         23    2    4    4    0    0  0.50158014074E+01  0.68319285474E+02  0.96815466732E+02  0.14673706376E+03  0.86405140182E+02 0.  0.
         23    2    4    4    0    0 -0.92314084830E+03 -0.61678914976E+03  0.12428874809E+04  0.16692137544E+04  0.94272936010E+02 0.  0.
          3    1    3    3  502    0  0.68094977444E+03  0.39497811110E+03 -0.11222776203E+03  0.79517002844E+03  0.00000000000E+00 0. -1.
         -3    1    3    3    0  502  0.23717527246E+03  0.15349175318E+03  0.11902999869E+02  0.28276051628E+03  0.00000000000E+00 0.  1.
         11    1    5    5    0    0 -0.73413627382E+00  0.73446882626E+02  0.29776220968E+02  0.79256588740E+02  0.00000000000E+00 0. -1.
        -11    1    5    5    0    0  0.57499376812E+01 -0.51275971514E+01  0.67039245765E+02  0.67480475017E+02  0.00000000000E+00 0.  1.
          1    1    6    6  503    0 -0.26341448533E+03 -0.22347940139E+03  0.41357141231E+03  0.53886134303E+03  0.00000000000E+00 0. -1.
         -1    1    6    6    0  503 -0.65972636297E+03 -0.39330974837E+03  0.82931606859E+03  0.11303524113E+04  0.00000000000E+00 0.  1.
<mgrwt>
<rscale>  0 0.11321935E+04</rscale>
<asrwt>0</asrwt>
<pdfrwt beam="1">  1        1 0.31794304E+00 0.11321935E+04</pdfrwt>
<pdfrwt beam="2">  1       -1 0.12726948E+00 0.11321935E+04</pdfrwt>
<totfact> 0.14267252E+00</totfact>
</mgrwt>
</event>
<event>
12    1  0.1335216E-007  0.7259686E+03  0.7818608E-02  0.9673825E-01
          1   -1    0    0  501    0  0.00000000000E+00  0.00000000000E+00  0.16450397666E+04  0.16450397666E+04  0.00000000000E+00 0. -1.
         -1   -1    0    0    0  501 -0.00000000000E+00 -0.00000000000E+00 -0.33155432573E+03  0.33155432573E+03  0.00000000000E+00 0.  1.
         23    2    1    2    0    0  0.48127782309E+03  0.36070844843E+03  0.70327214945E+03  0.93058451185E+03  0.98269475063E+02 0.  0.
    5000000    2    1    2    0    0 -0.48127782309E+03 -0.36070844843E+03  0.61021329137E+03  0.10460095804E+04  0.60003071058E+03 0.  0.
         23    2    4    4    0    0 -0.52509155089E+03 -0.46069268432E+03  0.54493924712E+03  0.89062252068E+03  0.91053858208E+02 0.  0.
         23    2    4    4    0    0  0.43813727792E+02  0.99984235889E+02  0.65274044251E+02  0.15538705976E+03  0.89263359328E+02 0.  0.
          4    1    3    3  502    0  0.30703420017E+03  0.17894669735E+03  0.45060788914E+03  0.57388098969E+03  0.00000000000E+00 0. -1.
         -4    1    3    3    0  502  0.17424362292E+03  0.18176175108E+03  0.25266426031E+03  0.35670352216E+03  0.00000000000E+00 0.  1.
         13    1    5    5    0    0 -0.78851297418E+02 -0.32264714826E+02  0.78744633717E+02  0.11601403478E+03  0.00000000000E+00 0. -1.
        -13    1    5    5    0    0 -0.44624025347E+03 -0.42842796949E+03  0.46619461341E+03  0.77460848590E+03  0.00000000000E+00 0.  1.
          1    1    6    6  503    0  0.40724146113E+02 -0.20593426176E+00  0.20738058377E+02  0.45700826587E+02  0.00000000000E+00 0. -1.
         -1    1    6    6    0  503  0.30895816798E+01  0.10019017015E+03  0.44535985874E+02  0.10968623317E+03  0.00000000000E+00 0.  1.
<mgrwt>
<rscale>  0 0.72596864E+03</rscale>
<asrwt>0</asrwt>
<pdfrwt beam="1">  1        1 0.25308304E+00 0.72596864E+03</pdfrwt>
<pdfrwt beam="2">  1       -1 0.51008359E-01 0.72596864E+03</pdfrwt>
<totfact> 0.20871111E+01</totfact>
</mgrwt>
</event>
<event>
12    1  0.1335216E-007  0.1046249E+04  0.7818608E-02  0.9259225E-01
         -2   -1    0    0    0  501 -0.00000000000E+00  0.00000000000E+00  0.40558239089E+03  0.40558239089E+03  0.00000000000E+00 0. -1.
          2   -1    0    0  501    0  0.00000000000E+00 -0.00000000000E+00 -0.28091706612E+04  0.28091706612E+04  0.00000000000E+00 0.  1.
         23    2    1    2    0    0 -0.90183695237E+03  0.34660490690E+03 -0.85384390041E+03  0.12924795413E+04  0.89493620785E+02 0.  0.
    5000000    2    1    2    0    0  0.90183695237E+03 -0.34660490690E+03 -0.15497443699E+04  0.19222735109E+04  0.59998582338E+03 0.  0.
         23    2    4    4    0    0  0.46269167650E+03  0.11676282685E+03 -0.76926098109E+03  0.90989724670E+03  0.91833530294E+02 0.  0.
         23    2    4    4    0    0  0.43914527586E+03 -0.46336773376E+03 -0.78048338884E+03  0.10123762642E+04  0.90516020507E+02 0.  0.
          1    1    3    3  502    0 -0.47230307914E+03  0.21016447055E+03 -0.40837908162E+03  0.65879646140E+03  0.00000000000E+00 0. -1.
         -1    1    3    3    0  502 -0.42953387323E+03  0.13644043635E+03 -0.44546481879E+03  0.63368307986E+03  0.00000000000E+00 0.  1.
         13    1    5    5    0    0  0.31673964947E+03  0.54403782771E+02 -0.57819910072E+03  0.66151188742E+03  0.00000000000E+00 0. -1.
        -13    1    5    5    0    0  0.14595202704E+03  0.62359044081E+02 -0.19106188037E+03  0.24838535928E+03  0.00000000000E+00 0.  1.
          2    1    6    6  503    0  0.49626291624E+02 -0.10203205561E+03 -0.14031280366E+03  0.18044664602E+03  0.00000000000E+00 0. -1.
         -2    1    6    6    0  503  0.38951898424E+03 -0.36133567815E+03 -0.64017058518E+03  0.83192961813E+03  0.00000000000E+00 0.  1.
<mgrwt>
<rscale>  0 0.10462488E+04</rscale>
<asrwt>0</asrwt>
<pdfrwt beam="1">  1        2 0.43218009E+00 0.10462488E+04</pdfrwt>
<pdfrwt beam="2">  1       -2 0.62397292E-01 0.10462488E+04</pdfrwt>
<totfact> 0.55041944E+00</totfact>
</mgrwt>
</event>
<event>
12    1  0.1335216E-007  0.3215091E+03  0.7818608E-02  0.1074957E+00
          2   -1    0    0  501    0  0.00000000000E+00  0.00000000000E+00  0.37862210760E+04  0.37862210760E+04  0.00000000000E+00 0. -1.
         -2   -1    0    0    0  501 -0.00000000000E+00 -0.00000000000E+00 -0.37236378817E+02  0.37236378817E+02  0.00000000000E+00 0.  1.
         23    2    1    2    0    0  0.36352628853E+02 -0.10039223166E+03  0.76957763645E+03  0.78244209471E+03  0.92551495084E+02 0.  0.
    5000000    2    1    2    0    0 -0.36352628853E+02  0.10039223166E+03  0.29794070608E+04  0.30410153601E+04  0.59958975398E+03 0.  0.
         23    2    4    4    0    0  0.20322909180E+03  0.19042440632E+03  0.21043243812E+04  0.21242302443E+04  0.81298900331E+02 0.  0.
         23    2    4    4    0    0 -0.23958172066E+03 -0.90032174665E+02  0.87508267956E+03  0.91678511584E+03  0.96021139408E+02 0.  0.
          1    1    3    3  502    0  0.48241436293E+01 -0.35340738360E+02  0.55238036445E+03  0.55353076443E+03  0.00000000000E+00 0. -1.
         -1    1    3    3    0  502  0.31528485224E+02 -0.65051493299E+02  0.21719727201E+03  0.22891133027E+03  0.00000000000E+00 0.  1.
         11    1    5    5    0    0  0.15943843782E+03  0.14651203566E+03  0.18415833635E+04  0.18542695804E+04  0.00000000000E+00 0.  1.
        -11    1    5    5    0    0  0.43790653985E+02  0.43912370663E+02  0.26274101767E+03  0.26996066387E+03  0.00000000000E+00 0. -1.
          1    1    6    6  503    0 -0.21303800142E+02 -0.29602655673E+01  0.17932908002E+02  0.28003647300E+02  0.00000000000E+00 0. -1.
         -1    1    6    6    0  503 -0.21827792051E+03 -0.87071909098E+02  0.85714977156E+03  0.88878146854E+03  0.00000000000E+00 0.  1.
<mgrwt>
<rscale>  0 0.32150907E+03</rscale>
<asrwt>0</asrwt>
<pdfrwt beam="1">  1        2 0.58249525E+00 0.32150907E+03</pdfrwt>
<pdfrwt beam="2">  1       -2 0.57286767E-02 0.32150907E+03</pdfrwt>
<totfact> 0.10054317E+02</totfact>
</mgrwt>
</event>
<event>
12    1  0.1335216E-007  0.1206222E+04  0.7818608E-02  0.9107428E-01
         -2   -1    0    0    0  501 -0.00000000000E+00  0.00000000000E+00  0.44745237355E+03  0.44745237355E+03  0.00000000000E+00 0.  1.
          2   -1    0    0  501    0  0.00000000000E+00 -0.00000000000E+00 -0.33037859302E+04  0.33037859302E+04  0.00000000000E+00 0. -1.
         23    2    1    2    0    0 -0.69252617367E+03  0.90545190948E+03 -0.13519332079E+04  0.17706283972E+04  0.89251671259E+02 0.  0.
    5000000    2    1    2    0    0  0.69252617367E+03 -0.90545190948E+03 -0.15044003488E+04  0.19806099066E+04  0.60013292776E+03 0.  0.
         23    2    4    4    0    0  0.29053379329E+03 -0.79262736647E+03 -0.11210525267E+04  0.14064213185E+04  0.92704533777E+02 0.  0.
         23    2    4    4    0    0  0.40199238038E+03 -0.11282454301E+03 -0.38334782212E+03  0.57418858803E+03  0.91704582838E+02 0.  0.
          1    1    3    3  502    0 -0.12774695250E+03  0.11773599831E+03 -0.22319341174E+03  0.28283625690E+03  0.00000000000E+00 0. -1.
         -1    1    3    3    0  502 -0.56477922117E+03  0.78771591117E+03 -0.11287397962E+04  0.14877921403E+04  0.00000000000E+00 0.  1.
         11    1    5    5    0    0  0.19648128056E+03 -0.54023905820E+03 -0.68938403225E+03  0.89761543967E+03  0.00000000000E+00 0. -1.
        -11    1    5    5    0    0  0.94052512737E+02 -0.25238830827E+03 -0.43166849440E+03  0.50880587886E+03  0.00000000000E+00 0.  1.
          4    1    6    6  503    0  0.38162072919E+03 -0.12493578950E+03 -0.34652882909E+03  0.53040132148E+03  0.00000000000E+00 0. -1.
         -4    1    6    6    0  503  0.20371651193E+02  0.12111246490E+02 -0.36818993033E+02  0.43787266549E+02  0.00000000000E+00 0.  1.
<mgrwt>
<rscale>  0 0.12062220E+04</rscale>
<asrwt>0</asrwt>
<pdfrwt beam="1">  1        2 0.50827474E+00 0.12062220E+04</pdfrwt>
<pdfrwt beam="2">  1       -2 0.68838829E-01 0.12062220E+04</pdfrwt>
<totfact> 0.21353443E+00</totfact>
</mgrwt>
</event>
<event>
12    1  0.1335216E-007  0.6871647E+03  0.7818608E-02  0.9739438E-01
          1   -1    0    0  501    0  0.00000000000E+00  0.00000000000E+00  0.11879564570E+04  0.11879564570E+04  0.00000000000E+00 0. -1.
         -1   -1    0    0    0  501 -0.00000000000E+00 -0.00000000000E+00 -0.56187220980E+03  0.56187220980E+03  0.00000000000E+00 0.  1.
         23    2    1    2    0    0  0.12386242252E+03 -0.57664974048E+03 -0.13906272321E+03  0.61259106775E+03  0.89791716709E+02 0.  0.
    5000000    2    1    2    0    0 -0.12386242252E+03  0.57664974048E+03  0.76514697041E+03  0.11372375991E+04  0.59999387286E+03 0.  0.
         23    2    4    4    0    0 -0.21268679940E+03  0.18916301446E+02  0.39015324685E+03  0.45322806517E+03  0.87193015381E+02 0.  0.
         23    2    4    4    0    0  0.88824376881E+02  0.55773343903E+03  0.37499372356E+03  0.68400953388E+03  0.91062565241E+02 0.  0.
          2    1    3    3  502    0  0.55740396096E+02 -0.16365052222E+03 -0.45987390818E+01  0.17294401864E+03  0.00000000000E+00 0.  1.
         -2    1    3    3    0  502  0.68122026422E+02 -0.41299921826E+03 -0.13446398413E+03  0.43964704911E+03  0.00000000000E+00 0. -1.
         13    1    5    5    0    0 -0.81165975960E+02  0.13125530272E+02  0.23918177649E+03  0.25291919145E+03  0.00000000000E+00 0. -1.
        -13    1    5    5    0    0 -0.13152082344E+03  0.57907711739E+01  0.15097147036E+03  0.20030887372E+03  0.00000000000E+00 0.  1.
          3    1    6    6  503    0  0.73120840239E+02  0.24035362262E+03  0.20088367488E+03  0.32166873025E+03  0.00000000000E+00 0. -1.
         -3    1    6    6    0  503  0.15703536642E+02  0.31737981641E+03  0.17411004868E+03  0.36234080363E+03  0.00000000000E+00 0.  1.
<mgrwt>
<rscale>  0 0.68716465E+03</rscale>
<asrwt>0</asrwt>
<pdfrwt beam="1">  1        1 0.18276253E+00 0.68716465E+03</pdfrwt>
<pdfrwt beam="2">  1       -1 0.86441878E-01 0.68716465E+03</pdfrwt>
<totfact> 0.14991826E+01</totfact>
</mgrwt>
</event>
<event>
12    1  0.1335216E-007  0.7267906E+03  0.7818608E-02  0.9672483E-01
         -2   -1    0    0    0  501 -0.00000000000E+00  0.00000000000E+00  0.48390780361E+03  0.48390780361E+03  0.00000000000E+00 0.  1.
          2   -1    0    0  501    0  0.00000000000E+00 -0.00000000000E+00 -0.13079391064E+04  0.13079391064E+04  0.00000000000E+00 0. -1.
         23    2    1    2    0    0 -0.46775486402E+03 -0.38532615916E+03 -0.10243514124E+02  0.61281392099E+03  0.90361000628E+02 0.  0.
    5000000    2    1    2    0    0  0.46775486402E+03  0.38532615916E+03 -0.81378778869E+03  0.11790329891E+04  0.60049759575E+03 0.  0.
         23    2    4    4    0    0 -0.33197423942E+02  0.32045486014E+03 -0.26546545394E+03  0.42814132114E+03  0.95077322657E+02 0.  0.
         23    2    4    4    0    0  0.50095228796E+03  0.64871299019E+02 -0.54832233475E+03  0.75089166792E+03  0.89551292038E+02 0.  0.
          3    1    3    3  502    0 -0.27455257114E+03 -0.17691370830E+03  0.18734754813E+02  0.32715220547E+03  0.00000000000E+00 0. -1.
         -3    1    3    3    0  502 -0.19320229288E+03 -0.20841245086E+03 -0.28978268937E+02  0.28566171553E+03  0.00000000000E+00 0.  1.
         13    1    5    5    0    0 -0.61349428101E+02  0.18343162546E+03 -0.17997627449E+03  0.26420138707E+03  0.00000000000E+00 0. -1.
        -13    1    5    5    0    0  0.28152004159E+02  0.13702323468E+03 -0.85489179451E+02  0.16393993407E+03  0.00000000000E+00 0.  1.
          4    1    6    6  503    0  0.23657818244E+03 -0.27277016753E+01 -0.29881120341E+03  0.38113621193E+03  0.00000000000E+00 0. -1.
         -4    1    6    6    0  503  0.26437410552E+03  0.67599000694E+02 -0.24951113134E+03  0.36975545598E+03  0.00000000000E+00 0.  1.
<mgrwt>
<rscale>  0 0.72679065E+03</rscale>
<asrwt>0</asrwt>
<pdfrwt beam="1">  1        2 0.20122140E+00 0.72679065E+03</pdfrwt>
<pdfrwt beam="2">  1       -2 0.74447355E-01 0.72679065E+03</pdfrwt>
<totfact> 0.27160311E+01</totfact>
</mgrwt>
</event>
<event>
12    1  0.1335216E-007  0.1643842E+04  0.7818608E-02  0.8794058E-01
          2   -1    0    0  501    0  0.00000000000E+00  0.00000000000E+00  0.29491847160E+04  0.29491847160E+04  0.00000000000E+00 0. -1.
         -2   -1    0    0    0  501 -0.00000000000E+00 -0.00000000000E+00 -0.94966343432E+03  0.94966343432E+03  0.00000000000E+00 0.  1.
         23    2    1    2    0    0  0.11134321692E+04  0.11397697932E+04  0.12992151663E+04  0.20577096307E+04  0.86037776669E+02 0.  0.
    5000000    2    1    2    0    0 -0.11134321692E+04 -0.11397697932E+04  0.70030611534E+03  0.18411385196E+04  0.60046316827E+03 0.  0.
         23    2    4    4    0    0 -0.58372867826E+03 -0.97435081635E+03  0.50330651919E+03  0.12454660078E+04  0.88144433802E+02 0.  0.
         23    2    4    4    0    0 -0.52970349090E+03 -0.16541897683E+03  0.19699959615E+03  0.59567251179E+03  0.89820233045E+02 0.  0.
          2    1    3    3  502    0  0.70099489864E+03  0.77513764543E+03  0.84143427750E+03  0.13417316649E+04  0.00000000000E+00 0. -1.
         -2    1    3    3    0  502  0.41243727052E+03  0.36463214775E+03  0.45778088879E+03  0.71597796574E+03  0.00000000000E+00 0.  1.
         13    1    5    5    0    0 -0.46923813039E+03 -0.76239514290E+03  0.35813941067E+03  0.96420672804E+03  0.00000000000E+00 0. -1.
        -13    1    5    5    0    0 -0.11449054788E+03 -0.21195567345E+03  0.14516710853E+03  0.28125927978E+03  0.00000000000E+00 0.  1.
          3    1    6    6  503    0 -0.31947280926E+03 -0.82490751519E+02  0.15989032132E+03  0.36665039860E+03  0.00000000000E+00 0. -1.
         -3    1    6    6    0  503 -0.21023068164E+03 -0.82928225307E+02  0.37109274830E+02  0.22902211320E+03  0.00000000000E+00 0.  1.
<mgrwt>
<rscale>  0 0.16438416E+04</rscale>
<asrwt>0</asrwt>
<pdfrwt beam="1">  1        2 0.45372072E+00 0.16438416E+04</pdfrwt>
<pdfrwt beam="2">  1       -2 0.14610207E+00 0.16438416E+04</pdfrwt>
<totfact> 0.56171597E-01</totfact>
</mgrwt>
</event>
<event>
12    1  0.1335216E-007  0.8098253E+03  0.7818608E-02  0.9545903E-01
         -1   -1    0    0    0  501 -0.00000000000E+00  0.00000000000E+00  0.43527447016E+03  0.43527447016E+03  0.00000000000E+00 0.  1.
          1   -1    0    0  501    0  0.00000000000E+00 -0.00000000000E+00 -0.18467787137E+04  0.18467787137E+04  0.00000000000E+00 0. -1.
         23    2    1    2    0    0 -0.64492508014E+03  0.45646109357E+03 -0.52081313347E+03  0.94881010888E+03  0.68623711465E+02 0.  0.
    5000000    2    1    2    0    0  0.64492508014E+03 -0.45646109357E+03 -0.89069111007E+03  0.13332430750E+04  0.59993445848E+03 0.  0.
         23    2    4    4    0    0  0.62654779142E+03 -0.43579141779E+03 -0.46712665403E+03  0.89950688470E+03  0.91809748804E+02 0.  0.
         23    2    4    4    0    0  0.18377288724E+02 -0.20669675782E+02 -0.42356445604E+03  0.43373619027E+03  0.89192343249E+02 0.  0.
          1    1    3    3  502    0 -0.42096995366E+03  0.28285528690E+03 -0.37017078879E+03  0.62789268835E+03  0.00000000000E+00 0. -1.
         -1    1    3    3    0  502 -0.22395512648E+03  0.17360580667E+03 -0.15064234468E+03  0.32091742053E+03  0.00000000000E+00 0.  1.
         11    1    5    5    0    0  0.50062038556E+03 -0.30055338686E+03 -0.35383368531E+03  0.68275279981E+03  0.00000000000E+00 0. -1.
        -11    1    5    5    0    0  0.12592740586E+03 -0.13523803093E+03 -0.11329296872E+03  0.21675408489E+03  0.00000000000E+00 0.  1.
          2    1    6    6  503    0  0.37405891408E+02 -0.16757320484E+02 -0.40431667474E+03  0.40638895405E+03  0.00000000000E+00 0. -1.
         -2    1    6    6    0  503 -0.19028602684E+02 -0.39123552983E+01 -0.19247781304E+02  0.27347236226E+02  0.00000000000E+00 0.  1.
<mgrwt>
<rscale>  0 0.80982525E+03</rscale>
<asrwt>0</asrwt>
<pdfrwt beam="1">  1        1 0.28411980E+00 0.80982525E+03</pdfrwt>
<pdfrwt beam="2">  1       -1 0.66965304E-01 0.80982525E+03</pdfrwt>
<totfact> 0.88511953E+00</totfact>
</mgrwt>
</event>
<event>
12    1  0.1335216E-007  0.6405169E+03  0.7818608E-02  0.9824738E-01
          2   -1    0    0  501    0  0.00000000000E+00  0.00000000000E+00  0.25875197377E+04  0.25875197377E+04  0.00000000000E+00 0. -1.
         -2   -1    0    0    0  501 -0.00000000000E+00 -0.00000000000E+00 -0.26795613864E+03  0.26795613864E+03  0.00000000000E+00 0.  1.
         23    2    1    2    0    0 -0.41471319956E+03  0.32552490581E+03  0.16825521682E+03  0.56066089078E+03  0.89873879840E+02 0.  0.
    5000000    2    1    2    0    0  0.41471319956E+03 -0.32552490581E+03  0.21513083822E+04  0.22948149855E+04  0.60007879502E+03 0.  0.
         23    2    4    4    0    0 -0.97798488975E+02 -0.18356039014E+03  0.96217976089E+03  0.98848734340E+03  0.89768449501E+02 0.  0.
         23    2    4    4    0    0  0.51251168854E+03 -0.14196451567E+03  0.11891286213E+04  0.13063276421E+04  0.98198146295E+02 0.  0.
          1    1    3    3  502    0 -0.20642904854E+03  0.18832505881E+03  0.47057297721E+02  0.28336137550E+03  0.00000000000E+00 0. -1.
         -1    1    3    3    0  502 -0.20828415102E+03  0.13719984699E+03  0.12119791910E+03  0.27729951528E+03  0.00000000000E+00 0.  1.
         13    1    5    5    0    0 -0.52460925405E+02 -0.37859928575E+02  0.43085953691E+03  0.43568964118E+03  0.00000000000E+00 0.  1.
        -13    1    5    5    0    0 -0.45337563570E+02 -0.14570046157E+03  0.53132022398E+03  0.55279770222E+03  0.00000000000E+00 0. -1.
          2    1    6    6  503    0  0.45526967082E+02 -0.30518980052E+02  0.19148266244E+03  0.19917259573E+03  0.00000000000E+00 0. -1.
         -2    1    6    6    0  503  0.46698472145E+03 -0.11144553561E+03  0.99764595887E+03  0.11071550464E+04  0.00000000000E+00 0.  1.
<mgrwt>
<rscale>  0 0.64051685E+03</rscale>
<asrwt>0</asrwt>
<pdfrwt beam="1">  1        2 0.39807994E+00 0.64051685E+03</pdfrwt>
<pdfrwt beam="2">  1       -2 0.41224023E-01 0.64051685E+03</pdfrwt>
<totfact> 0.18429008E+01</totfact>
</mgrwt>
</event>
<event>
12    1  0.1335216E-007  0.4698914E+03  0.7818608E-02  0.1021951E+00
         -2   -1    0    0    0  501 -0.00000000000E+00  0.00000000000E+00  0.21122747843E+03  0.21122747843E+03  0.00000000000E+00 0. -1.
          2   -1    0    0  501    0  0.00000000000E+00 -0.00000000000E+00 -0.12998485898E+04  0.12998485898E+04  0.00000000000E+00 0.  1.
         23    2    1    2    0    0  0.16002736787E+03  0.30515425862E+03 -0.34345066487E+03  0.49431275663E+03  0.87514925293E+02 0.  0.
    5000000    2    1    2    0    0 -0.16002736787E+03 -0.30515425862E+03 -0.74517044652E+03  0.10167633116E+04  0.59983394159E+03 0.  0.
         23    2    4    4    0    0  0.12189724891E+03  0.52089173729E+02 -0.27990967605E+02  0.16231754033E+03  0.89393894191E+02 0.  0.
         23    2    4    4    0    0 -0.28192461678E+03 -0.35724343235E+03 -0.71717947891E+03  0.85444577130E+03  0.92880630987E+02 0.  0.
          3    1    3    3  502    0  0.13085506432E+02  0.16463254375E+02  0.15269753361E+01  0.21085560862E+02  0.00000000000E+00 0. -1.
         -3    1    3    3    0  502  0.14694186143E+03  0.28869100424E+03 -0.34497764021E+03  0.47322719577E+03  0.00000000000E+00 0.  1.
         13    1    5    5    0    0  0.11016706913E+01  0.11985170860E+02  0.22398264218E+02  0.25427155540E+02  0.00000000000E+00 0. -1.
        -13    1    5    5    0    0  0.12079557822E+03  0.40104002869E+02 -0.50389231824E+02  0.13689038479E+03  0.00000000000E+00 0.  1.
          3    1    6    6  503    0 -0.19494302559E+03 -0.23222048288E+03 -0.39382888099E+03  0.49702145165E+03  0.00000000000E+00 0. -1.
         -3    1    6    6    0  503 -0.86981591183E+02 -0.12502294946E+03 -0.32335059793E+03  0.35742431965E+03  0.00000000000E+00 0.  1.
<mgrwt>
<rscale>  0 0.46989140E+03</rscale>
<asrwt>0</asrwt>
<pdfrwt beam="1">  1        2 0.19997671E+00 0.46989140E+03</pdfrwt>
<pdfrwt beam="2">  1       -2 0.32496535E-01 0.46989140E+03</pdfrwt>
<totfact> 0.15185381E+02</totfact>
</mgrwt>
</event>
<event>
12    1  0.1335216E-007  0.6009133E+03  0.7818608E-02  0.9903513E-01
          2   -1    0    0  501    0  0.00000000000E+00  0.00000000000E+00  0.22906415367E+04  0.22906415367E+04  0.00000000000E+00 0. -1.
         -2   -1    0    0    0  501 -0.00000000000E+00 -0.00000000000E+00 -0.17371305163E+03  0.17371305163E+03  0.00000000000E+00 0.  1.
         23    2    1    2    0    0 -0.46914619816E+03  0.11428508630E+03  0.82774615999E+03  0.96269567557E+03  0.91978378885E+02 0.  0.
    5000000    2    1    2    0    0  0.46914619816E+03 -0.11428508630E+03  0.12891823251E+04  0.15016589127E+04  0.59985763878E+03 0.  0.
         23    2    4    4    0    0  0.68333021959E+01  0.15404572826E+03  0.11612779136E+03  0.20928931487E+03  0.80867626276E+02 0.  0.
         23    2    4    4    0    0  0.46231289596E+03 -0.26833081456E+03  0.11730545337E+04  0.12923695979E+04  0.91801953523E+02 0.  0.
          3    1    3    3  502    0 -0.13547815590E+03  0.69071939929E+02  0.30648800312E+03  0.34214055543E+03  0.00000000000E+00 0. -1.
         -3    1    3    3    0  502 -0.33366804226E+03  0.45213146370E+02  0.52125815687E+03  0.62055512014E+03  0.00000000000E+00 0.  1.
         11    1    5    5    0    0  0.40589989246E+02  0.85221445098E+02  0.83320784910E+02  0.12590708927E+03  0.00000000000E+00 0.  1.
        -11    1    5    5    0    0 -0.33756687050E+02  0.68824283164E+02  0.32807006448E+02  0.83382225598E+02  0.00000000000E+00 0. -1.
          3    1    6    6  503    0  0.14521015009E+03 -0.13405505002E+03  0.40470639310E+03  0.45038206974E+03  0.00000000000E+00 0. -1.
         -3    1    6    6    0  503  0.31710274587E+03 -0.13427576454E+03  0.76834814059E+03  0.84198752813E+03  0.00000000000E+00 0.  1.
<mgrwt>
<rscale>  0 0.60091332E+03</rscale>
<asrwt>0</asrwt>
<pdfrwt beam="1">  1        2 0.35240637E+00 0.60091332E+03</pdfrwt>
<pdfrwt beam="2">  1       -2 0.26725086E-01 0.60091332E+03</pdfrwt>
<totfact> 0.61538817E+01</totfact>
</mgrwt>
</event>
<event>
12    1  0.1335216E-007  0.4171536E+03  0.7818608E-02  0.1037997E+00
         -2   -1    0    0    0  501 -0.00000000000E+00  0.00000000000E+00  0.89965739033E+02  0.89965739033E+02  0.00000000000E+00 0.  1.
          2   -1    0    0  501    0  0.00000000000E+00 -0.00000000000E+00 -0.27634373859E+04  0.27634373859E+04  0.00000000000E+00 0. -1.
         23    2    1    2    0    0 -0.12690696201E+02  0.22806918765E+03 -0.26939526453E+03  0.36503125903E+03  0.92181361380E+02 0.  0.
    5000000    2    1    2    0    0  0.12690696201E+02 -0.22806918765E+03 -0.24040763823E+04  0.24883718659E+04  0.60019553714E+03 0.  0.
         23    2    4    4    0    0  0.18206510594E+03 -0.33698766748E+03 -0.18756872198E+04  0.19165882888E+04  0.91650048341E+02 0.  0.
         23    2    4    4    0    0 -0.16937440974E+03  0.10891847983E+03 -0.52838916251E+03  0.57178357710E+03  0.84796379954E+02 0.  0.
          1    1    3    3  502    0  0.28488668982E+02  0.16658867057E+03 -0.21349327371E+03  0.27229169532E+03  0.00000000000E+00 0. -1.
         -1    1    3    3    0  502 -0.41179365184E+02  0.61480517085E+02 -0.55901990826E+02  0.92739563706E+02  0.00000000000E+00 0.  1.
         11    1    5    5    0    0  0.10024250707E+03 -0.21279566002E+03 -0.13468524026E+04  0.13672388041E+04  0.00000000000E+00 0. -1.
        -11    1    5    5    0    0  0.81822598872E+02 -0.12419200746E+03 -0.52883481719E+03  0.54934948464E+03  0.00000000000E+00 0.  1.
          2    1    6    6  503    0 -0.12737237538E+03  0.54323802116E+02 -0.25861023391E+03  0.29334970695E+03  0.00000000000E+00 0. -1.
         -2    1    6    6    0  503 -0.42002034359E+02  0.54594677714E+02 -0.26977892860E+03  0.27843387014E+03  0.00000000000E+00 0.  1.
<mgrwt>
<rscale>  0 0.41715362E+03</rscale>
<asrwt>0</asrwt>
<pdfrwt beam="1">  1        2 0.42514421E+00 0.41715362E+03</pdfrwt>
<pdfrwt beam="2">  1       -2 0.13840883E-01 0.41715362E+03</pdfrwt>
<totfact> 0.10786579E+02</totfact>
</mgrwt>
</event>
<event>
12    1  0.1335216E-007  0.1612735E+04  0.7818608E-02  0.8812762E-01
          1   -1    0    0  501    0  0.00000000000E+00  0.00000000000E+00  0.28395596087E+04  0.28395596087E+04  0.00000000000E+00 0. -1.
         -1   -1    0    0    0  501 -0.00000000000E+00 -0.00000000000E+00 -0.95140041006E+03  0.95140041006E+03  0.00000000000E+00 0.  1.
         23    2    1    2    0    0  0.78177421194E+03  0.13518761343E+04  0.58436729275E+03  0.16699299609E+04  0.91874590557E+02 0.  0.
    5000000    2    1    2    0    0 -0.78177421194E+03 -0.13518761343E+04  0.13037919058E+04  0.21210300578E+04  0.60012929568E+03 0.  0.
         23    2    4    4    0    0  0.26906197453E+02 -0.43124714420E+03  0.28708895958E+03  0.52556833152E+03  0.84284978141E+02 0.  0.
         23    2    4    4    0    0 -0.80868040939E+03 -0.92062899012E+03  0.10167029463E+04  0.15954617263E+04  0.10144701689E+03 0.  0.
          3    1    3    3  502    0  0.38648097078E+03  0.75195955126E+03  0.29612973785E+03  0.89582561314E+03  0.00000000000E+00 0. -1.
         -3    1    3    3    0  502  0.39529324115E+03  0.59991658306E+03  0.28823755490E+03  0.77410434774E+03  0.00000000000E+00 0.  1.
         11    1    5    5    0    0  0.20192391519E+02 -0.26221224900E+03  0.12463223043E+03  0.29102609688E+03  0.00000000000E+00 0. -1.
        -11    1    5    5    0    0  0.67138059340E+01 -0.16903489520E+03  0.16245672915E+03  0.23454223464E+03  0.00000000000E+00 0.  1.
          3    1    6    6  503    0 -0.69124432288E+03 -0.72869921143E+03  0.82091167306E+03  0.12971959103E+04  0.00000000000E+00 0. -1.
         -3    1    6    6    0  503 -0.11743608651E+03 -0.19192977868E+03  0.19579127321E+03  0.29826581605E+03  0.00000000000E+00 0.  1.
<mgrwt>
<rscale>  0 0.16127351E+04</rscale>
<asrwt>0</asrwt>
<pdfrwt beam="1">  1        1 0.43685532E+00 0.16127351E+04</pdfrwt>
<pdfrwt beam="2">  1       -1 0.14636930E+00 0.16127351E+04</pdfrwt>
<totfact> 0.27331803E-01</totfact>
</mgrwt>
</event>
<event>
12    1  0.1335216E-007  0.7036383E+03  0.7818608E-02  0.9711030E-01
         -1   -1    0    0    0  501 -0.00000000000E+00  0.00000000000E+00  0.11919254372E+04  0.11919254372E+04  0.00000000000E+00 0.  1.
          1   -1    0    0  501    0  0.00000000000E+00 -0.00000000000E+00 -0.44004970704E+03  0.44004970704E+03  0.00000000000E+00 0. -1.
         23    2    1    2    0    0  0.48495685970E+03  0.34399184092E+03  0.27143715056E+03  0.66025157320E+03  0.93490485161E+02 0.  0.
    5000000    2    1    2    0    0 -0.48495685970E+03 -0.34399184092E+03  0.48043857963E+03  0.97172357107E+03  0.59992660166E+03 0.  0.
         23    2    4    4    0    0  0.10189801805E+03 -0.15543651890E+02  0.18826871895E+03  0.23348731280E+03  0.91904317140E+02 0.  0.
         23    2    4    4    0    0 -0.58685487775E+03 -0.32844818903E+03  0.29216986069E+03  0.73823625826E+03  0.85747799388E+02 0.  0.
          4    1    3    3  502    0  0.60788619512E+02  0.25627541576E+02  0.35092933201E+01  0.66063168929E+02  0.00000000000E+00 0. -1.
         -4    1    3    3    0  502  0.42416824019E+03  0.31836429935E+03  0.26792785724E+03  0.59418840427E+03  0.00000000000E+00 0.  1.
         13    1    5    5    0    0  0.41758747487E+02  0.38780671011E+02  0.81335511084E+02  0.99313638535E+02  0.00000000000E+00 0. -1.
        -13    1    5    5    0    0  0.60139270567E+02 -0.54324322901E+02  0.10693320786E+03  0.13417367427E+03  0.00000000000E+00 0.  1.
          1    1    6    6  503    0 -0.28475182030E+03 -0.14597910275E+03  0.18390063440E+03  0.36907037396E+03  0.00000000000E+00 0. -1.
         -1    1    6    6    0  503 -0.30210305745E+03 -0.18246908629E+03  0.10826922629E+03  0.36916588430E+03  0.00000000000E+00 0.  1.
<mgrwt>
<rscale>  0 0.70363826E+03</rscale>
<asrwt>0</asrwt>
<pdfrwt beam="1">  1        1 0.67699955E-01 0.70363826E+03</pdfrwt>
<pdfrwt beam="2">  1       -1 0.18337314E+00 0.70363826E+03</pdfrwt>
<totfact> 0.10767667E+01</totfact>
</mgrwt>
</event>
<event>
12    1  0.1385114E-007  0.1177649E+04  0.7818608E-02  0.9132648E-01
         -2   -1    0    0    0  501 -0.00000000000E+00  0.00000000000E+00  0.92205357745E+03  0.92205357745E+03  0.00000000000E+00 0.  1.
          2   -1    0    0  501    0  0.00000000000E+00 -0.00000000000E+00 -0.16292983188E+04  0.16292983188E+04  0.00000000000E+00 0. -1.
         23    2    1    2    0    0  0.11101660628E+04  0.16630987192E+03 -0.59469822893E+03  0.12735447375E+04  0.90125216159E+02 0.  0.
    5000000    2    1    2    0    0 -0.11101660628E+04 -0.16630987192E+03 -0.11254651245E+03  0.12778071587E+04  0.59999729754E+03 0.  0.
         23    2    4    4    0    0 -0.10977098135E+04 -0.26270532339E+03 -0.56624089821E+02  0.11335255084E+04  0.87709001905E+02 0.  0.
         23    2    4    4    0    0 -0.12456249286E+02  0.96395451476E+02 -0.55922422625E+02  0.14428165038E+03  0.90788964480E+02 0.  0.
          3    1    3    3  502    0  0.80251484014E+03  0.79401495309E+02 -0.43081253512E+03  0.91429432161E+03  0.00000000000E+00 0. -1.
         -3    1    3    3    0  502  0.30765122263E+03  0.86908376610E+02 -0.16388569381E+03  0.35925041593E+03  0.00000000000E+00 0.  1.
         13    1    5    5    0    0 -0.39781428717E+03 -0.52957138106E+02 -0.11622341951E+02  0.40149189828E+03  0.00000000000E+00 0. -1.
        -13    1    5    5    0    0 -0.69989552631E+03 -0.20974818529E+03 -0.45001747870E+02  0.73203361009E+03  0.00000000000E+00 0.  1.
          1    1    6    6  503    0 -0.84968908003E+01  0.62254898512E+02  0.15766238637E+02  0.64779964671E+02  0.00000000000E+00 0. -1.
         -1    1    6    6    0  503 -0.39593584858E+01  0.34140552964E+02 -0.71688661262E+02  0.79501685704E+02  0.00000000000E+00 0.  1.
<mgrwt>
<rscale>  0 0.11776492E+04</rscale>
<asrwt>0</asrwt>
<pdfrwt beam="1">  1        2 0.25066127E+00 0.11776492E+04</pdfrwt>
<pdfrwt beam="2">  1       -2 0.14185440E+00 0.11776492E+04</pdfrwt>
<totfact> 0.36333982E+00</totfact>
</mgrwt>
</event>
<event>
12    1  0.1335216E-007  0.6036444E+03  0.7818608E-02  0.9897874E-01
          1   -1    0    0  501    0  0.00000000000E+00  0.00000000000E+00  0.10883813912E+04  0.10883813912E+04  0.00000000000E+00 0. -1.
         -1   -1    0    0    0  501 -0.00000000000E+00 -0.00000000000E+00 -0.46789244700E+03  0.46789244700E+03  0.00000000000E+00 0.  1.
         23    2    1    2    0    0 -0.32693922981E+03  0.37754040595E+03  0.58264666322E+03  0.77474250922E+03  0.10640866183E+03 0.  0.
    5000000    2    1    2    0    0  0.32693922981E+03 -0.37754040595E+03  0.37842280971E+02  0.78153132897E+03  0.59994429893E+03 0.  0.
         23    2    4    4    0    0  0.15250025578E+03  0.90817945708E+02 -0.14019419356E+03  0.24367996479E+03  0.90671307774E+02 0.  0.
         23    2    4    4    0    0  0.17443897402E+03 -0.46835835166E+03  0.17803647453E+03  0.53785136419E+03  0.88309696322E+02 0.  0.
          2    1    3    3  502    0 -0.40022726423E+02  0.48974030962E+01  0.44556134094E+02  0.60092031692E+02  0.00000000000E+00 0. -1.
         -2    1    3    3    0  502 -0.28691650338E+03  0.37264300286E+03  0.53809052913E+03  0.71465047753E+03  0.00000000000E+00 0.  1.
         13    1    5    5    0    0  0.29585535424E+02  0.60610508198E+02 -0.23214256211E+02  0.71329091553E+02  0.00000000000E+00 0.  1.
        -13    1    5    5    0    0  0.12291472036E+03  0.30207437510E+02 -0.11697993735E+03  0.17235087323E+03  0.00000000000E+00 0. -1.
          4    1    6    6  503    0  0.34647969003E+02 -0.16544495764E+03  0.95632039399E+02  0.19421123223E+03  0.00000000000E+00 0. -1.
         -4    1    6    6    0  503  0.13979100502E+03 -0.30291339402E+03  0.82404435133E+02  0.34364013195E+03  0.00000000000E+00 0.  1.
<mgrwt>
<rscale>  0 0.60364442E+03</rscale>
<asrwt>0</asrwt>
<pdfrwt beam="1">  1        1 0.16744329E+00 0.60364442E+03</pdfrwt>
<pdfrwt beam="2">  1       -1 0.71983454E-01 0.60364442E+03</pdfrwt>
<totfact> 0.26415983E+01</totfact>
</mgrwt>
</event>
<event>
12    1  0.1335216E-007  0.1032578E+04  0.7818608E-02  0.9273519E-01
         -2   -1    0    0    0  501 -0.00000000000E+00  0.00000000000E+00  0.53561101789E+03  0.53561101789E+03  0.00000000000E+00 0.  1.
          2   -1    0    0  501    0  0.00000000000E+00 -0.00000000000E+00 -0.25120210040E+04  0.25120210040E+04  0.00000000000E+00 0. -1.
         23    2    1    2    0    0 -0.82170604886E+03 -0.49011476585E+03 -0.15825686763E+04  0.18515544381E+04  0.91197081667E+02 0.  0.
    5000000    2    1    2    0    0  0.82170604886E+03  0.49011476585E+03 -0.39384130979E+03  0.11960775837E+04  0.60006440868E+03 0.  0.
         23    2    4    4    0    0 -0.57071013691E+02  0.12897281368E+03 -0.63299338338E+02  0.18556958798E+03  0.10265563052E+03 0.  0.
         23    2    4    4    0    0  0.87877706255E+03  0.36114195217E+03 -0.33054197145E+03  0.10105079957E+04  0.95894625998E+02 0.  0.
          2    1    3    3  502    0 -0.28584069897E+03 -0.14129920440E+03 -0.59542219095E+03  0.67542427838E+03  0.00000000000E+00 0. -1.
         -2    1    3    3    0  502 -0.53586534989E+03 -0.34881556146E+03 -0.98714648533E+03  0.11761301597E+04  0.00000000000E+00 0.  1.
         11    1    5    5    0    0 -0.54307956592E+02  0.13620987990E+03 -0.27818147280E+02  0.14925258741E+03  0.00000000000E+00 0.  1.
        -11    1    5    5    0    0 -0.27630570995E+01 -0.72370662140E+01 -0.35481191058E+02  0.36317000575E+02  0.00000000000E+00 0. -1.
          4    1    6    6  503    0  0.30910184441E+03  0.92253650081E+02 -0.14608601949E+03  0.35411270982E+03  0.00000000000E+00 0. -1.
         -4    1    6    6    0  503  0.56967521814E+03  0.26888830209E+03 -0.18445595196E+03  0.65639528592E+03  0.00000000000E+00 0.  1.
<mgrwt>
<rscale>  0 0.10325777E+04</rscale>
<asrwt>0</asrwt>
<pdfrwt beam="1">  1        2 0.38646477E+00 0.10325777E+04</pdfrwt>
<pdfrwt beam="2">  1       -2 0.82401696E-01 0.10325777E+04</pdfrwt>
<totfact> 0.44555337E+00</totfact>
</mgrwt>
</event>
<event>
12    1  0.1335216E-007  0.8685481E+03  0.7818608E-02  0.9465775E-01
         -2   -1    0    0    0  501 -0.00000000000E+00  0.00000000000E+00  0.75659606296E+03  0.75659606296E+03  0.00000000000E+00 0. -1.
          2   -1    0    0  501    0  0.00000000000E+00 -0.00000000000E+00 -0.11245159079E+04  0.11245159079E+04  0.00000000000E+00 0.  1.
         23    2    1    2    0    0  0.68736543227E+03 -0.37463378575E+03 -0.41961987150E+03  0.89323009674E+03  0.94643849606E+02 0.  0.
    5000000    2    1    2    0    0 -0.68736543227E+03  0.37463378575E+03  0.51700026609E+02  0.98788187407E+03  0.60034656114E+03 0.  0.
         23    2    4    4    0    0 -0.36931542691E+02 -0.10341767690E+03 -0.81836861753E+02  0.16472855949E+03  0.91537269076E+02 0.  0.
         23    2    4    4    0    0 -0.65043388957E+03  0.47805146264E+03  0.13353688836E+03  0.82315331458E+03  0.90287502499E+02 0.  0.
          3    1    3    3  502    0  0.43371488776E+03 -0.19530167966E+03 -0.22078132479E+03  0.52440036548E+03  0.00000000000E+00 0. -1.
         -3    1    3    3    0  502  0.25365054450E+03 -0.17933210609E+03 -0.19883854671E+03  0.36882973126E+03  0.00000000000E+00 0.  1.
         11    1    5    5    0    0 -0.54598995256E+02 -0.25518969922E+02 -0.51532669476E+02  0.79296179808E+02  0.00000000000E+00 0. -1.
        -11    1    5    5    0    0  0.17667452565E+02 -0.77898706976E+02 -0.30304192277E+02  0.85432379683E+02  0.00000000000E+00 0.  1.
          3    1    6    6  503    0 -0.72411261288E+02  0.26313980972E+02  0.28105035249E+02  0.82010422278E+02  0.00000000000E+00 0. -1.
         -3    1    6    6    0  503 -0.57802262829E+03  0.45173748167E+03  0.10543185311E+03  0.74114289230E+03  0.00000000000E+00 0.  1.
<mgrwt>
<rscale>  0 0.86854807E+03</rscale>
<asrwt>0</asrwt>
<pdfrwt beam="1">  1        2 0.17300245E+00 0.86854807E+03</pdfrwt>
<pdfrwt beam="2">  1       -2 0.11639939E+00 0.86854807E+03</pdfrwt>
<totfact> 0.12109561E+01</totfact>
</mgrwt>
</event>
<event>
12    1  0.1335216E-007  0.8759480E+03  0.7818608E-02  0.9456157E-01
         -2   -1    0    0    0  501 -0.00000000000E+00  0.00000000000E+00  0.18699056023E+03  0.18699056023E+03  0.00000000000E+00 0.  1.
          2   -1    0    0  501    0  0.00000000000E+00 -0.00000000000E+00 -0.49560457053E+04  0.49560457053E+04  0.00000000000E+00 0. -1.
         23    2    1    2    0    0 -0.36157818414E+03  0.78426803890E+03 -0.23615761176E+04  0.25159058565E+04  0.83218864824E+02 0.  0.
    5000000    2    1    2    0    0  0.36157818414E+03 -0.78426803890E+03 -0.24074790274E+04  0.26271304090E+04  0.60003648076E+03 0.  0.
         23    2    4    4    0    0  0.22862753278E+03 -0.35747741402E+03 -0.48178379957E+03  0.64816376406E+03  0.89106594731E+02 0.  0.
         23    2    4    4    0    0  0.13295065136E+03 -0.42679062488E+03 -0.19256952279E+04  0.19789666449E+04  0.90447542808E+02 0.  0.
          1    1    3    3  502    0 -0.29379784002E+03  0.56212921862E+03 -0.16716396200E+04  0.17879276967E+04  0.00000000000E+00 0. -1.
         -1    1    3    3    0  502 -0.67780344116E+02  0.22213882028E+03 -0.68993649760E+03  0.72797815987E+03  0.00000000000E+00 0.  1.
         13    1    5    5    0    0  0.19271746385E+03 -0.33907898534E+03 -0.45703655573E+03  0.60083025261E+03  0.00000000000E+00 0.  1.
        -13    1    5    5    0    0  0.35910068928E+02 -0.18398428673E+02 -0.24747243845E+02  0.47333511448E+02  0.00000000000E+00 0. -1.
          3    1    6    6  503    0  0.36617772475E+02 -0.32003421289E+02 -0.25150734461E+03  0.25616600990E+03  0.00000000000E+00 0. -1.
         -3    1    6    6    0  503  0.96332878884E+02 -0.39478720359E+03 -0.16741878832E+04  0.17228006350E+04  0.00000000000E+00 0.  1.
<mgrwt>
<rscale>  0 0.87594799E+03</rscale>
<asrwt>0</asrwt>
<pdfrwt beam="1">  1        2 0.76246869E+00 0.87594799E+03</pdfrwt>
<pdfrwt beam="2">  1       -2 0.28767774E-01 0.87594799E+03</pdfrwt>
<totfact> 0.48917749E-01</totfact>
</mgrwt>
</event>
<event>
12    1  0.1335216E-007  0.5353904E+03  0.7818608E-02  0.1004933E+00
          1   -1    0    0  501    0  0.00000000000E+00  0.00000000000E+00  0.50871621713E+03  0.50871621713E+03  0.00000000000E+00 0. -1.
         -1   -1    0    0    0  501 -0.00000000000E+00 -0.00000000000E+00 -0.66052636565E+03  0.66052636565E+03  0.00000000000E+00 0.  1.
         23    2    1    2    0    0  0.29761481260E+03  0.25587748633E+03  0.89240261631E+02  0.41280901000E+03  0.91649275776E+02 0.  0.
    5000000    2    1    2    0    0 -0.29761481260E+03 -0.25587748633E+03 -0.24105041016E+03  0.75643357278E+03  0.60003215340E+03 0.  0.
         23    2    4    4    0    0 -0.44582893367E+03 -0.14551000089E+03 -0.57687742339E+02  0.48107865948E+03  0.90400235223E+02 0.  0.
         23    2    4    4    0    0  0.14821412107E+03 -0.11036748544E+03 -0.18336266782E+03  0.27535491331E+03  0.89722086500E+02 0.  0.
          4    1    3    3  502    0  0.22844264515E+03  0.18523759317E+03  0.10581198394E+03  0.31256228818E+03  0.00000000000E+00 0. -1.
         -4    1    3    3    0  502  0.69172167451E+02  0.70639893153E+02 -0.16571722308E+02  0.10024672182E+03  0.00000000000E+00 0.  1.
         11    1    5    5    0    0 -0.24331777402E+03 -0.49419468819E+02  0.49642229391E+01  0.24833539128E+03  0.00000000000E+00 0. -1.
        -11    1    5    5    0    0 -0.20251115965E+03 -0.96090532073E+02 -0.62651965278E+02  0.23274326820E+03  0.00000000000E+00 0.  1.
          1    1    6    6  503    0  0.11795036475E+03 -0.33283729200E+02 -0.10630927344E+03  0.16223981260E+03  0.00000000000E+00 0. -1.
         -1    1    6    6    0  503  0.30263756324E+02 -0.77083756235E+02 -0.77053394374E+02  0.11311510070E+03  0.00000000000E+00 0.  1.
<mgrwt>
<rscale>  0 0.53539042E+03</rscale>
<asrwt>0</asrwt>
<pdfrwt beam="1">  1        1 0.78264034E-01 0.53539042E+03</pdfrwt>
<pdfrwt beam="2">  1       -1 0.10161944E+00 0.53539042E+03</pdfrwt>
<totfact> 0.41568276E+01</totfact>
</mgrwt>
</event>
<event>
12    1  0.1335216E-007  0.9808505E+03  0.7818608E-02  0.9329801E-01
          1   -1    0    0  501    0  0.00000000000E+00  0.00000000000E+00  0.93212727370E+03  0.93212727370E+03  0.00000000000E+00 0. -1.
         -1   -1    0    0    0  501 -0.00000000000E+00 -0.00000000000E+00 -0.12174988896E+04  0.12174988896E+04  0.00000000000E+00 0.  1.
         23    2    1    2    0    0  0.17096223153E+03  0.95093526312E+03  0.26097203481E+02  0.97053316970E+03  0.88020510099E+02 0.  0.
    5000000    2    1    2    0    0 -0.17096223153E+03 -0.95093526312E+03 -0.31146881942E+03  0.11790929936E+04  0.59978454710E+03 0.  0.
         23    2    4    4    0    0 -0.19607646946E+03 -0.80999662760E+03 -0.45942716266E+03  0.95610537204E+03  0.92323594269E+02 0.  0.
         23    2    4    4    0    0  0.25114237930E+02 -0.14093863553E+03  0.14795834324E+03  0.22298762161E+03  0.85658532130E+02 0.  0.
          1    1    3    3  502    0  0.60452635731E+02  0.57149515134E+03  0.37339091184E+01  0.57469572058E+03  0.00000000000E+00 0. -1.
         -1    1    3    3    0  502  0.11050959580E+03  0.37944011178E+03  0.22363294363E+02  0.39583744912E+03  0.00000000000E+00 0.  1.
         13    1    5    5    0    0 -0.12322899513E+03 -0.63056639149E+03 -0.38248352160E+03  0.74772521932E+03  0.00000000000E+00 0. -1.
        -13    1    5    5    0    0 -0.72847474334E+02 -0.17943023611E+03 -0.76943641055E+02  0.20838015272E+03  0.00000000000E+00 0.  1.
          3    1    6    6  503    0  0.34688616875E+02 -0.34947110440E+02  0.12645334973E+02  0.50838028732E+02  0.00000000000E+00 0. -1.
         -3    1    6    6    0  503 -0.95743789453E+01 -0.10599152509E+03  0.13531300826E+03  0.17214959288E+03  0.00000000000E+00 0.  1.
<mgrwt>
<rscale>  0 0.98085050E+03</rscale>
<asrwt>0</asrwt>
<pdfrwt beam="1">  1        1 0.14340420E+00 0.98085050E+03</pdfrwt>
<pdfrwt beam="2">  1       -1 0.18730752E+00 0.98085050E+03</pdfrwt>
<totfact> 0.31810716E+00</totfact>
</mgrwt>
</event>
<event>
12    1  0.1335216E-007  0.6629587E+03  0.7818608E-02  0.9782762E-01
          1   -1    0    0  501    0  0.00000000000E+00  0.00000000000E+00  0.16851997469E+04  0.16851997469E+04  0.00000000000E+00 0. -1.
         -1   -1    0    0    0  501 -0.00000000000E+00 -0.00000000000E+00 -0.61213268384E+03  0.61213268384E+03  0.00000000000E+00 0.  1.
         23    2    1    2    0    0 -0.58322403769E+03 -0.24615958400E+03 -0.27123562265E+03  0.69471446547E+03  0.91184464705E+02 0.  0.
    5000000    2    1    2    0    0  0.58322403769E+03  0.24615958400E+03  0.13443026858E+04  0.16026179653E+04  0.60040803866E+03 0.  0.
         23    2    4    4    0    0  0.33766423258E+02  0.10581301911E+02 -0.29752483525E+02  0.10133793341E+03  0.90177775430E+02 0.  0.
         23    2    4    4    0    0  0.54945761443E+03  0.23557828209E+03  0.13740551693E+04  0.15012800319E+04  0.91724200392E+02 0.  0.
          2    1    3    3  502    0 -0.32126230303E+03 -0.14379818849E+03 -0.10193662699E+03  0.36644025745E+03  0.00000000000E+00 0. -1.
         -2    1    3    3    0  502 -0.26196173466E+03 -0.10236139551E+03 -0.16929899566E+03  0.32827420802E+03  0.00000000000E+00 0.  1.
         11    1    5    5    0    0  0.47064357031E+02  0.37009187665E+02 -0.37637864148E+02  0.70720170333E+02  0.00000000000E+00 0.  1.
        -11    1    5    5    0    0 -0.13297933773E+02 -0.26427885754E+02  0.78853806236E+01  0.30617763074E+02  0.00000000000E+00 0. -1.
          4    1    6    6  503    0  0.28910657278E+03  0.80130460158E+02  0.73781728189E+03  0.79647840054E+03  0.00000000000E+00 0. -1.
         -4    1    6    6    0  503  0.26035104165E+03  0.15544782194E+03  0.63623788739E+03  0.70480163137E+03  0.00000000000E+00 0.  1.
<mgrwt>
<rscale>  0 0.66295869E+03</rscale>
<asrwt>0</asrwt>
<pdfrwt beam="1">  1        1 0.25926150E+00 0.66295869E+03</pdfrwt>
<pdfrwt beam="2">  1       -1 0.94174260E-01 0.66295869E+03</pdfrwt>
<totfact> 0.56491777E+00</totfact>
</mgrwt>
</event>
<event>
12    1  0.1335216E-007  0.5771729E+03  0.7818608E-02  0.9953930E-01
          1   -1    0    0  501    0  0.00000000000E+00  0.00000000000E+00  0.28251662440E+04  0.28251662440E+04  0.00000000000E+00 0. -1.
         -1   -1    0    0    0  501 -0.00000000000E+00 -0.00000000000E+00 -0.12656063827E+03  0.12656063827E+03  0.00000000000E+00 0.  1.
         23    2    1    2    0    0 -0.19958695067E+03 -0.39151567441E+03  0.91234960227E+03  0.10169156143E+04  0.92822926657E+02 0.  0.
    5000000    2    1    2    0    0  0.19958695067E+03  0.39151567441E+03  0.17862560035E+04  0.19348112680E+04  0.59972048359E+03 0.  0.
         23    2    4    4    0    0  0.24466928297E+03 -0.49824437232E+02  0.43917629267E+03  0.51326223447E+03  0.90646415872E+02 0.  0.
         23    2    4    4    0    0 -0.45082332294E+02  0.44134011164E+03  0.13470797108E+04  0.14215490335E+04  0.96769811980E+02 0.  0.
          4    1    3    3  502    0 -0.80582762355E+02 -0.23442005052E+03  0.57609336439E+03  0.62716019179E+03  0.00000000000E+00 0. -1.
         -4    1    3    3    0  502 -0.11900418832E+03 -0.15709562389E+03  0.33625623788E+03  0.38975542254E+03  0.00000000000E+00 0.  1.
         13    1    5    5    0    0  0.61579698131E+02 -0.54403603641E+02  0.14785230336E+03  0.16915115997E+03  0.00000000000E+00 0. -1.
        -13    1    5    5    0    0  0.18308958483E+03  0.45791664098E+01  0.29132398932E+03  0.34411107450E+03  0.00000000000E+00 0.  1.
          1    1    6    6  503    0 -0.21200665206E+02  0.29758193634E+03  0.10346667035E+04  0.10768192347E+04  0.00000000000E+00 0. -1.
         -1    1    6    6    0  503 -0.23881667089E+02  0.14375817531E+03  0.31241300734E+03  0.34472979875E+03  0.00000000000E+00 0.  1.
<mgrwt>
<rscale>  0 0.57717288E+03</rscale>
<asrwt>0</asrwt>
<pdfrwt beam="1">  1        1 0.43464091E+00 0.57717288E+03</pdfrwt>
<pdfrwt beam="2">  1       -1 0.19470870E-01 0.57717288E+03</pdfrwt>
<totfact> 0.18583059E+01</totfact>
</mgrwt>
</event>
<event>
12    1  0.1335216E-007  0.3927267E+03  0.7818608E-02  0.1046328E+00
         -1   -1    0    0    0  501 -0.00000000000E+00  0.00000000000E+00  0.16792456268E+03  0.16792456268E+03  0.00000000000E+00 0.  1.
          1   -1    0    0  501    0  0.00000000000E+00 -0.00000000000E+00 -0.16122758401E+04  0.16122758401E+04  0.00000000000E+00 0. -1.
         23    2    1    2    0    0 -0.33168149395E+03 -0.18167505626E+02 -0.36028708650E+03  0.49742521056E+03  0.85336883651E+02 0.  0.
    5000000    2    1    2    0    0  0.33168149395E+03  0.18167505626E+02 -0.10840641909E+04  0.12827751922E+04  0.59997862633E+03 0.  0.
         23    2    4    4    0    0  0.34357168245E+03  0.21152828914E+02 -0.23199434400E+03  0.42465988475E+03  0.89586265201E+02 0.  0.
         23    2    4    4    0    0 -0.11890188500E+02 -0.29853232877E+01 -0.85206984691E+03  0.85811530747E+03  0.10093843746E+03 0.  0.
          4    1    3    3  502    0 -0.21933227780E+03  0.24960521701E+02 -0.20776422823E+03  0.30314295351E+03  0.00000000000E+00 0. -1.
         -4    1    3    3    0  502 -0.11234921615E+03 -0.43128027327E+02 -0.15252285827E+03  0.19428225705E+03  0.00000000000E+00 0.  1.
         11    1    5    5    0    0  0.28624481796E+03  0.18888014432E+01 -0.22436760012E+03  0.36370384018E+03  0.00000000000E+00 0.  1.
        -11    1    5    5    0    0  0.57326864492E+02  0.19264027471E+02 -0.76267438791E+01  0.60956044566E+02  0.00000000000E+00 0. -1.
          1    1    6    6  503    0  0.19726796334E+02  0.39808325293E+02 -0.51009365223E+03  0.51202478778E+03  0.00000000000E+00 0. -1.
         -1    1    6    6    0  503 -0.31616984834E+02 -0.42793648581E+02 -0.34197619468E+03  0.34609051968E+03  0.00000000000E+00 0.  1.
<mgrwt>
<rscale>  0 0.39272666E+03</rscale>
<asrwt>0</asrwt>
<pdfrwt beam="1">  1        1 0.24804244E+00 0.39272666E+03</pdfrwt>
<pdfrwt beam="2">  1       -1 0.25834548E-01 0.39272666E+03</pdfrwt>
<totfact> 0.78064391E+01</totfact>
</mgrwt>
</event>
<event>
12    1  0.1335216E-007  0.7073702E+03  0.7818608E-02  0.9704711E-01
          2   -1    0    0  501    0  0.00000000000E+00  0.00000000000E+00  0.85131695359E+03  0.85131695359E+03  0.00000000000E+00 0. -1.
         -2   -1    0    0    0  501 -0.00000000000E+00 -0.00000000000E+00 -0.15083155357E+04  0.15083155357E+04  0.00000000000E+00 0.  1.
         23    2    1    2    0    0 -0.56119175897E+03 -0.28704653547E+03  0.57036290233E+03  0.85504708680E+03  0.91977042941E+02 0.  0.
    5000000    2    1    2    0    0  0.56119175897E+03  0.28704653547E+03 -0.12273614844E+04  0.15045854024E+04  0.60002426284E+03 0.  0.
         23    2    4    4    0    0  0.43533398461E+03  0.40501046562E+03 -0.11486855032E+04  0.12966523622E+04  0.90993448349E+02 0.  0.
         23    2    4    4    0    0  0.12585777436E+03 -0.11796393015E+03 -0.78675981223E+02  0.20793304029E+03  0.85384840816E+02 0.  0.
          2    1    3    3  502    0 -0.15070053829E+03 -0.12235180597E+03  0.19133611499E+03  0.27256214991E+03  0.00000000000E+00 0. -1.
         -2    1    3    3    0  502 -0.41049122068E+03 -0.16469472951E+03  0.37902678734E+03  0.58248493689E+03  0.00000000000E+00 0.  1.
         13    1    5    5    0    0  0.31836298633E+03  0.23745421199E+03 -0.76229619922E+03  0.85955511121E+03  0.00000000000E+00 0. -1.
        -13    1    5    5    0    0  0.11697099827E+03  0.16755625363E+03 -0.38638930396E+03  0.43709725094E+03  0.00000000000E+00 0.  1.
          3    1    6    6  503    0  0.11794588901E+03 -0.12039382198E+03 -0.92174572411E+02  0.19209908096E+03  0.00000000000E+00 0. -1.
         -3    1    6    6    0  503  0.79118853497E+01  0.24298918349E+01  0.13498591188E+02  0.15833959334E+02  0.00000000000E+00 0.  1.
<mgrwt>
<rscale>  0 0.70737016E+03</rscale>
<asrwt>0</asrwt>
<pdfrwt beam="1">  1        2 0.13097184E+00 0.70737016E+03</pdfrwt>
<pdfrwt beam="2">  1       -2 0.23204854E+00 0.70737016E+03</pdfrwt>
<totfact> 0.27217757E+00</totfact>
</mgrwt>
</event>
<event>
12    1  0.1335216E-007  0.9729173E+03  0.7818608E-02  0.9338758E-01
          2   -1    0    0  501    0  0.00000000000E+00  0.00000000000E+00  0.31267450095E+04  0.31267450095E+04  0.00000000000E+00 0. -1.
         -2   -1    0    0    0  501 -0.00000000000E+00 -0.00000000000E+00 -0.38204533121E+03  0.38204533121E+03  0.00000000000E+00 0.  1.
         23    2    1    2    0    0 -0.48065329891E+03 -0.81869227766E+03  0.18190678782E+04  0.20535301248E+04  0.81813132087E+02 0.  0.
    5000000    2    1    2    0    0  0.48065329891E+03  0.81869227766E+03  0.92563180006E+03  0.14552602159E+04  0.59975280531E+03 0.  0.
         23    2    4    4    0    0  0.47336240307E+03  0.71615885250E+03  0.47715799458E+03  0.98623266668E+03  0.89552523021E+02 0.  0.
         23    2    4    4    0    0  0.72908958373E+01  0.10253342517E+03  0.44847380549E+03  0.46902754924E+03  0.91059471213E+02 0.  0.
          4    1    3    3  502    0 -0.16150015986E+03 -0.30553737887E+03  0.74142468471E+03  0.81801341958E+03  0.00000000000E+00 0.  1.
         -4    1    3    3    0  502 -0.31915313906E+03 -0.51315489879E+03  0.10776431935E+04  0.12355167052E+04  0.00000000000E+00 0. -1.
         11    1    5    5    0    0  0.46211157297E+02  0.60889213920E+02  0.73395129469E+02  0.10597080947E+03  0.00000000000E+00 0.  1.
        -11    1    5    5    0    0  0.42715124578E+03  0.65526963858E+03  0.40376286511E+03  0.88026185721E+03  0.00000000000E+00 0. -1.
          3    1    6    6  503    0 -0.24990868336E+02  0.10199110034E+03  0.33878587960E+03  0.35468662262E+03  0.00000000000E+00 0. -1.
         -3    1    6    6    0  503  0.32281764173E+02  0.54232482292E+00  0.10968792589E+03  0.11434092662E+03  0.00000000000E+00 0.  1.
<mgrwt>
<rscale>  0 0.97291733E+03</rscale>
<asrwt>0</asrwt>
<pdfrwt beam="1">  1        2 0.48103768E+00 0.97291733E+03</pdfrwt>
<pdfrwt beam="2">  1       -2 0.58776207E-01 0.97291733E+03</pdfrwt>
<totfact> 0.40316145E+00</totfact>
</mgrwt>
</event>
<event>
12    1  0.1335216E-007  0.8957281E+03  0.7818608E-02  0.9430937E-01
         -1   -1    0    0    0  501 -0.00000000000E+00  0.00000000000E+00  0.20858154701E+04  0.20858154701E+04  0.00000000000E+00 0.  1.
          1   -1    0    0  501    0  0.00000000000E+00 -0.00000000000E+00 -0.46548167563E+03  0.46548167563E+03  0.00000000000E+00 0. -1.
         23    2    1    2    0    0 -0.48574953988E+03 -0.69333028849E+03  0.10965991180E+04  0.13887974249E+04  0.97822070625E+02 0.  0.
    5000000    2    1    2    0    0  0.48574953988E+03  0.69333028849E+03  0.52373467650E+03  0.11624997208E+04  0.60037328811E+03 0.  0.
         23    2    4    4    0    0  0.50006479102E+03  0.43457260448E+03  0.12854617802E+03  0.68128332872E+03  0.93299037135E+02 0.  0.
         23    2    4    4    0    0 -0.14315251138E+02  0.25875768401E+03  0.39518849848E+03  0.48121639208E+03  0.90745805571E+02 0.  0.
          1    1    3    3  502    0 -0.96797067983E+02 -0.20826152403E+03  0.26986868727E+03  0.35436089391E+03  0.00000000000E+00 0. -1.
         -1    1    3    3    0  502 -0.38895247189E+03 -0.48506876446E+03  0.82673043069E+03  0.10344365310E+04  0.00000000000E+00 0.  1.
         13    1    5    5    0    0  0.19688675591E+03  0.22943545583E+03  0.43144976744E+02  0.30539566478E+03  0.00000000000E+00 0.  1.
        -13    1    5    5    0    0  0.30317803511E+03  0.20513714865E+03  0.85401201275E+02  0.37588766395E+03  0.00000000000E+00 0. -1.
          1    1    6    6  503    0 -0.45002920514E+02  0.95921543242E+02  0.18924656827E+03  0.21688814839E+03  0.00000000000E+00 0. -1.
         -1    1    6    6    0  503  0.30687669377E+02  0.16283614077E+03  0.20594193022E+03  0.26432824369E+03  0.00000000000E+00 0.  1.
<mgrwt>
<rscale>  0 0.89572809E+03</rscale>
<asrwt>0</asrwt>
<pdfrwt beam="1">  1        1 0.71612567E-01 0.89572809E+03</pdfrwt>
<pdfrwt beam="2">  1       -1 0.32089468E+00 0.89572809E+03</pdfrwt>
<totfact> 0.12189911E+00</totfact>
</mgrwt>
</event>
<event>
12    1  0.1335216E-007  0.9696872E+03  0.7818608E-02  0.9342431E-01
          2   -1    0    0  501    0  0.00000000000E+00  0.00000000000E+00  0.23513804243E+04  0.23513804243E+04  0.00000000000E+00 0. -1.
         -2   -1    0    0    0  501 -0.00000000000E+00 -0.00000000000E+00 -0.61965863222E+03  0.61965863222E+03  0.00000000000E+00 0.  1.
         23    2    1    2    0    0 -0.76483446107E+03 -0.44743657061E+03  0.16773684999E+04  0.18994718897E+04  0.96214020358E+02 0.  0.
    5000000    2    1    2    0    0  0.76483446107E+03  0.44743657061E+03  0.54353292202E+02  0.10715671668E+04  0.60010888607E+03 0.  0.
         23    2    4    4    0    0 -0.22564815733E+02  0.21092258320E+03  0.72241417438E+02  0.24403792876E+03  0.96634265507E+02 0.  0.
         23    2    4    4    0    0  0.78739927680E+03  0.23651398741E+03 -0.17888125236E+02  0.82752923808E+03  0.92456300566E+02 0.  0.
          3    1    3    3  502    0 -0.63537110983E+02 -0.15277201751E+02  0.16184111774E+03  0.17453625628E+03  0.00000000000E+00 0. -1.
         -3    1    3    3    0  502 -0.70129735008E+03 -0.43215936886E+03  0.15155273821E+04  0.17249356334E+04  0.00000000000E+00 0.  1.
         11    1    5    5    0    0  0.75057078897E+01  0.19026209205E+03  0.38334566299E+02  0.19423063171E+03  0.00000000000E+00 0.  1.
        -11    1    5    5    0    0 -0.30070523623E+02  0.20660491149E+02  0.33906851140E+02  0.49807297053E+02  0.00000000000E+00 0. -1.
          4    1    6    6  503    0  0.43132270727E+03  0.15279492795E+03 -0.50132943427E+02  0.46032475474E+03  0.00000000000E+00 0. -1.
         -4    1    6    6    0  503  0.35607656953E+03  0.83719059465E+02  0.32244818190E+02  0.36720448334E+03  0.00000000000E+00 0.  1.
<mgrwt>
<rscale>  0 0.96968718E+03</rscale>
<asrwt>0</asrwt>
<pdfrwt beam="1">  1        2 0.36175083E+00 0.96968718E+03</pdfrwt>
<pdfrwt beam="2">  1       -2 0.95332098E-01 0.96968718E+03</pdfrwt>
<totfact> 0.39588491E+00</totfact>
</mgrwt>
</event>
<event>
12    1  0.1335216E-007  0.9048428E+03  0.7818608E-02  0.9419548E-01
          1   -1    0    0  501    0  0.00000000000E+00  0.00000000000E+00  0.10601513621E+04  0.10601513621E+04  0.00000000000E+00 0. -1.
         -1   -1    0    0    0  501 -0.00000000000E+00 -0.00000000000E+00 -0.10119927932E+04  0.10119927932E+04  0.00000000000E+00 0.  1.
         23    2    1    2    0    0  0.36350606953E+03 -0.81404627923E+03 -0.29594170302E+03  0.94377439001E+03  0.91217324722E+02 0.  0.
    5000000    2    1    2    0    0 -0.36350606953E+03  0.81404627923E+03  0.34410027196E+03  0.11283697653E+04  0.60000443566E+03 0.  0.
         23    2    4    4    0    0 -0.19254740205E+03  0.28251951263E+03  0.42901783123E+03  0.55633116215E+03  0.92500191367E+02 0.  0.
         23    2    4    4    0    0 -0.17095866748E+03  0.53152676660E+03 -0.84917559272E+02  0.57203860317E+03  0.90937352339E+02 0.  0.
          3    1    3    3  502    0  0.11639949422E+03 -0.35300919152E+03 -0.97159014857E+02  0.38419292773E+03  0.00000000000E+00 0. -1.
         -3    1    3    3    0  502  0.24710657531E+03 -0.46103708772E+03 -0.19878268816E+03  0.55958146228E+03  0.00000000000E+00 0.  1.
         13    1    5    5    0    0 -0.49835377330E+02  0.22791694381E+02  0.42899737407E+02  0.69594637983E+02  0.00000000000E+00 0.  1.
        -13    1    5    5    0    0 -0.14271202472E+03  0.25972781825E+03  0.38611809383E+03  0.48673652416E+03  0.00000000000E+00 0. -1.
          4    1    6    6  503    0 -0.13405828505E+03  0.49083283362E+03 -0.90594039778E+02  0.51681309426E+03  0.00000000000E+00 0. -1.
         -4    1    6    6    0  503 -0.36900382421E+02  0.40693932978E+02  0.56764805059E+01  0.55225508915E+02  0.00000000000E+00 0.  1.
<mgrwt>
<rscale>  0 0.90484281E+03</rscale>
<asrwt>0</asrwt>
<pdfrwt beam="1">  1        1 0.16310021E+00 0.90484281E+03</pdfrwt>
<pdfrwt beam="2">  1       -1 0.15569120E+00 0.90484281E+03</pdfrwt>
<totfact> 0.43487153E+00</totfact>
</mgrwt>
</event>
<event>
12    1  0.1335216E-007  0.1028895E+04  0.7818608E-02  0.9277409E-01
          2   -1    0    0  501    0  0.00000000000E+00  0.00000000000E+00  0.14765214760E+04  0.14765214760E+04  0.00000000000E+00 0. -1.
         -2   -1    0    0    0  501 -0.00000000000E+00 -0.00000000000E+00 -0.81176041535E+03  0.81176041535E+03  0.00000000000E+00 0.  1.
         23    2    1    2    0    0  0.99007786549E+03 -0.19750721700E+03  0.26685672587E+03  0.10482733188E+04  0.91657832313E+02 0.  0.
    5000000    2    1    2    0    0 -0.99007786549E+03  0.19750721700E+03  0.39790433479E+03  0.12400085726E+04  0.60002509943E+03 0.  0.
         23    2    4    4    0    0 -0.90294075208E+03  0.17319379640E+03  0.52479584722E+03  0.10625357433E+04  0.90958405697E+02 0.  0.
         23    2    4    4    0    0 -0.87137113404E+02  0.24313420597E+02 -0.12689151243E+03  0.17747282932E+03  0.84918374143E+02 0.  0.
          2    1    3    3  502    0  0.51246580780E+03 -0.59442406732E+02  0.15492767247E+03  0.53866240595E+03  0.00000000000E+00 0. -1.
         -2    1    3    3    0  502  0.47761205768E+03 -0.13806481027E+03  0.11192905340E+03  0.50961091283E+03  0.00000000000E+00 0.  1.
         13    1    5    5    0    0 -0.16735396879E+03  0.62333723808E+02  0.78881090718E+02  0.19523081331E+03  0.00000000000E+00 0.  1.
        -13    1    5    5    0    0 -0.73558678330E+03  0.11086007259E+03  0.44591475650E+03  0.86730492995E+03  0.00000000000E+00 0. -1.
          1    1    6    6  503    0 -0.88295531015E+01  0.41198565913E+02 -0.29837659274E+02  0.51629146344E+02  0.00000000000E+00 0. -1.
         -1    1    6    6    0  503 -0.78307560303E+02 -0.16885145316E+02 -0.97053853157E+02  0.12584368298E+03  0.00000000000E+00 0.  1.
<mgrwt>
<rscale>  0 0.10288949E+04</rscale>
<asrwt>0</asrwt>
<pdfrwt beam="1">  1        2 0.22715715E+00 0.10288949E+04</pdfrwt>
<pdfrwt beam="2">  1       -2 0.12488622E+00 0.10288949E+04</pdfrwt>
<totfact> 0.62304489E+00</totfact>
</mgrwt>
</event>
<event>
12    1  0.1335216E-007  0.1671395E+04  0.7818608E-02  0.8777849E-01
          1   -1    0    0  501    0  0.00000000000E+00  0.00000000000E+00  0.31564657055E+04  0.31564657055E+04  0.00000000000E+00 0. -1.
         -1   -1    0    0    0  501 -0.00000000000E+00 -0.00000000000E+00 -0.89142825080E+03  0.89142825080E+03  0.00000000000E+00 0.  1.
         23    2    1    2    0    0 -0.49694858040E+02 -0.16183725310E+04  0.97092400450E+03  0.18900593075E+04  0.89618833919E+02 0.  0.
    5000000    2    1    2    0    0  0.49694858040E+02  0.16183725310E+04  0.12941134502E+04  0.21578346489E+04  0.59993459794E+03 0.  0.
         23    2    4    4    0    0  0.90157836192E+02  0.25823471638E+02  0.86653550631E+02  0.15677558656E+03  0.90964056576E+02 0.  0.
         23    2    4    4    0    0 -0.40462978152E+02  0.15925490593E+04  0.12074598996E+04  0.20010590623E+04  0.91805243164E+02 0.  0.
          4    1    3    3  502    0 -0.80989778957E+01 -0.51617097891E+03  0.35790901381E+03  0.62816951142E+03  0.00000000000E+00 0. -1.
         -4    1    3    3    0  502 -0.41595880144E+02 -0.11022015521E+04  0.61301499069E+03  0.12618897961E+04  0.00000000000E+00 0.  1.
         13    1    5    5    0    0  0.96014978995E+01 -0.30609503918E+02  0.25254991858E+02  0.40828239072E+02  0.00000000000E+00 0. -1.
        -13    1    5    5    0    0  0.80556338293E+02  0.56432975556E+02  0.61398558774E+02  0.11594734748E+03  0.00000000000E+00 0.  1.
          4    1    6    6  503    0 -0.27175139490E+02  0.12979546432E+04  0.10268938463E+04  0.16552751178E+04  0.00000000000E+00 0. -1.
         -4    1    6    6    0  503 -0.13287838663E+02  0.29459441614E+03  0.18056605331E+03  0.34578394451E+03  0.00000000000E+00 0.  1.
<mgrwt>
<rscale>  0 0.16713951E+04</rscale>
<asrwt>0</asrwt>
<pdfrwt beam="1">  1        1 0.48561010E+00 0.16713951E+04</pdfrwt>
<pdfrwt beam="2">  1       -1 0.13714281E+00 0.16713951E+04</pdfrwt>
<totfact> 0.18962650E-01</totfact>
</mgrwt>
</event>
<event>
12    1  0.1335216E-007  0.1643473E+04  0.7818608E-02  0.8794277E-01
         -2   -1    0    0    0  501 -0.00000000000E+00  0.00000000000E+00  0.16012315475E+04  0.16012315475E+04  0.00000000000E+00 0.  1.
          2   -1    0    0  501    0  0.00000000000E+00 -0.00000000000E+00 -0.28633390304E+04  0.28633390304E+04  0.00000000000E+00 0. -1.
         23    2    1    2    0    0 -0.16403322882E+04 -0.24285989666E+02  0.74481125845E+03  0.18039367646E+04  0.90356045914E+02 0.  0.
    5000000    2    1    2    0    0  0.16403322882E+04  0.24285989666E+02 -0.20069187413E+04  0.26606338133E+04  0.59997469042E+03 0.  0.
         23    2    4    4    0    0  0.54970946737E+03  0.63896869340E+02 -0.11150509782E+04  0.12483285470E+04  0.93392552616E+02 0.  0.
         23    2    4    4    0    0  0.10906228208E+04 -0.39610879674E+02 -0.89186776304E+03  0.14123052662E+04  0.90282329922E+02 0.  0.
          1    1    3    3  502    0 -0.11497856898E+04 -0.44840081618E+02  0.48818089163E+03  0.12499353377E+04  0.00000000000E+00 0. -1.
         -1    1    3    3    0  502 -0.49054659842E+03  0.20554091952E+02  0.25663036681E+03  0.55400142697E+03  0.00000000000E+00 0.  1.
         11    1    5    5    0    0  0.76355389663E+02  0.58597061047E+01 -0.23783072624E+03  0.24985583049E+03  0.00000000000E+00 0.  1.
        -11    1    5    5    0    0  0.47335407771E+03  0.58037163235E+02 -0.87722025198E+03  0.99847271654E+03  0.00000000000E+00 0. -1.
          4    1    6    6  503    0  0.88623059995E+03 -0.44942303787E+02 -0.76562898264E+03  0.11720120418E+04  0.00000000000E+00 0. -1.
         -4    1    6    6    0  503  0.20439222090E+03  0.53314241131E+01 -0.12623878040E+03  0.24029322447E+03  0.00000000000E+00 0.  1.
<mgrwt>
<rscale>  0 0.16434733E+04</rscale>
<asrwt>0</asrwt>
<pdfrwt beam="1">  1        2 0.44051370E+00 0.16434733E+04</pdfrwt>
<pdfrwt beam="2">  1       -2 0.24634331E+00 0.16434733E+04</pdfrwt>
<totfact> 0.13221263E-01</totfact>
</mgrwt>
</event>
<event>
12    1  0.1335216E-007  0.3789273E+03  0.7818608E-02  0.1051331E+00
         -1   -1    0    0    0  501 -0.00000000000E+00  0.00000000000E+00  0.15647140329E+04  0.15647140329E+04  0.00000000000E+00 0.  1.
          1   -1    0    0  501    0  0.00000000000E+00 -0.00000000000E+00 -0.13774060849E+03  0.13774060849E+03  0.00000000000E+00 0. -1.
         23    2    1    2    0    0 -0.19742582129E+03  0.20790280660E+02  0.72758948632E+03  0.75980420212E+03  0.92232175878E+02 0.  0.
    5000000    2    1    2    0    0  0.19742582129E+03 -0.20790280660E+02  0.69938393813E+03  0.94265043931E+03  0.60003563822E+03 0.  0.
         23    2    4    4    0    0  0.19076741400E+03  0.21977368992E+03  0.58660922540E+03  0.66004313308E+03  0.82788122124E+02 0.  0.
         23    2    4    4    0    0  0.66584072895E+01 -0.24056397058E+03  0.11277471273E+03  0.28260730624E+03  0.96090558223E+02 0.  0.
          3    1    3    3  502    0 -0.10890140395E+03  0.18993442762E+02  0.23992959206E+03  0.26417130010E+03  0.00000000000E+00 0. -1.
         -3    1    3    3    0  502 -0.88524417344E+02  0.17968378978E+01  0.48765989426E+03  0.49563290202E+03  0.00000000000E+00 0.  1.
         13    1    5    5    0    0  0.15377756197E+03  0.11849542077E+03  0.39686747366E+03  0.44180594717E+03  0.00000000000E+00 0. -1.
        -13    1    5    5    0    0  0.36989852029E+02  0.10127826915E+03  0.18974175175E+03  0.21823718590E+03  0.00000000000E+00 0.  1.
          3    1    6    6  503    0  0.43517254945E+01 -0.24850335224E+03  0.10113533054E+03  0.26833040952E+03  0.00000000000E+00 0. -1.
         -3    1    6    6    0  503  0.23066817950E+01  0.79393816657E+01  0.11639382182E+02  0.14276896712E+02  0.00000000000E+00 0.  1.
<mgrwt>
<rscale>  0 0.37892733E+03</rscale>
<asrwt>0</asrwt>
<pdfrwt beam="1">  1        1 0.21190864E-01 0.37892733E+03</pdfrwt>
<pdfrwt beam="2">  1       -1 0.24072522E+00 0.37892733E+03</pdfrwt>
<totfact> 0.21114622E+01</totfact>
</mgrwt>
</event>
<event>
12    1  0.1335216E-007  0.5465699E+03  0.7818608E-02  0.1002291E+00
         -1   -1    0    0    0  501 -0.00000000000E+00  0.00000000000E+00  0.26597345657E+03  0.26597345657E+03  0.00000000000E+00 0.  1.
          1   -1    0    0  501    0  0.00000000000E+00 -0.00000000000E+00 -0.15689333847E+04  0.15689333847E+04  0.00000000000E+00 0. -1.
         23    2    1    2    0    0 -0.27787262384E+03 -0.39800499708E+03 -0.33300198519E+03  0.59543935609E+03  0.89646705814E+02 0.  0.
    5000000    2    1    2    0    0  0.27787262384E+03  0.39800499708E+03 -0.96995794293E+03  0.12394674852E+04  0.59986670429E+03 0.  0.
         23    2    4    4    0    0 -0.72352935148E+02  0.16142773337E+03 -0.70398321258E+03  0.73151419126E+03  0.90701643249E+02 0.  0.
         23    2    4    4    0    0  0.35022555899E+03  0.23657726372E+03 -0.26597473035E+03  0.50795329390E+03  0.92990578683E+02 0.  0.
          1    1    3    3  502    0 -0.20611225778E+03 -0.31319544108E+03 -0.29808234804E+03  0.47898510763E+03  0.00000000000E+00 0. -1.
         -1    1    3    3    0  502 -0.71760366053E+02 -0.84809556009E+02 -0.34919637150E+02  0.11645424846E+03  0.00000000000E+00 0.  1.
         13    1    5    5    0    0 -0.61922408331E+02  0.15065737290E+03 -0.47716196037E+03  0.50419794237E+03  0.00000000000E+00 0. -1.
        -13    1    5    5    0    0 -0.10430526816E+02  0.10770360466E+02 -0.22682125221E+03  0.22731624889E+03  0.00000000000E+00 0.  1.
          2    1    6    6  503    0  0.35002144774E+03  0.22163863332E+03 -0.24226222329E+03  0.47992674701E+03  0.00000000000E+00 0. -1.
         -2    1    6    6    0  503  0.20411124082E+00  0.14938630395E+02 -0.23712507060E+02  0.28026546889E+02  0.00000000000E+00 0.  1.
<mgrwt>
<rscale>  0 0.54656991E+03</rscale>
<asrwt>0</asrwt>
<pdfrwt beam="1">  1        1 0.24137437E+00 0.54656991E+03</pdfrwt>
<pdfrwt beam="2">  1       -1 0.40918993E-01 0.54656991E+03</pdfrwt>
<totfact> 0.36336368E+01</totfact>
</mgrwt>
</event>
<event>
12    1  0.1335216E-007  0.1240698E+04  0.7818608E-02  0.9077961E-01
          2   -1    0    0  501    0  0.00000000000E+00  0.00000000000E+00  0.13997818664E+04  0.13997818664E+04  0.00000000000E+00 0. -1.
         -2   -1    0    0    0  501 -0.00000000000E+00 -0.00000000000E+00 -0.11306206648E+04  0.11306206648E+04  0.00000000000E+00 0.  1.
         23    2    1    2    0    0  0.92447535388E+03 -0.72012924854E+03  0.30170221021E+03  0.12135247763E+04  0.91527834389E+02 0.  0.
    5000000    2    1    2    0    0 -0.92447535388E+03  0.72012924854E+03 -0.32541008532E+02  0.13168777549E+04  0.59988939786E+03 0.  0.
         23    2    4    4    0    0 -0.52245366401E+03  0.72627018973E+03  0.19463562518E+02  0.89946271468E+03  0.90709014575E+02 0.  0.
         23    2    4    4    0    0 -0.40202168987E+03 -0.61409411901E+01 -0.52004571050E+02  0.41741504024E+03  0.99356379396E+02 0.  0.
          1    1    3    3  502    0  0.48245398719E+03 -0.40710355436E+03  0.12270885623E+03  0.64308056814E+03  0.00000000000E+00 0. -1.
         -1    1    3    3    0  502  0.44202136669E+03 -0.31302569418E+03  0.17899335397E+03  0.57044420813E+03  0.00000000000E+00 0.  1.
         11    1    5    5    0    0 -0.37394192134E+03  0.52865496937E+03  0.54334240016E+02  0.64981600997E+03  0.00000000000E+00 0. -1.
        -11    1    5    5    0    0 -0.14851174266E+03  0.19761522036E+03 -0.34870677499E+02  0.24964670472E+03  0.00000000000E+00 0.  1.
          4    1    6    6  503    0 -0.28463244061E+03 -0.48939065272E+02 -0.27793352100E+02  0.29014329008E+03  0.00000000000E+00 0. -1.
         -4    1    6    6    0  503 -0.11738924926E+03  0.42798124082E+02 -0.24211218950E+02  0.12727175017E+03  0.00000000000E+00 0.  1.
<mgrwt>
<rscale>  0 0.12406979E+04</rscale>
<asrwt>0</asrwt>
<pdfrwt beam="1">  1        2 0.21535106E+00 0.12406979E+04</pdfrwt>
<pdfrwt beam="2">  1       -2 0.17394164E+00 0.12406979E+04</pdfrwt>
<totfact> 0.27975785E+00</totfact>
</mgrwt>
</event>
<event>
12    1  0.1335216E-007  0.6033829E+03  0.7818608E-02  0.9898412E-01
          1   -1    0    0  501    0  0.00000000000E+00  0.00000000000E+00  0.15349577675E+04  0.15349577675E+04  0.00000000000E+00 0. -1.
         -1   -1    0    0    0  501 -0.00000000000E+00 -0.00000000000E+00 -0.26236025907E+03  0.26236025907E+03  0.00000000000E+00 0.  1.
         23    2    1    2    0    0 -0.39893119764E+03  0.22059197531E+03  0.25185081275E+03  0.52856127243E+03  0.90228968762E+02 0.  0.
    5000000    2    1    2    0    0  0.39893119764E+03 -0.22059197531E+03  0.10207466957E+04  0.12687567541E+04  0.60001080359E+03 0.  0.
         23    2    4    4    0    0 -0.13411178258E+03 -0.83481153895E+01  0.14435997577E+03  0.21733007628E+03  0.91306616373E+02 0.  0.
         23    2    4    4    0    0  0.53304298022E+03 -0.21224385992E+03  0.87638671990E+03  0.10514266779E+04  0.90896101377E+02 0.  0.
          4    1    3    3  502    0 -0.21140791108E+03  0.66209446294E+02  0.12917072102E+03  0.25644116443E+03  0.00000000000E+00 0. -1.
         -4    1    3    3    0  502 -0.18752328656E+03  0.15438252902E+03  0.12268009173E+03  0.27212010799E+03  0.00000000000E+00 0.  1.
         13    1    5    5    0    0 -0.11436167895E+02 -0.34384806828E+02  0.41834896824E+02  0.55346720490E+02  0.00000000000E+00 0.  1.
        -13    1    5    5    0    0 -0.12267561469E+03  0.26036691439E+02  0.10252507894E+03  0.16198335579E+03  0.00000000000E+00 0. -1.
          1    1    6    6  503    0  0.51050211671E+03 -0.17991218955E+03  0.80952841794E+03  0.97381572516E+03  0.00000000000E+00 0. -1.
         -1    1    6    6    0  503  0.22540863511E+02 -0.32331670378E+02  0.66858301959E+02  0.77610952694E+02  0.00000000000E+00 0.  1.
<mgrwt>
<rscale>  0 0.60338288E+03</rscale>
<asrwt>0</asrwt>
<pdfrwt beam="1">  1        1 0.23614734E+00 0.60338288E+03</pdfrwt>
<pdfrwt beam="2">  1       -1 0.40363118E-01 0.60338288E+03</pdfrwt>
<totfact> 0.38926376E+01</totfact>
</mgrwt>
</event>
<event>
12    1  0.1335216E-007  0.4243979E+03  0.7818608E-02  0.1035644E+00
          2   -1    0    0  501    0  0.00000000000E+00  0.00000000000E+00  0.16807221805E+04  0.16807221805E+04  0.00000000000E+00 0. -1.
         -2   -1    0    0    0  501 -0.00000000000E+00 -0.00000000000E+00 -0.17282989195E+03  0.17282989195E+03  0.00000000000E+00 0.  1.
         23    2    1    2    0    0 -0.66882909790E+02 -0.30727624203E+03  0.84368280431E+03  0.90490095021E+03  0.90294201723E+02 0.  0.
    5000000    2    1    2    0    0  0.66882909790E+02  0.30727624203E+03  0.66420948422E+03  0.94865112223E+03  0.59989390748E+03 0.  0.
         23    2    4    4    0    0  0.23785505103E+03  0.11062675714E+03  0.59850909902E+02  0.28437535796E+03  0.92053832623E+02 0.  0.
         23    2    4    4    0    0 -0.17097214124E+03  0.19664948489E+03  0.60435857432E+03  0.66427576427E+03  0.90058379159E+02 0.  0.
          2    1    3    3  502    0  0.62685930091E+01 -0.92454316731E+02  0.34100531670E+03  0.35337193148E+03  0.00000000000E+00 0. -1.
         -2    1    3    3    0  502 -0.73151502799E+02 -0.21482192530E+03  0.50267748761E+03  0.55152901873E+03  0.00000000000E+00 0.  1.
         11    1    5    5    0    0  0.11702198985E+03  0.24520981463E+02  0.64651685385E+02  0.13592374724E+03  0.00000000000E+00 0.  1.
        -11    1    5    5    0    0  0.12083306118E+03  0.86105775680E+02 -0.48007754830E+01  0.14845161072E+03  0.00000000000E+00 0. -1.
          1    1    6    6  503    0 -0.99949893103E+02  0.10070799891E+03  0.21981267251E+03  0.26162892266E+03  0.00000000000E+00 0. -1.
         -1    1    6    6    0  503 -0.71022248137E+02  0.95941485983E+02  0.38454590180E+03  0.40264684161E+03  0.00000000000E+00 0.  1.
<mgrwt>
<rscale>  0 0.42439785E+03</rscale>
<asrwt>0</asrwt>
<pdfrwt beam="1">  1        2 0.25857263E+00 0.42439785E+03</pdfrwt>
<pdfrwt beam="2">  1       -2 0.26589215E-01 0.42439785E+03</pdfrwt>
<totfact> 0.13641635E+02</totfact>
</mgrwt>
</event>
<event>
12    1  0.1335216E-007  0.1908882E+04  0.7818608E-02  0.8650448E-01
          2   -1    0    0  501    0  0.00000000000E+00  0.00000000000E+00  0.21630010867E+04  0.21630010867E+04  0.00000000000E+00 0. -1.
         -2   -1    0    0    0  501 -0.00000000000E+00 -0.00000000000E+00 -0.20881156095E+04  0.20881156095E+04  0.00000000000E+00 0.  1.
         23    2    1    2    0    0 -0.70913369529E+03  0.17401322000E+04  0.93308226523E+03  0.21000115427E+04  0.92061362500E+02 0.  0.
    5000000    2    1    2    0    0  0.70913369529E+03 -0.17401322000E+04 -0.85819678794E+03  0.21511051535E+04  0.59985080115E+03 0.  0.
         23    2    4    4    0    0  0.75083952873E+03 -0.13769933640E+04 -0.81991143434E+03  0.17723581581E+04  0.95540348957E+02 0.  0.
         23    2    4    4    0    0 -0.41705833440E+02 -0.36313883600E+03 -0.38285353595E+02  0.37874699540E+03  0.91511351595E+02 0.  0.
          3    1    3    3  502    0 -0.46863904186E+03  0.12452949173E+04  0.68393956415E+03  0.14960465601E+04  0.00000000000E+00 0. -1.
         -3    1    3    3    0  502 -0.24049465343E+03  0.49483728265E+03  0.24914270108E+03  0.60396498254E+03  0.00000000000E+00 0.  1.
         11    1    5    5    0    0  0.63917099403E+03 -0.10944401080E+04 -0.65468275931E+03  0.14265161145E+04  0.00000000000E+00 0.  1.
        -11    1    5    5    0    0  0.11166853470E+03 -0.28255325592E+03 -0.16522867503E+03  0.34584204360E+03  0.00000000000E+00 0. -1.
          1    1    6    6  503    0 -0.12832495585E+02 -0.17264107822E+03 -0.63573131241E+02  0.18442114262E+03  0.00000000000E+00 0. -1.
         -1    1    6    6    0  503 -0.28873337856E+02 -0.19049775778E+03  0.25287777646E+02  0.19432585277E+03  0.00000000000E+00 0.  1.
<mgrwt>
<rscale>  0 0.19088823E+04</rscale>
<asrwt>0</asrwt>
<pdfrwt beam="1">  1        2 0.33276940E+00 0.19088823E+04</pdfrwt>
<pdfrwt beam="2">  1       -2 0.32124856E+00 0.19088823E+04</pdfrwt>
<totfact> 0.11417331E-01</totfact>
</mgrwt>
</event>
<event>
12    1  0.1335216E-007  0.2260216E+04  0.7818608E-02  0.8493775E-01
         -2   -1    0    0    0  501 -0.00000000000E+00  0.00000000000E+00  0.17815165763E+04  0.17815165763E+04  0.00000000000E+00 0.  1.
          2   -1    0    0  501    0  0.00000000000E+00 -0.00000000000E+00 -0.31985443665E+04  0.31985443665E+04  0.00000000000E+00 0. -1.
         23    2    1    2    0    0  0.14105365377E+04  0.17426021660E+04 -0.14270354836E+04  0.26591772351E+04  0.92291186878E+02 0.  0.
    5000000    2    1    2    0    0 -0.14105365377E+04 -0.17426021660E+04  0.10007693448E+02  0.23208837077E+04  0.60010448892E+03 0.  0.
         23    2    4    4    0    0 -0.45647401873E+03 -0.86396394092E+03 -0.20660708550E+03  0.10028540420E+04  0.90705682215E+02 0.  0.
         23    2    4    4    0    0 -0.95406251901E+03 -0.87863822506E+03  0.21661477895E+03  0.13180296657E+04  0.89665024027E+02 0.  0.
          2    1    3    3  502    0  0.18573865437E+03  0.25113459822E+03 -0.23378068659E+03  0.39015489690E+03  0.00000000000E+00 0. -1.
         -2    1    3    3    0  502  0.12247978834E+04  0.14914675678E+04 -0.11932547970E+04  0.22690223382E+04  0.00000000000E+00 0.  1.
         13    1    5    5    0    0 -0.38092814161E+03 -0.64427866126E+03 -0.14316297525E+03  0.76203469732E+03  0.00000000000E+00 0.  1.
        -13    1    5    5    0    0 -0.75545877120E+02 -0.21968527965E+03 -0.63444110256E+02  0.24081934468E+03  0.00000000000E+00 0. -1.
          2    1    6    6  503    0 -0.35563285424E+03 -0.34771010787E+03  0.41591831978E+02  0.49910612761E+03  0.00000000000E+00 0.  1.
         -2    1    6    6    0  503 -0.59842966477E+03 -0.53092811719E+03  0.17502294697E+03  0.81892353811E+03  0.00000000000E+00 0. -1.
<mgrwt>
<rscale>  0 0.22602156E+04</rscale>
<asrwt>0</asrwt>
<pdfrwt beam="1">  1        2 0.49208374E+00 0.22602156E+04</pdfrwt>
<pdfrwt beam="2">  1       -2 0.27407948E+00 0.22602156E+04</pdfrwt>
<totfact> 0.51346484E-02</totfact>
</mgrwt>
</event>
<event>
12    1  0.1335216E-007  0.4275685E+03  0.7818608E-02  0.1034631E+00
         -2   -1    0    0    0  501 -0.00000000000E+00  0.00000000000E+00  0.52530182218E+03  0.52530182218E+03  0.00000000000E+00 0.  1.
          2   -1    0    0  501    0  0.00000000000E+00 -0.00000000000E+00 -0.52783381196E+03  0.52783381196E+03  0.00000000000E+00 0. -1.
         23    2    1    2    0    0  0.19704073949E+03 -0.19272035484E+03  0.21176522260E+03  0.35893236516E+03  0.89564195232E+02 0.  0.
    5000000    2    1    2    0    0 -0.19704073949E+03  0.19272035484E+03 -0.21429721239E+03  0.69420326898E+03  0.60002391223E+03 0.  0.
         23    2    4    4    0    0  0.63923834722E+02 -0.12971314159E+03 -0.20847489169E+03  0.26951159837E+03  0.90900855032E+02 0.  0.
         23    2    4    4    0    0 -0.26096457421E+03  0.32243349643E+03 -0.58223207017E+01  0.42469167061E+03  0.90902404026E+02 0.  0.
          1    1    3    3  502    0  0.17020922302E+03 -0.14517430720E+03  0.20586786847E+03  0.30402029265E+03  0.00000000000E+00 0. -1.
         -1    1    3    3    0  502  0.26831516466E+02 -0.47546047635E+02  0.58973541319E+01  0.54912072510E+02  0.00000000000E+00 0.  1.
         13    1    5    5    0    0 -0.13903233801E+02 -0.13592827119E+02 -0.70371663234E+02  0.73008464204E+02  0.00000000000E+00 0.  1.
        -13    1    5    5    0    0  0.77827068524E+02 -0.11612031447E+03 -0.13810322845E+03  0.19650313417E+03  0.00000000000E+00 0. -1.
          3    1    6    6  503    0 -0.20519365958E+03  0.21914629331E+03  0.30642926803E+02  0.30177561990E+03  0.00000000000E+00 0. -1.
         -3    1    6    6    0  503 -0.55770914625E+02  0.10328720312E+03 -0.36465247505E+02  0.12291605071E+03  0.00000000000E+00 0.  1.
<mgrwt>
<rscale>  0 0.42756851E+03</rscale>
<asrwt>0</asrwt>
<pdfrwt beam="1">  1        2 0.81205202E-01 0.42756851E+03</pdfrwt>
<pdfrwt beam="2">  1       -2 0.80815665E-01 0.42756851E+03</pdfrwt>
<totfact> 0.80928785E+01</totfact>
</mgrwt>
</event>
<event>
12    1  0.1335216E-007  0.4906916E+03  0.7818608E-02  0.1016237E+00
          2   -1    0    0  501    0  0.00000000000E+00  0.00000000000E+00  0.14294382107E+04  0.14294382107E+04  0.00000000000E+00 0. -1.
         -2   -1    0    0    0  501 -0.00000000000E+00 -0.00000000000E+00 -0.63816651764E+03  0.63816651764E+03  0.00000000000E+00 0.  1.
         23    2    1    2    0    0 -0.78229705359E+02 -0.46044826378E+03  0.11372175238E+04  0.12322857210E+04  0.84450644156E+02 0.  0.
    5000000    2    1    2    0    0  0.78229705359E+02  0.46044826378E+03 -0.34594583080E+03  0.83531900730E+03  0.59995569477E+03 0.  0.
         23    2    4    4    0    0 -0.18724742801E+02  0.33995098618E+03  0.87385263474E+02  0.36589603094E+03  0.10161905424E+03 0.  0.
         23    2    4    4    0    0  0.96954448160E+02  0.12049727760E+03 -0.43333109427E+03  0.46942297636E+03  0.93071663480E+02 0.  0.
          3    1    3    3  502    0 -0.55366160382E+02 -0.12109225529E+03  0.27962612185E+03  0.30970875678E+03  0.00000000000E+00 0. -1.
         -3    1    3    3    0  502 -0.22863544977E+02 -0.33935600849E+03  0.85759140198E+03  0.92257696424E+03  0.00000000000E+00 0.  1.
         11    1    5    5    0    0 -0.22165979652E+01  0.11653339815E+03  0.80707847070E+02  0.14176989374E+03  0.00000000000E+00 0. -1.
        -11    1    5    5    0    0 -0.16508144836E+02  0.22341758803E+03  0.66774164044E+01  0.22412613720E+03  0.00000000000E+00 0.  1.
          2    1    6    6  503    0  0.20026208443E+02 -0.47128913153E+01 -0.13478805967E+02  0.24595499171E+02  0.00000000000E+00 0. -1.
         -2    1    6    6    0  503  0.76928239717E+02  0.12521016891E+03 -0.41985228831E+03  0.44482747719E+03  0.00000000000E+00 0.  1.
<mgrwt>
<rscale>  0 0.49069165E+03</rscale>
<asrwt>0</asrwt>
<pdfrwt beam="1">  1        2 0.21991357E+00 0.49069165E+03</pdfrwt>
<pdfrwt beam="2">  1       -2 0.98179465E-01 0.49069165E+03</pdfrwt>
<totfact> 0.12807533E+01</totfact>
</mgrwt>
</event>
<event>
12    1  0.1335216E-007  0.1636454E+04  0.7818608E-02  0.8798461E-01
         -1   -1    0    0    0  501 -0.00000000000E+00  0.00000000000E+00  0.24382712136E+04  0.24382712136E+04  0.00000000000E+00 0.  1.
          1   -1    0    0  501    0  0.00000000000E+00 -0.00000000000E+00 -0.13407306539E+04  0.13407306539E+04  0.00000000000E+00 0. -1.
         23    2    1    2    0    0  0.14715021566E+04 -0.61207347179E+03  0.13070938368E+04  0.20632502921E+04  0.92492908756E+02 0.  0.
    5000000    2    1    2    0    0 -0.14715021566E+04  0.61207347179E+03 -0.20955327711E+03  0.17157515753E+04  0.59994863170E+03 0.  0.
         23    2    4    4    0    0 -0.12962884926E+04  0.68895645368E+03 -0.92098224057E+02  0.14736827103E+04  0.90740271268E+02 0.  0.
         23    2    4    4    0    0 -0.17521366399E+03 -0.76882981887E+02 -0.11745505306E+03  0.24206886500E+03  0.90503176525E+02 0.  0.
          2    1    3    3  502    0  0.76118200668E+03 -0.36293217206E+03  0.71309657182E+03  0.11043661212E+04  0.00000000000E+00 0.  1.
         -2    1    3    3    0  502  0.71032014988E+03 -0.24914129973E+03  0.59399726495E+03  0.95888417096E+03  0.00000000000E+00 0. -1.
         13    1    5    5    0    0 -0.78101449355E+03  0.45678582169E+03 -0.32272303524E+02  0.90536093775E+03  0.00000000000E+00 0. -1.
        -13    1    5    5    0    0 -0.51527399902E+03  0.23217063199E+03 -0.59825920532E+02  0.56832177258E+03  0.00000000000E+00 0.  1.
          4    1    6    6  503    0 -0.12696882663E+03 -0.14090127527E+02 -0.47136654585E+02  0.13616709894E+03  0.00000000000E+00 0. -1.
         -4    1    6    6    0  503 -0.48244837367E+02 -0.62792854360E+02 -0.70318398472E+02  0.10590176606E+03  0.00000000000E+00 0.  1.
<mgrwt>
<rscale>  0 0.16364541E+04</rscale>
<asrwt>0</asrwt>
<pdfrwt beam="1">  1        1 0.20626625E+00 0.16364541E+04</pdfrwt>
<pdfrwt beam="2">  1       -1 0.37511865E+00 0.16364541E+04</pdfrwt>
<totfact> 0.83312155E-02</totfact>
</mgrwt>
</event>
<event>
12    1  0.1335216E-007  0.7648215E+03  0.7818608E-02  0.9612380E-01
          1   -1    0    0  501    0  0.00000000000E+00  0.00000000000E+00  0.19673542943E+04  0.19673542943E+04  0.00000000000E+00 0. -1.
         -1   -1    0    0    0  501 -0.00000000000E+00 -0.00000000000E+00 -0.89379266531E+03  0.89379266531E+03  0.00000000000E+00 0.  1.
         23    2    1    2    0    0 -0.66783987015E+03  0.29947033513E+03 -0.59179506951E+03  0.94566909704E+03  0.91520833792E+02 0.  0.
    5000000    2    1    2    0    0  0.66783987015E+03 -0.29947033513E+03  0.16653566986E+04  0.19154778626E+04  0.59995827770E+03 0.  0.
         23    2    4    4    0    0  0.33540624638E+03 -0.33803812737E+01  0.25040838318E+03  0.42937800124E+03  0.95667823687E+02 0.  0.
         23    2    4    4    0    0  0.33243362377E+03 -0.29608995386E+03  0.14149483154E+04  0.14860998614E+04  0.90734160272E+02 0.  0.
          3    1    3    3  502    0 -0.62581833697E+03  0.25961339252E+03 -0.52410223835E+03  0.85658091311E+03  0.00000000000E+00 0. -1.
         -3    1    3    3    0  502 -0.42021533172E+02  0.39856942610E+02 -0.67692831164E+02  0.89088183926E+02  0.00000000000E+00 0.  1.
         13    1    5    5    0    0  0.13387803848E+02 -0.22479382638E+02  0.20755812371E+02  0.33397001106E+02  0.00000000000E+00 0. -1.
        -13    1    5    5    0    0  0.32201844253E+03  0.19099001364E+02  0.22965257081E+03  0.39598100013E+03  0.00000000000E+00 0.  1.
          2    1    6    6  503    0  0.20382215622E+03 -0.17133050583E+03  0.69694161807E+03  0.74607320859E+03  0.00000000000E+00 0. -1.
         -2    1    6    6    0  503  0.12861146755E+03 -0.12475944803E+03  0.71800669731E+03  0.74002665279E+03  0.00000000000E+00 0.  1.
<mgrwt>
<rscale>  0 0.76482152E+03</rscale>
<asrwt>0</asrwt>
<pdfrwt beam="1">  1        1 0.30266989E+00 0.76482152E+03</pdfrwt>
<pdfrwt beam="2">  1       -1 0.13750656E+00 0.76482152E+03</pdfrwt>
<totfact> 0.14500669E+00</totfact>
</mgrwt>
</event>
<event>
12    1  0.1335216E-007  0.5775429E+03  0.7818608E-02  0.9953125E-01
         -2   -1    0    0    0  501 -0.00000000000E+00  0.00000000000E+00  0.83500033581E+03  0.83500033581E+03  0.00000000000E+00 0.  1.
          2   -1    0    0  501    0  0.00000000000E+00 -0.00000000000E+00 -0.61131153313E+03  0.61131153313E+03  0.00000000000E+00 0. -1.
         23    2    1    2    0    0 -0.28200279130E+03 -0.33942828053E+03 -0.29228895520E+03  0.54034961655E+03  0.10866343842E+03 0.  0.
    5000000    2    1    2    0    0  0.28200279130E+03  0.33942828053E+03  0.51597775788E+03  0.90596225239E+03  0.59983116307E+03 0.  0.
         23    2    4    4    0    0 -0.14730010949E+03  0.20179086813E+03  0.29521799035E+03  0.39585647908E+03  0.84450065034E+02 0.  0.
         23    2    4    4    0    0  0.42930290079E+03  0.13763741240E+03  0.22075976753E+03  0.51010577331E+03  0.90708252569E+02 0.  0.
          4    1    3    3  502    0 -0.79171032655E+02 -0.70847389802E+02 -0.12640934884E+03  0.16512640167E+03  0.00000000000E+00 0. -1.
         -4    1    3    3    0  502 -0.20283175865E+03 -0.26858089073E+03 -0.16587960636E+03  0.37522321488E+03  0.00000000000E+00 0.  1.
         13    1    5    5    0    0 -0.50876276412E+02  0.12271311414E+03  0.19462194251E+03  0.23563659391E+03  0.00000000000E+00 0.  1.
        -13    1    5    5    0    0 -0.96423833076E+02  0.79077753996E+02  0.10059604784E+03  0.16021988517E+03  0.00000000000E+00 0. -1.
          1    1    6    6  503    0  0.18256518816E+03  0.27868016553E+02  0.52791054609E+02  0.19207698905E+03  0.00000000000E+00 0. -1.
         -1    1    6    6    0  503  0.24673771263E+03  0.10976939585E+03  0.16796871292E+03  0.31802878426E+03  0.00000000000E+00 0.  1.
<mgrwt>
<rscale>  0 0.57754290E+03</rscale>
<asrwt>0</asrwt>
<pdfrwt beam="1">  1        2 0.94047929E-01 0.57754290E+03</pdfrwt>
<pdfrwt beam="2">  1       -2 0.12846159E+00 0.57754290E+03</pdfrwt>
<totfact> 0.22373938E+01</totfact>
</mgrwt>
</event>
<event>
12    1  0.1335216E-007  0.1196027E+04  0.7818608E-02  0.9116341E-01
          1   -1    0    0  501    0  0.00000000000E+00  0.00000000000E+00  0.80582173921E+03  0.80582173921E+03  0.00000000000E+00 0. -1.
         -1   -1    0    0    0  501 -0.00000000000E+00 -0.00000000000E+00 -0.21117248114E+04  0.21117248114E+04  0.00000000000E+00 0.  1.
         23    2    1    2    0    0 -0.65935077580E+03  0.95086848375E+03 -0.10983920657E+04  0.15977531891E+04  0.86346999600E+02 0.  0.
    5000000    2    1    2    0    0  0.65935077580E+03 -0.95086848375E+03 -0.20751100654E+03  0.13197933616E+04  0.59991614452E+03 0.  0.
         23    2    4    4    0    0  0.95580174561E+02 -0.48595704568E+03  0.11243045863E+03  0.51625275940E+03  0.92663280463E+02 0.  0.
         23    2    4    4    0    0  0.56377060124E+03 -0.46491143807E+03 -0.31994146517E+03  0.80354060217E+03  0.96617918245E+02 0.  0.
          4    1    3    3  502    0 -0.28687181286E+03  0.46804793865E+03 -0.47913281941E+03  0.72865119812E+03  0.00000000000E+00 0. -1.
         -4    1    3    3    0  502 -0.37247896293E+03  0.48282054511E+03 -0.61925924627E+03  0.86910199096E+03  0.00000000000E+00 0.  1.
         11    1    5    5    0    0 -0.12294945389E+01 -0.19844687383E+03  0.21865032399E+02  0.19965157909E+03  0.00000000000E+00 0.  1.
        -11    1    5    5    0    0  0.96809669100E+02 -0.28751017185E+03  0.90565426227E+02  0.31660118031E+03  0.00000000000E+00 0. -1.
          4    1    6    6  503    0  0.44680805315E+02 -0.48944456813E+02 -0.20821989999E+01  0.66304372171E+02  0.00000000000E+00 0. -1.
         -4    1    6    6    0  503  0.51908979592E+03 -0.41596698126E+03 -0.31785926617E+03  0.73723622999E+03  0.00000000000E+00 0.  1.
<mgrwt>
<rscale>  0 0.11960271E+04</rscale>
<asrwt>0</asrwt>
<pdfrwt beam="1">  1        1 0.12397258E+00 0.11960271E+04</pdfrwt>
<pdfrwt beam="2">  1       -1 0.32488074E+00 0.11960271E+04</pdfrwt>
<totfact> 0.49164461E-01</totfact>
</mgrwt>
</event>
<event>
12    1  0.1335216E-007  0.7771469E+03  0.7818608E-02  0.9593698E-01
         -1   -1    0    0    0  501 -0.00000000000E+00  0.00000000000E+00  0.10574439452E+04  0.10574439452E+04  0.00000000000E+00 0.  1.
          1   -1    0    0  501    0  0.00000000000E+00 -0.00000000000E+00 -0.69265492622E+03  0.69265492622E+03  0.00000000000E+00 0. -1.
         23    2    1    2    0    0 -0.39588720930E+03 -0.63305810385E+03  0.19668210098E+03  0.77758080317E+03  0.91971796069E+02 0.  0.
    5000000    2    1    2    0    0  0.39588720930E+03  0.63305810385E+03  0.16810691797E+03  0.97251806822E+03  0.60003517548E+03 0.  0.
         23    2    4    4    0    0  0.31348945677E+02  0.25040091664E+02  0.23439896482E+03  0.25483739727E+03  0.91594005010E+02 0.  0.
         23    2    4    4    0    0  0.36453826362E+03  0.60801801219E+03 -0.66292046847E+02  0.71768067095E+03  0.89982560490E+02 0.  0.
          1    1    3    3  502    0 -0.29491975091E+03 -0.52876049168E+03  0.13780146135E+03  0.62093039851E+03  0.00000000000E+00 0. -1.
         -1    1    3    3    0  502 -0.10096745839E+03 -0.10429761218E+03  0.58880639630E+02  0.15665040467E+03  0.00000000000E+00 0.  1.
         13    1    5    5    0    0 -0.24796227175E+02  0.24744345612E+02  0.14577685626E+03  0.14992673992E+03  0.00000000000E+00 0. -1.
        -13    1    5    5    0    0  0.56145172852E+02  0.29574605265E+00  0.88622108558E+02  0.10491065735E+03  0.00000000000E+00 0.  1.
          3    1    6    6  503    0  0.11789298947E+03  0.26479948648E+03  0.37340010955E-01  0.28985776926E+03  0.00000000000E+00 0. -1.
         -3    1    6    6    0  503  0.24664527415E+03  0.34321852571E+03 -0.66329386858E+02  0.42782290169E+03  0.00000000000E+00 0.  1.
<mgrwt>
<rscale>  0 0.77714690E+03</rscale>
<asrwt>0</asrwt>
<pdfrwt beam="1">  1        1 0.10656230E+00 0.77714690E+03</pdfrwt>
<pdfrwt beam="2">  1       -1 0.16268368E+00 0.77714690E+03</pdfrwt>
<totfact> 0.79420032E+00</totfact>
</mgrwt>
</event>
<event>
12    1  0.1335216E-007  0.8275426E+03  0.7818608E-02  0.9520984E-01
          2   -1    0    0  501    0  0.00000000000E+00  0.00000000000E+00  0.10829798507E+04  0.10829798507E+04  0.00000000000E+00 0.  1.
         -2   -1    0    0    0  501 -0.00000000000E+00 -0.00000000000E+00 -0.67812267703E+03  0.67812267703E+03  0.00000000000E+00 0. -1.
         23    2    1    2    0    0 -0.46690414400E+03 -0.54701448949E+03  0.39259732808E+03  0.82445179107E+03  0.91453607859E+02 0.  0.
    5000000    2    1    2    0    0  0.46690414400E+03  0.54701448949E+03  0.12259845570E+02  0.93665073663E+03  0.59994997061E+03 0.  0.
         23    2    4    4    0    0  0.48013247714E+03  0.12530024918E+03  0.14523466199E+02  0.50469925993E+03  0.91011339149E+02 0.  0.
         23    2    4    4    0    0 -0.13228333143E+02  0.42171424031E+03 -0.22636206284E+01  0.43195147671E+03  0.92515214812E+02 0.  0.
          2    1    3    3  502    0 -0.67600142288E+02 -0.37581721302E+02  0.34087350068E+02  0.84522851632E+02  0.00000000000E+00 0.  1.
         -2    1    3    3    0  502 -0.39930400171E+03 -0.50943276819E+03  0.35850997801E+03  0.73992893944E+03  0.00000000000E+00 0. -1.
         11    1    5    5    0    0  0.18745382914E+03  0.22396052618E+02 -0.30409134655E+02  0.19122038778E+03  0.00000000000E+00 0.  1.
        -11    1    5    5    0    0  0.29267864800E+03  0.10290419656E+03  0.44932600854E+02  0.31347887215E+03  0.00000000000E+00 0. -1.
          1    1    6    6  503    0  0.27535528297E+02  0.32907703559E+03 -0.10619250715E+02  0.33039774388E+03  0.00000000000E+00 0. -1.
         -1    1    6    6    0  503 -0.40763861440E+02  0.92637204720E+02  0.83556300871E+01  0.10155373283E+03  0.00000000000E+00 0.  1.
<mgrwt>
<rscale>  0 0.82754261E+03</rscale>
<asrwt>0</asrwt>
<pdfrwt beam="1">  1        2 0.16661228E+00 0.82754261E+03</pdfrwt>
<pdfrwt beam="2">  1       -2 0.10432657E+00 0.82754261E+03</pdfrwt>
<totfact> 0.16820519E+01</totfact>
</mgrwt>
</event>
<event>
12    1  0.1335216E-007  0.2442513E+03  0.7818608E-02  0.1116993E+00
         -2   -1    0    0    0  501 -0.00000000000E+00  0.00000000000E+00  0.54409936126E+02  0.54409936126E+02  0.00000000000E+00 0.  1.
          2   -1    0    0  501    0  0.00000000000E+00 -0.00000000000E+00 -0.23603173595E+04  0.23603173595E+04  0.00000000000E+00 0. -1.
         23    2    1    2    0    0  0.43102870920E+02 -0.46959307518E+02 -0.29625644448E+03  0.31658917883E+03  0.91639474089E+02 0.  0.
    5000000    2    1    2    0    0 -0.43102870920E+02  0.46959307518E+02 -0.20096509789E+04  0.20981381168E+04  0.59951936260E+03 0.  0.
         23    2    4    4    0    0  0.14638376528E+03  0.95275546586E+02 -0.21882674472E+03  0.29435472044E+03  0.90851090943E+02 0.  0.
         23    2    4    4    0    0 -0.18948663620E+03 -0.48316239068E+02 -0.17908242341E+04  0.18037833963E+04  0.91342536743E+02 0.  0.
          1    1    3    3  502    0 -0.96303519314E+00  0.22339968015E+02 -0.12096254958E+03  0.12301195067E+03  0.00000000000E+00 0. -1.
         -1    1    3    3    0  502  0.44065906113E+02 -0.69299275533E+02 -0.17529389490E+03  0.19357722816E+03  0.00000000000E+00 0.  1.
         13    1    5    5    0    0  0.37112854663E+02  0.56510424935E+02 -0.13596207787E+03  0.15184359955E+03  0.00000000000E+00 0.  1.
        -13    1    5    5    0    0  0.10927091062E+03  0.38765121651E+02 -0.82864666857E+02  0.14251112089E+03  0.00000000000E+00 0. -1.
          4    1    6    6  503    0 -0.67660788656E+02 -0.39445655944E+02 -0.10537447459E+04  0.10566512820E+04  0.00000000000E+00 0. -1.
         -4    1    6    6    0  503 -0.12182584754E+03 -0.88705831239E+01 -0.73707948823E+03  0.74713211438E+03  0.00000000000E+00 0.  1.
<mgrwt>
<rscale>  0 0.24425131E+03</rscale>
<asrwt>0</asrwt>
<pdfrwt beam="1">  1        2 0.36312572E+00 0.24425131E+03</pdfrwt>
<pdfrwt beam="2">  1       -2 0.83707600E-02 0.24425131E+03</pdfrwt>
<totfact> 0.42369999E+02</totfact>
</mgrwt>
</event>
<event>
12    1  0.1335216E-007  0.3212751E+03  0.7818608E-02  0.1075064E+00
          1   -1    0    0  501    0  0.00000000000E+00  0.00000000000E+00  0.80140220869E+03  0.80140220869E+03  0.00000000000E+00 0. -1.
         -1   -1    0    0    0  501 -0.00000000000E+00 -0.00000000000E+00 -0.39353675385E+03  0.39353675385E+03  0.00000000000E+00 0.  1.
         23    2    1    2    0    0  0.18575193476E+03  0.70974704233E+02  0.51041215250E+03  0.55452961840E+03  0.86263215511E+02 0.  0.
    5000000    2    1    2    0    0 -0.18575193476E+03 -0.70974704233E+02 -0.10254669766E+03  0.64040934415E+03  0.60005592486E+03 0.  0.
         23    2    4    4    0    0  0.10106128868E+03  0.26764475552E+02  0.17238213160E+03  0.22124998769E+03  0.91138556812E+02 0.  0.
         23    2    4    4    0    0 -0.28681322345E+03 -0.97739179785E+02 -0.27492882926E+03  0.41915935645E+03  0.91071030149E+02 0.  0.
          4    1    3    3  502    0  0.52017367129E+02  0.57230524694E+01  0.24234741411E+03  0.24793311384E+03  0.00000000000E+00 0. -1.
         -4    1    3    3    0  502  0.13373456764E+03  0.65251651763E+02  0.26806473839E+03  0.30659650456E+03  0.00000000000E+00 0.  1.
         13    1    5    5    0    0  0.42398237630E+02  0.56682326718E+02  0.10818270515E+03  0.12928261449E+03  0.00000000000E+00 0. -1.
        -13    1    5    5    0    0  0.58663051054E+02 -0.29917851166E+02  0.64199426455E+02  0.91967373207E+02  0.00000000000E+00 0.  1.
          3    1    6    6  503    0 -0.70520042253E+02 -0.94128410207E+01 -0.21171356080E+02  0.74228729302E+02  0.00000000000E+00 0. -1.
         -3    1    6    6    0  503 -0.21629318119E+03 -0.88326338764E+02 -0.25375747318E+03  0.34493062715E+03  0.00000000000E+00 0.  1.
<mgrwt>
<rscale>  0 0.32127512E+03</rscale>
<asrwt>0</asrwt>
<pdfrwt beam="1">  1        1 0.12329265E+00 0.32127512E+03</pdfrwt>
<pdfrwt beam="2">  1       -1 0.60544116E-01 0.32127512E+03</pdfrwt>
<totfact> 0.65871430E+01</totfact>
</mgrwt>
</event>
<event>
12    1  0.1335216E-007  0.5187055E+03  0.7818608E-02  0.1009009E+00
         -1   -1    0    0    0  501 -0.00000000000E+00  0.00000000000E+00  0.10334049558E+04  0.10334049558E+04  0.00000000000E+00 0.  1.
          1   -1    0    0  501    0  0.00000000000E+00 -0.00000000000E+00 -0.52754433633E+03  0.52754433633E+03  0.00000000000E+00 0. -1.
         23    2    1    2    0    0 -0.37103195645E+03 -0.14975004892E+03 -0.27913049781E+03  0.49496124074E+03  0.83564377369E+02 0.  0.
    5000000    2    1    2    0    0  0.37103195645E+03  0.14975004892E+03  0.78499111729E+03  0.10659880514E+04  0.60002473420E+03 0.  0.
         23    2    4    4    0    0  0.11439967839E+03  0.30883481954E+03  0.63032261077E+03  0.71703826171E+03  0.91493403784E+02 0.  0.
         23    2    4    4    0    0  0.25663227806E+03 -0.15908477061E+03  0.15466850651E+03  0.34894978969E+03  0.81703845885E+02 0.  0.
          1    1    3    3  502    0 -0.22509675036E+03 -0.11552556297E+03 -0.13393626875E+03  0.28627543871E+03  0.00000000000E+00 0. -1.
         -1    1    3    3    0  502 -0.14593520609E+03 -0.34224485954E+02 -0.14519422906E+03  0.20868580203E+03  0.00000000000E+00 0.  1.
         13    1    5    5    0    0  0.93190785762E+01  0.72381195124E+02  0.76365256031E+02  0.10562923346E+03  0.00000000000E+00 0.  1.
        -13    1    5    5    0    0  0.10508059981E+03  0.23645362441E+03  0.55395735474E+03  0.61140902825E+03  0.00000000000E+00 0. -1.
          4    1    6    6  503    0  0.12150254852E+03 -0.88533780006E+02  0.33015578110E+02  0.15391922524E+03  0.00000000000E+00 0.  1.
         -4    1    6    6    0  503  0.13512972954E+03 -0.70550990606E+02  0.12165292840E+03  0.19503056445E+03  0.00000000000E+00 0. -1.
<mgrwt>
<rscale>  0 0.51870548E+03</rscale>
<asrwt>0</asrwt>
<pdfrwt beam="1">  1        1 0.81160667E-01 0.51870548E+03</pdfrwt>
<pdfrwt beam="2">  1       -1 0.15898538E+00 0.51870548E+03</pdfrwt>
<totfact> 0.13016614E+01</totfact>
</mgrwt>
</event>
<event>
12    1  0.1335216E-007  0.4287409E+03  0.7818608E-02  0.1034258E+00
         -1   -1    0    0    0  501 -0.00000000000E+00  0.00000000000E+00  0.74859920902E+03  0.74859920902E+03  0.00000000000E+00 0.  1.
          1   -1    0    0  501    0  0.00000000000E+00 -0.00000000000E+00 -0.42500498599E+03  0.42500498599E+03  0.00000000000E+00 0. -1.
         23    2    1    2    0    0  0.22543888770E+03 -0.31548195925E+03  0.20598548679E+03  0.44957658916E+03  0.96630895962E+02 0.  0.
    5000000    2    1    2    0    0 -0.22543888770E+03  0.31548195925E+03  0.11760873624E+03  0.72402760585E+03  0.60002716647E+03 0.  0.
         23    2    4    4    0    0 -0.25064393279E+03  0.15983877437E+03  0.32357243916E+03  0.44901662247E+03  0.92444518677E+02 0.  0.
         23    2    4    4    0    0  0.25205045096E+02  0.15564318488E+03 -0.20596370292E+03  0.27501098338E+03  0.91377780461E+02 0.  0.
          1    1    3    3  502    0  0.41960876028E+02 -0.34183471530E+02 -0.26741621955E+01  0.54188338103E+02  0.00000000000E+00 0. -1.
         -1    1    3    3    0  502  0.18347801167E+03 -0.28129848772E+03  0.20865964899E+03  0.39538825106E+03  0.00000000000E+00 0.  1.
         11    1    5    5    0    0 -0.22037369453E+03  0.98527023229E+02  0.26980675909E+03  0.36203290845E+03  0.00000000000E+00 0. -1.
        -11    1    5    5    0    0 -0.30270238266E+02  0.61311751138E+02  0.53765680068E+02  0.86983714024E+02  0.00000000000E+00 0.  1.
          4    1    6    6  503    0  0.11120978294E+02  0.83199433153E+02 -0.39188787114E+02  0.92636833229E+02  0.00000000000E+00 0.  1.
         -4    1    6    6    0  503  0.14084066801E+02  0.72443751728E+02 -0.16677491580E+03  0.18237415015E+03  0.00000000000E+00 0. -1.
<mgrwt>
<rscale>  0 0.42874090E+03</rscale>
<asrwt>0</asrwt>
<pdfrwt beam="1">  1        1 0.65385382E-01 0.42874090E+03</pdfrwt>
<pdfrwt beam="2">  1       -1 0.11516911E+00 0.42874090E+03</pdfrwt>
<totfact> 0.40133587E+01</totfact>
</mgrwt>
</event>
<event>
12    1  0.1335216E-007  0.8576286E+03  0.7818608E-02  0.9480155E-01
         -2   -1    0    0    0  501 -0.00000000000E+00  0.00000000000E+00  0.80474349888E+03  0.80474349888E+03  0.00000000000E+00 0. -1.
          2   -1    0    0  501    0  0.00000000000E+00 -0.00000000000E+00 -0.10765344805E+04  0.10765344805E+04  0.00000000000E+00 0.  1.
         23    2    1    2    0    0 -0.62767203493E+03  0.45293223667E+03 -0.42864303596E+03  0.88952435453E+03  0.91645679548E+02 0.  0.
    5000000    2    1    2    0    0  0.62767203493E+03 -0.45293223667E+03  0.15685205433E+03  0.99175362486E+03  0.59987739666E+03 0.  0.
         23    2    4    4    0    0  0.17508692237E+03 -0.44895650404E+03  0.19801881173E+03  0.52895839615E+03  0.91477659312E+02 0.  0.
         23    2    4    4    0    0  0.45258511256E+03 -0.39757326239E+01 -0.41166757406E+02  0.46279522870E+03  0.87382099036E+02 0.  0.
          1    1    3    3  502    0 -0.26036164637E+03  0.16465026435E+03 -0.12442274345E+03  0.33223322461E+03  0.00000000000E+00 0. -1.
         -1    1    3    3    0  502 -0.36731038857E+03  0.28828197232E+03 -0.30422029251E+03  0.55729112992E+03  0.00000000000E+00 0.  1.
         11    1    5    5    0    0  0.58105693775E+02 -0.15384760884E+03  0.11549341791E+03  0.20095792589E+03  0.00000000000E+00 0.  1.
        -11    1    5    5    0    0  0.11698122860E+03 -0.29510889520E+03  0.82525393822E+02  0.32800047027E+03  0.00000000000E+00 0. -1.
          3    1    6    6  503    0  0.19876992849E+03  0.34224583800E+02 -0.42472231790E+02  0.20611816291E+03  0.00000000000E+00 0. -1.
         -3    1    6    6    0  503  0.25381518407E+03 -0.38200316424E+02  0.13054743842E+01  0.25667706579E+03  0.00000000000E+00 0.  1.
<mgrwt>
<rscale>  0 0.85762856E+03</rscale>
<asrwt>0</asrwt>
<pdfrwt beam="1">  1        2 0.16562069E+00 0.85762856E+03</pdfrwt>
<pdfrwt beam="2">  1       -2 0.12380669E+00 0.85762856E+03</pdfrwt>
<totfact> 0.11131462E+01</totfact>
</mgrwt>
</event>
<event>
12    1  0.1335216E-007  0.1348458E+04  0.7818608E-02  0.8991996E-01
          1   -1    0    0  501    0  0.00000000000E+00  0.00000000000E+00  0.99720825747E+03  0.99720825747E+03  0.00000000000E+00 0. -1.
         -1   -1    0    0    0  501 -0.00000000000E+00 -0.00000000000E+00 -0.27362065786E+04  0.27362065786E+04  0.00000000000E+00 0.  1.
         23    2    1    2    0    0 -0.69302544381E+03 -0.10865897924E+04 -0.19055274467E+04  0.23020852934E+04  0.87179155013E+02 0.  0.
    5000000    2    1    2    0    0  0.69302544381E+03  0.10865897924E+04  0.16652912562E+03  0.14313295427E+04  0.60000888929E+03 0.  0.
         23    2    4    4    0    0  0.27875106730E+03  0.89964551670E+03  0.24882664078E+02  0.94656049896E+03  0.91068205107E+02 0.  0.
         23    2    4    4    0    0  0.41427437650E+03  0.18694427572E+03  0.14164646154E+03  0.48476904369E+03  0.91465208678E+02 0.  0.
          1    1    3    3  502    0 -0.33317786860E+03 -0.44224394117E+03 -0.81328419797E+03  0.98387925189E+03  0.00000000000E+00 0. -1.
         -1    1    3    3    0  502 -0.35984757520E+03 -0.64434585125E+03 -0.10922432488E+04  0.13182060415E+04  0.00000000000E+00 0.  1.
         11    1    5    5    0    0  0.21933262512E+03  0.59201886683E+03  0.42352888077E+02  0.63276133435E+03  0.00000000000E+00 0. -1.
        -11    1    5    5    0    0  0.59418442183E+02  0.30762664988E+03 -0.17470223999E+02  0.31379916462E+03  0.00000000000E+00 0.  1.
          3    1    6    6  503    0  0.17458345480E+03  0.11941987838E+03  0.37361475207E+02  0.21479378453E+03  0.00000000000E+00 0. -1.
         -3    1    6    6    0  503  0.23969092171E+03  0.67524397339E+02  0.10428498633E+03  0.26997525916E+03  0.00000000000E+00 0.  1.
<mgrwt>
<rscale>  0 0.13484585E+04</rscale>
<asrwt>0</asrwt>
<pdfrwt beam="1">  1        1 0.15341666E+00 0.13484585E+04</pdfrwt>
<pdfrwt beam="2">  1       -1 0.42095485E+00 0.13484585E+04</pdfrwt>
<totfact> 0.75853506E-02</totfact>
</mgrwt>
</event>
<event>
12    1  0.1335216E-007  0.4868001E+03  0.7818608E-02  0.1017283E+00
         -2   -1    0    0    0  501 -0.00000000000E+00  0.00000000000E+00  0.18469013278E+03  0.18469013278E+03  0.00000000000E+00 0.  1.
          2   -1    0    0  501    0  0.00000000000E+00 -0.00000000000E+00 -0.20661796959E+04  0.20661796959E+04  0.00000000000E+00 0. -1.
         23    2    1    2    0    0 -0.24515664898E+03  0.22966297802E+03 -0.13409216813E+03  0.37299796826E+03  0.91103835053E+02 0.  0.
    5000000    2    1    2    0    0  0.24515664898E+03 -0.22966297802E+03 -0.17473973950E+04  0.18778718604E+04  0.60013182062E+03 0.  0.
         23    2    4    4    0    0 -0.66464421785E+02 -0.29089607723E+03 -0.51678790139E+03  0.60366452095E+03  0.91121192484E+02 0.  0.
         23    2    4    4    0    0  0.31162107076E+03  0.61233099212E+02 -0.12306094936E+04  0.12742073395E+04  0.91364292990E+02 0.  0.
          3    1    3    3  502    0 -0.22465535797E+03  0.16566987174E+03 -0.12239671786E+03  0.30479090014E+03  0.00000000000E+00 0. -1.
         -3    1    3    3    0  502 -0.20501291013E+02  0.63993106282E+02 -0.11695450269E+02  0.68207068122E+02  0.00000000000E+00 0.  1.
         11    1    5    5    0    0 -0.22362891075E+01 -0.16685263159E+03 -0.22459682669E+03  0.27980088674E+03  0.00000000000E+00 0. -1.
        -11    1    5    5    0    0 -0.64228132677E+02 -0.12404344564E+03 -0.29219107470E+03  0.32386363422E+03  0.00000000000E+00 0.  1.
          1    1    6    6  503    0  0.22358556297E+03  0.23100972112E+02 -0.70668286317E+03  0.74156916601E+03  0.00000000000E+00 0. -1.
         -1    1    6    6    0  503  0.88035507794E+02  0.38132127100E+02 -0.52392663042E+03  0.53263817345E+03  0.00000000000E+00 0.  1.
<mgrwt>
<rscale>  0 0.48680010E+03</rscale>
<asrwt>0</asrwt>
<pdfrwt beam="1">  1        2 0.31787381E+00 0.48680010E+03</pdfrwt>
<pdfrwt beam="2">  1       -2 0.28413865E-01 0.48680010E+03</pdfrwt>
<totfact> 0.74333777E+01</totfact>
</mgrwt>
</event>
<event>
12    1  0.1335216E-007  0.6064013E+03  0.7818608E-02  0.9892214E-01
         -1   -1    0    0    0  501 -0.00000000000E+00  0.00000000000E+00  0.18162131797E+04  0.18162131797E+04  0.00000000000E+00 0.  1.
          1   -1    0    0  501    0  0.00000000000E+00 -0.00000000000E+00 -0.26400323033E+03  0.26400323033E+03  0.00000000000E+00 0. -1.
         23    2    1    2    0    0 -0.37876241243E+03 -0.40652741672E+03  0.70371618435E+03  0.90174059437E+03  0.95886004238E+02 0.  0.
    5000000    2    1    2    0    0  0.37876241243E+03  0.40652741672E+03  0.84849376498E+03  0.11784758156E+04  0.60011504993E+03 0.  0.
         23    2    4    4    0    0 -0.50470589093E-01 -0.16935872452E+02  0.49406175740E+03  0.50258350062E+03  0.90588788761E+02 0.  0.
         23    2    4    4    0    0  0.37881288302E+03  0.42346328917E+03  0.35443200758E+03  0.67589231499E+03  0.91586111633E+02 0.  0.
          1    1    3    3  502    0 -0.23116179415E+03 -0.18087865503E+03  0.38902267628E+03  0.48733100207E+03  0.00000000000E+00 0. -1.
         -1    1    3    3    0  502 -0.14760061828E+03 -0.22564876170E+03  0.31469350807E+03  0.41440959230E+03  0.00000000000E+00 0.  1.
         11    1    5    5    0    0 -0.35559563442E+02 -0.23871882181E+02  0.13328855436E+03  0.14000067155E+03  0.00000000000E+00 0. -1.
        -11    1    5    5    0    0  0.35509092853E+02  0.69360097292E+01  0.36077320304E+03  0.36258282907E+03  0.00000000000E+00 0.  1.
          2    1    6    6  503    0  0.17587545962E+03  0.15745964909E+03  0.10392466499E+03  0.25792645149E+03  0.00000000000E+00 0. -1.
         -2    1    6    6    0  503  0.20293742340E+03  0.26600364008E+03  0.25050734259E+03  0.41796586349E+03  0.00000000000E+00 0.  1.
<mgrwt>
<rscale>  0 0.60640133E+03</rscale>
<asrwt>0</asrwt>
<pdfrwt beam="1">  1        1 0.40615883E-01 0.60640133E+03</pdfrwt>
<pdfrwt beam="2">  1       -1 0.27941740E+00 0.60640133E+03</pdfrwt>
<totfact> 0.49586958E+00</totfact>
</mgrwt>
</event>
<event>
12    1  0.1335216E-007  0.1067470E+04  0.7818608E-02  0.9237491E-01
          1   -1    0    0  501    0  0.00000000000E+00  0.00000000000E+00  0.83476687589E+03  0.83476687589E+03  0.00000000000E+00 0. -1.
         -1   -1    0    0    0  501 -0.00000000000E+00 -0.00000000000E+00 -0.15064064594E+04  0.15064064594E+04  0.00000000000E+00 0.  1.
         23    2    1    2    0    0 -0.88090563618E+03 -0.44132332823E+03  0.31940341312E+02  0.98997351640E+03  0.90919513151E+02 0.  0.
    5000000    2    1    2    0    0  0.88090563618E+03  0.44132332823E+03 -0.70357992484E+03  0.13511998189E+04  0.59996268225E+03 0.  0.
         23    2    4    4    0    0  0.36881896094E+03 -0.10703149233E+03 -0.19642978813E+03  0.44093857795E+03  0.91427575504E+02 0.  0.
         23    2    4    4    0    0  0.51208667524E+03  0.54835482056E+03 -0.50715013670E+03  0.91026124096E+03  0.91915686585E+02 0.  0.
          3    1    3    3  502    0 -0.34514138384E+03 -0.12389723477E+03  0.14412793703E+02  0.36698886665E+03  0.00000000000E+00 0. -1.
         -3    1    3    3    0  502 -0.53576425234E+03 -0.31742609347E+03  0.17527547609E+02  0.62298464975E+03  0.00000000000E+00 0.  1.
         13    1    5    5    0    0  0.19345918816E+03 -0.20832815495E+02 -0.13225507089E+03  0.23526977591E+03  0.00000000000E+00 0. -1.
        -13    1    5    5    0    0  0.17535977278E+03 -0.86198676832E+02 -0.64174717246E+02  0.20566880204E+03  0.00000000000E+00 0.  1.
          4    1    6    6  503    0  0.38723002986E+03  0.35485278777E+03 -0.33927471983E+03  0.62527988336E+03  0.00000000000E+00 0. -1.
         -4    1    6    6    0  503  0.12485664537E+03  0.19350203279E+03 -0.16787541687E+03  0.28498135759E+03  0.00000000000E+00 0.  1.
<mgrwt>
<rscale>  0 0.10674700E+04</rscale>
<asrwt>0</asrwt>
<pdfrwt beam="1">  1        1 0.12842567E+00 0.10674700E+04</pdfrwt>
<pdfrwt beam="2">  1       -1 0.23175484E+00 0.10674700E+04</pdfrwt>
<totfact> 0.18919059E+00</totfact>
</mgrwt>
</event>
<event>
12    1  0.1335216E-007  0.5164833E+03  0.7818608E-02  0.1009564E+00
          2   -1    0    0  501    0  0.00000000000E+00  0.00000000000E+00  0.27306815792E+03  0.27306815792E+03  0.00000000000E+00 0. -1.
         -2   -1    0    0    0  501 -0.00000000000E+00 -0.00000000000E+00 -0.16238904642E+04  0.16238904642E+04  0.00000000000E+00 0.  1.
         23    2    1    2    0    0 -0.13857664337E+03 -0.48015161771E+03 -0.77458343628E+03  0.92646393389E+03  0.92773158647E+02 0.  0.
    5000000    2    1    2    0    0  0.13857664337E+03  0.48015161771E+03 -0.57623887001E+03  0.97049468824E+03  0.60004970005E+03 0.  0.
         23    2    4    4    0    0  0.57483407706E+02  0.18093247193E+03 -0.60983899958E+03  0.64556314512E+03  0.93847042390E+02 0.  0.
         23    2    4    4    0    0  0.81093235663E+02  0.29921914578E+03  0.33600129575E+02  0.32493154312E+03  0.91341824688E+02 0.  0.
          4    1    3    3  502    0 -0.32973895605E+02 -0.26023613891E+03 -0.36005734858E+03  0.44547886600E+03  0.00000000000E+00 0. -1.
         -4    1    3    3    0  502 -0.10560274776E+03 -0.21991547880E+03 -0.41452608769E+03  0.48098506788E+03  0.00000000000E+00 0.  1.
         13    1    5    5    0    0  0.55037564725E+02  0.35704614888E+02 -0.21860556311E+03  0.22823747562E+03  0.00000000000E+00 0.  1.
        -13    1    5    5    0    0  0.24458429804E+01  0.14522785704E+03 -0.39123343647E+03  0.41732566950E+03  0.00000000000E+00 0. -1.
          1    1    6    6  503    0  0.29628255937E+02  0.21579026773E+03  0.54881416925E+02  0.22462244572E+03  0.00000000000E+00 0. -1.
         -1    1    6    6    0  503  0.51464979726E+02  0.83428878051E+02 -0.21281287350E+02  0.10030909741E+03  0.00000000000E+00 0.  1.
<mgrwt>
<rscale>  0 0.51648333E+03</rscale>
<asrwt>0</asrwt>
<pdfrwt beam="1">  1        2 0.42010485E-01 0.51648333E+03</pdfrwt>
<pdfrwt beam="2">  1       -2 0.24982931E+00 0.51648333E+03</pdfrwt>
<totfact> 0.83186700E+00</totfact>
</mgrwt>
</event>
<event>
12    1  0.1335216E-007  0.1091880E+04  0.7818608E-02  0.9213143E-01
          2   -1    0    0  501    0  0.00000000000E+00  0.00000000000E+00  0.11082251532E+04  0.11082251532E+04  0.00000000000E+00 0. -1.
         -2   -1    0    0    0  501 -0.00000000000E+00 -0.00000000000E+00 -0.12544082562E+04  0.12544082562E+04  0.00000000000E+00 0.  1.
         23    2    1    2    0    0  0.83816347546E+03 -0.64961743294E+03  0.22754891829E+03  0.10882677553E+04  0.89595626749E+02 0.  0.
    5000000    2    1    2    0    0 -0.83816347546E+03  0.64961743294E+03 -0.37373202129E+03  0.12743656540E+04  0.59984279238E+03 0.  0.
         23    2    4    4    0    0 -0.72217364541E+03  0.38214166080E+03 -0.47757143516E+03  0.95093372512E+03  0.92916364852E+02 0.  0.
         23    2    4    4    0    0 -0.11598983005E+03  0.26747577214E+03  0.10383941387E+03  0.32343192887E+03  0.93960946029E+02 0.  0.
          2    1    3    3  502    0  0.49420921319E+03 -0.36685357084E+03  0.17520103211E+03  0.63993725512E+03  0.00000000000E+00 0. -1.
         -2    1    3    3    0  502  0.34395426226E+03 -0.28276386210E+03  0.52347886187E+02  0.44833050022E+03  0.00000000000E+00 0.  1.
         13    1    5    5    0    0 -0.45569010552E+03  0.24235990453E+03 -0.24904265222E+03  0.57307419958E+03  0.00000000000E+00 0.  1.
        -13    1    5    5    0    0 -0.26648353989E+03  0.13978175627E+03 -0.22852878294E+03  0.37785952555E+03  0.00000000000E+00 0. -1.
          1    1    6    6  503    0 -0.12995377072E+03  0.25858554792E+03  0.10163816206E+03  0.30673243081E+03  0.00000000000E+00 0. -1.
         -1    1    6    6    0  503  0.13963940677E+02  0.88902242187E+01  0.22012518075E+01  0.16699498059E+02  0.00000000000E+00 0.  1.
<mgrwt>
<rscale>  0 0.10918796E+04</rscale>
<asrwt>0</asrwt>
<pdfrwt beam="1">  1        2 0.17049618E+00 0.10918796E+04</pdfrwt>
<pdfrwt beam="2">  1       -2 0.19298589E+00 0.10918796E+04</pdfrwt>
<totfact> 0.31301847E+00</totfact>
</mgrwt>
</event>
<event>
12    1  0.1335216E-007  0.5851661E+03  0.7818608E-02  0.9936669E-01
          2   -1    0    0  501    0  0.00000000000E+00  0.00000000000E+00  0.33143460639E+04  0.33143460639E+04  0.00000000000E+00 0. -1.
         -2   -1    0    0    0  501 -0.00000000000E+00 -0.00000000000E+00 -0.15374760782E+03  0.15374760782E+03  0.00000000000E+00 0.  1.
         23    2    1    2    0    0 -0.52800503080E+03 -0.54415343015E+02  0.18956369520E+04  0.19706790816E+04  0.91576451733E+02 0.  0.
    5000000    2    1    2    0    0  0.52800503080E+03  0.54415343015E+02  0.12649615040E+04  0.14974145901E+04  0.60031034138E+03 0.  0.
         23    2    4    4    0    0  0.15998787819E+03  0.16824595902E+03  0.97469730036E+03  0.10060948534E+04  0.91045059071E+02 0.  0.
         23    2    4    4    0    0  0.36801715261E+03 -0.11383061601E+03  0.29026420363E+03  0.49131973672E+03  0.93529364487E+02 0.  0.
          3    1    3    3  502    0 -0.24154997558E+03 -0.99987312729E+01  0.10220414063E+04  0.10502452102E+04  0.00000000000E+00 0. -1.
         -3    1    3    3    0  502 -0.28645505522E+03 -0.44416611742E+02  0.87359554573E+03  0.92043387138E+03  0.00000000000E+00 0.  1.
         13    1    5    5    0    0  0.27577987150E+01  0.39260452076E+02  0.26237326648E+03  0.26530872491E+03  0.00000000000E+00 0. -1.
        -13    1    5    5    0    0  0.15723007947E+03  0.12898550695E+03  0.71232403388E+03  0.74078612847E+03  0.00000000000E+00 0.  1.
          2    1    6    6  503    0  0.24274441776E+02 -0.36178460828E+02  0.24940410450E+02  0.50201131708E+02  0.00000000000E+00 0. -1.
         -2    1    6    6    0  503  0.34374271084E+03 -0.77652155181E+02  0.26532379318E+03  0.44111860501E+03  0.00000000000E+00 0.  1.
<mgrwt>
<rscale>  0 0.58516610E+03</rscale>
<asrwt>0</asrwt>
<pdfrwt beam="1">  1        2 0.50989934E+00 0.58516610E+03</pdfrwt>
<pdfrwt beam="2">  1       -2 0.23653481E-01 0.58516610E+03</pdfrwt>
<totfact> 0.19078018E+01</totfact>
</mgrwt>
</event>
<event>
12    1  0.1335216E-007  0.1614614E+04  0.7818608E-02  0.8811620E-01
          2   -1    0    0  501    0  0.00000000000E+00  0.00000000000E+00  0.87786347743E+03  0.87786347743E+03  0.00000000000E+00 0.  1.
         -2   -1    0    0    0  501 -0.00000000000E+00 -0.00000000000E+00 -0.30564889570E+04  0.30564889570E+04  0.00000000000E+00 0. -1.
         23    2    1    2    0    0 -0.31493200837E+03  0.15345770584E+04 -0.13161703396E+04  0.20480764075E+04  0.90574224082E+02 0.  0.
    5000000    2    1    2    0    0  0.31493200837E+03 -0.15345770584E+04 -0.86245513995E+03  0.18862760270E+04  0.60008288048E+03 0.  0.
         23    2    4    4    0    0 -0.11805541184E+03 -0.15795736670E+03 -0.32879699220E+02  0.21926487841E+03  0.90046667474E+02 0.  0.
         23    2    4    4    0    0  0.43298742021E+03 -0.13766196917E+04 -0.82957544073E+03  0.16670111485E+04  0.90392897631E+02 0.  0.
          4    1    3    3  502    0 -0.27785538969E+03  0.14523587929E+04 -0.12311944179E+04  0.19241593945E+04  0.00000000000E+00 0. -1.
         -4    1    3    3    0  502 -0.37076618680E+02  0.82218265478E+02 -0.84975921735E+02  0.12391701298E+03  0.00000000000E+00 0.  1.
         11    1    5    5    0    0 -0.84518372024E+02 -0.41065468100E+02 -0.25833951755E+02  0.97453173079E+02  0.00000000000E+00 0.  1.
        -11    1    5    5    0    0 -0.33537039819E+02 -0.11689189860E+03 -0.70457474651E+01  0.12181170533E+03  0.00000000000E+00 0. -1.
          3    1    6    6  503    0  0.15483158713E+03 -0.60646490709E+03 -0.39274686565E+03  0.73893342351E+03  0.00000000000E+00 0. -1.
         -3    1    6    6    0  503  0.27815583308E+03 -0.77015478457E+03 -0.43682857508E+03  0.92807772503E+03  0.00000000000E+00 0.  1.
<mgrwt>
<rscale>  0 0.16146141E+04</rscale>
<asrwt>0</asrwt>
<pdfrwt beam="1">  1        2 0.13505592E+00 0.16146141E+04</pdfrwt>
<pdfrwt beam="2">  1       -2 0.47022907E+00 0.16146141E+04</pdfrwt>
<totfact> 0.72653873E-02</totfact>
</mgrwt>
</event>
<event>
12    1  0.1637411E-007  0.1598702E+04  0.7818608E-02  0.8821346E-01
         -2   -1    0    0    0  501 -0.00000000000E+00  0.00000000000E+00  0.13018024029E+04  0.13018024029E+04  0.00000000000E+00 0.  1.
          2   -1    0    0  501    0  0.00000000000E+00 -0.00000000000E+00 -0.24276534688E+04  0.24276534688E+04  0.00000000000E+00 0. -1.
         23    2    1    2    0    0  0.13761333632E+04  0.70996632796E+03  0.25363627181E+03  0.15705551227E+04  0.67207255054E+02 0.  0.
    5000000    2    1    2    0    0 -0.13761333632E+04 -0.70996632796E+03 -0.13794873377E+04  0.21589007489E+04  0.60005992096E+03 0.  0.
         23    2    4    4    0    0 -0.31019790313E+03  0.64606343390E+02 -0.37468470804E+03  0.49940148533E+03  0.92825074239E+02 0.  0.
         23    2    4    4    0    0 -0.10659354600E+04 -0.77457267135E+03 -0.10048026296E+04  0.16594992636E+04  0.90156824926E+02 0.  0.
          1    1    3    3  502    0  0.73173730967E+03  0.35843159878E+03  0.16276473678E+03  0.83090616853E+03  0.00000000000E+00 0. -1.
         -1    1    3    3    0  502  0.64439605350E+03  0.35153472918E+03  0.90871535027E+02  0.73964895421E+03  0.00000000000E+00 0.  1.
         13    1    5    5    0    0 -0.18098615572E+03 -0.50436593003E+01 -0.17721699313E+03  0.25335210620E+03  0.00000000000E+00 0.  1.
        -13    1    5    5    0    0 -0.12921174741E+03  0.69650002690E+02 -0.19746771490E+03  0.24604937913E+03  0.00000000000E+00 0. -1.
          1    1    6    6  503    0 -0.56642617915E+03 -0.46681867812E+03 -0.55423176736E+03  0.91974515308E+03  0.00000000000E+00 0. -1.
         -1    1    6    6    0  503 -0.49950928089E+03 -0.30775399322E+03 -0.45057086228E+03  0.73975411049E+03  0.00000000000E+00 0.  1.
<mgrwt>
<rscale>  0 0.15987023E+04</rscale>
<asrwt>0</asrwt>
<pdfrwt beam="1">  1        2 0.37348514E+00 0.15987023E+04</pdfrwt>
<pdfrwt beam="2">  1       -2 0.20027729E+00 0.15987023E+04</pdfrwt>
<totfact> 0.47191731E-01</totfact>
</mgrwt>
</event>
<event>
12    1  0.1335216E-007  0.4857620E+03  0.7818608E-02  0.1017564E+00
         -2   -1    0    0    0  501 -0.00000000000E+00  0.00000000000E+00  0.25302170419E+03  0.25302170419E+03  0.00000000000E+00 0. -1.
          2   -1    0    0  501    0  0.00000000000E+00 -0.00000000000E+00 -0.24911119215E+04  0.24911119215E+04  0.00000000000E+00 0.  1.
         23    2    1    2    0    0  0.29419056380E+03  0.84415226694E+02 -0.20076779194E+04  0.20323518088E+04  0.77519212490E+02 0.  0.
    5000000    2    1    2    0    0 -0.29419056380E+03 -0.84415226694E+02 -0.23041229799E+03  0.71178181697E+03  0.59989124813E+03 0.  0.
         23    2    4    4    0    0 -0.21426706264E+03 -0.32633466473E+03 -0.11091745769E+03  0.41661063647E+03  0.94111914543E+02 0.  0.
         23    2    4    4    0    0 -0.79923501159E+02  0.24191943804E+03 -0.11949484030E+03  0.29517118050E+03  0.89074285874E+02 0.  0.
          1    1    3    3  502    0  0.24940959184E+03  0.58874723974E+02 -0.14663220083E+04  0.14885468114E+04  0.00000000000E+00 0. -1.
         -1    1    3    3    0  502  0.44780971962E+02  0.25540502720E+02 -0.54135591108E+03  0.54380499740E+03  0.00000000000E+00 0.  1.
         13    1    5    5    0    0 -0.73841666759E+02 -0.16514612192E+03 -0.12695309006E+02  0.18134774387E+03  0.00000000000E+00 0.  1.
        -13    1    5    5    0    0 -0.14042539589E+03 -0.16118854281E+03 -0.98222148681E+02  0.23526289260E+03  0.00000000000E+00 0. -1.
          2    1    6    6  503    0 -0.67826593636E+02  0.72894858525E+02 -0.32855345960E+02  0.10485027879E+03  0.00000000000E+00 0. -1.
         -2    1    6    6    0  503 -0.12096907524E+02  0.16902457951E+03 -0.86639494338E+02  0.19032090172E+03  0.00000000000E+00 0.  1.
<mgrwt>
<rscale>  0 0.48576203E+03</rscale>
<asrwt>0</asrwt>
<pdfrwt beam="1">  1        2 0.38324798E+00 0.48576203E+03</pdfrwt>
<pdfrwt beam="2">  1       -2 0.38926416E-01 0.48576203E+03</pdfrwt>
<totfact> 0.24113306E+01</totfact>
</mgrwt>
</event>
<event>
12    1  0.1335216E-007  0.5987708E+03  0.7818608E-02  0.9907960E-01
          2   -1    0    0  501    0  0.00000000000E+00  0.00000000000E+00  0.39557692234E+03  0.39557692234E+03  0.00000000000E+00 0. -1.
         -2   -1    0    0    0  501 -0.00000000000E+00 -0.00000000000E+00 -0.14717909100E+04  0.14717909100E+04  0.00000000000E+00 0.  1.
         23    2    1    2    0    0 -0.34426046723E+03 -0.43056310652E+03 -0.85791644745E+03  0.10237674597E+04  0.90439607977E+02 0.  0.
    5000000    2    1    2    0    0  0.34426046723E+03  0.43056310652E+03 -0.21829754018E+03  0.84360037264E+03  0.60008992216E+03 0.  0.
         23    2    4    4    0    0  0.98828732853E+02 -0.35121280642E+02 -0.27298513908E+03  0.30648875208E+03  0.91727020005E+02 0.  0.
         23    2    4    4    0    0  0.24543173438E+03  0.46568438716E+03  0.54687598895E+02  0.53711162056E+03  0.91648648581E+02 0.  0.
          4    1    3    3  502    0 -0.15745404415E+03 -0.20105516121E+03 -0.48074631600E+03  0.54436382523E+03  0.00000000000E+00 0. -1.
         -4    1    3    3    0  502 -0.18680642308E+03 -0.22950794530E+03 -0.37717013145E+03  0.47940363444E+03  0.00000000000E+00 0.  1.
         11    1    5    5    0    0  0.39757096552E+02 -0.44544148968E+02 -0.21515908115E+03  0.22328958358E+03  0.00000000000E+00 0. -1.
        -11    1    5    5    0    0  0.59071636301E+02  0.94228683254E+01 -0.57826057928E+02  0.83199168495E+02  0.00000000000E+00 0.  1.
          1    1    6    6  503    0  0.41971321178E+02  0.65664053032E+02  0.41124280278E+02  0.88116775306E+02  0.00000000000E+00 0. -1.
         -1    1    6    6    0  503  0.20346041320E+03  0.40002033413E+03  0.13563318617E+02  0.44899484526E+03  0.00000000000E+00 0.  1.
<mgrwt>
<rscale>  0 0.59877078E+03</rscale>
<asrwt>0</asrwt>
<pdfrwt beam="1">  1        2 0.60857988E-01 0.59877078E+03</pdfrwt>
<pdfrwt beam="2">  1       -2 0.22642937E+00 0.59877078E+03</pdfrwt>
<totfact> 0.75606036E+00</totfact>
</mgrwt>
</event>
<event>
12    1  0.1335216E-007  0.8629423E+03  0.7818608E-02  0.9473129E-01
          1   -1    0    0  501    0  0.00000000000E+00  0.00000000000E+00  0.24565333163E+04  0.24565333163E+04  0.00000000000E+00 0. -1.
         -1   -1    0    0    0  501 -0.00000000000E+00 -0.00000000000E+00 -0.45216416985E+03  0.45216416985E+03  0.00000000000E+00 0.  1.
         23    2    1    2    0    0  0.78198541446E+03  0.67828275465E+02  0.14446725997E+03  0.80267874269E+03  0.85559987009E+02 0.  0.
    5000000    2    1    2    0    0 -0.78198541446E+03 -0.67828275465E+02  0.18599018865E+04  0.21060187435E+04  0.59998171393E+03 0.  0.
         23    2    4    4    0    0 -0.66241252808E+03 -0.24771982272E+03  0.10977551360E+04  0.13088649034E+04  0.88913039720E+02 0.  0.
         23    2    4    4    0    0 -0.11957288639E+03  0.17989154725E+03  0.76214675046E+03  0.79715384011E+03  0.89038933198E+02 0.  0.
          1    1    3    3  502    0  0.51806176604E+03  0.85400634801E+02  0.94217581703E+02  0.53343998215E+03  0.00000000000E+00 0. -1.
         -1    1    3    3    0  502  0.26392364843E+03 -0.17572359336E+02  0.50249678263E+02  0.26923876054E+03  0.00000000000E+00 0.  1.
         13    1    5    5    0    0 -0.14704038750E+03 -0.36659688517E+02  0.17939223745E+03  0.23483267059E+03  0.00000000000E+00 0.  1.
        -13    1    5    5    0    0 -0.51537214057E+03 -0.21106013420E+03  0.91836289858E+03  0.10740322328E+04  0.00000000000E+00 0. -1.
          1    1    6    6  503    0 -0.54099023974E+02  0.24783878828E+02  0.28581698708E+03  0.29194570582E+03  0.00000000000E+00 0. -1.
         -1    1    6    6    0  503 -0.65473862414E+02  0.15510766842E+03  0.47632976338E+03  0.50520813429E+03  0.00000000000E+00 0.  1.
<mgrwt>
<rscale>  0 0.86294234E+03</rscale>
<asrwt>0</asrwt>
<pdfrwt beam="1">  1        1 0.37792819E+00 0.86294234E+03</pdfrwt>
<pdfrwt beam="2">  1       -1 0.69563720E-01 0.86294234E+03</pdfrwt>
<totfact> 0.31546630E+00</totfact>
</mgrwt>
</event>
<event>
12    1  0.1335216E-007  0.1839520E+04  0.7818608E-02  0.8685561E-01
         -1   -1    0    0    0  501 -0.00000000000E+00  0.00000000000E+00  0.20628107846E+04  0.20628107846E+04  0.00000000000E+00 0.  1.
          1   -1    0    0  501    0  0.00000000000E+00 -0.00000000000E+00 -0.18925249793E+04  0.18925249793E+04  0.00000000000E+00 0. -1.
         23    2    1    2    0    0 -0.13605408822E+04  0.12320683766E+04 -0.51106989784E+03  0.19075642331E+04  0.92438553852E+02 0.  0.
    5000000    2    1    2    0    0  0.13605408822E+04 -0.12320683766E+04  0.68135570321E+03  0.20477715308E+04  0.60004889076E+03 0.  0.
         23    2    4    4    0    0  0.50633089466E+03 -0.46680783105E+03  0.55804442100E+03  0.89095027004E+03  0.89990454318E+02 0.  0.
         23    2    4    4    0    0  0.85420998752E+03 -0.76526054557E+03  0.12331128221E+03  0.11568212608E+04  0.87928104853E+02 0.  0.
          4    1    3    3  502    0 -0.57730286608E+03  0.48134558619E+03 -0.24399827674E+03  0.79025776274E+03  0.00000000000E+00 0. -1.
         -4    1    3    3    0  502 -0.78323801610E+03  0.75072279043E+03 -0.26707162110E+03  0.11173064704E+04  0.00000000000E+00 0.  1.
         13    1    5    5    0    0  0.29953167626E+03 -0.32478583597E+03  0.32434060355E+03  0.54808930973E+03  0.00000000000E+00 0. -1.
        -13    1    5    5    0    0  0.20679921840E+03 -0.14202199508E+03  0.23370381745E+03  0.34286096031E+03  0.00000000000E+00 0.  1.
          1    1    6    6  503    0  0.83075795434E+03 -0.72235344806E+03  0.12452751668E+03  0.11079081122E+04  0.00000000000E+00 0. -1.
         -1    1    6    6    0  503  0.23452033183E+02 -0.42907097512E+02 -0.12162344709E+01  0.48913148576E+02  0.00000000000E+00 0.  1.
<mgrwt>
<rscale>  0 0.18395203E+04</rscale>
<asrwt>0</asrwt>
<pdfrwt beam="1">  1        1 0.29115769E+00 0.18395203E+04</pdfrwt>
<pdfrwt beam="2">  1       -1 0.31735551E+00 0.18395203E+04</pdfrwt>
<totfact> 0.81421725E-02</totfact>
</mgrwt>
</event>
<event>
12    1  0.1335216E-007  0.1030923E+04  0.7818608E-02  0.9275264E-01
          3   -1    0    0  501    0  0.00000000000E+00  0.00000000000E+00  0.24571235511E+04  0.24571235511E+04  0.00000000000E+00 0. -1.
         -3   -1    0    0    0  501 -0.00000000000E+00 -0.00000000000E+00 -0.56496428322E+03  0.56496428322E+03  0.00000000000E+00 0.  1.
         23    2    1    2    0    0  0.46016539355E+03  0.90278463324E+03  0.14345623609E+04  0.17587025315E+04  0.91066699276E+02 0.  0.
    5000000    2    1    2    0    0 -0.46016539355E+03 -0.90278463324E+03  0.45759690694E+03  0.12633853027E+04  0.59997934173E+03 0.  0.
         23    2    4    4    0    0 -0.63133410950E+02 -0.36511352416E+03 -0.91657264256E+02  0.39331805187E+03  0.94891109887E+02 0.  0.
         23    2    4    4    0    0 -0.39703198260E+03 -0.53767110908E+03  0.54925417119E+03  0.87006725087E+03  0.92802261350E+02 0.  0.
          1    1    3    3  502    0  0.27036052790E+03  0.61913989333E+03  0.92697200918E+03  0.11470423394E+04  0.00000000000E+00 0. -1.
         -1    1    3    3    0  502  0.18980486565E+03  0.28364473990E+03  0.50759035171E+03  0.61166019214E+03  0.00000000000E+00 0.  1.
         13    1    5    5    0    0 -0.74948022169E+02 -0.33809840862E+03 -0.62595110551E+02  0.35191744458E+03  0.00000000000E+00 0.  1.
        -13    1    5    5    0    0  0.11814611220E+02 -0.27015115544E+02 -0.29062153706E+02  0.41400607292E+02  0.00000000000E+00 0. -1.
          4    1    6    6  503    0 -0.59460647565E+02 -0.10136868968E+03  0.14230588582E+03  0.18455932650E+03  0.00000000000E+00 0. -1.
         -4    1    6    6    0  503 -0.33757133503E+03 -0.43630241940E+03  0.40694828537E+03  0.68550792437E+03  0.00000000000E+00 0.  1.
<mgrwt>
<rscale>  0 0.10309233E+04</rscale>
<asrwt>0</asrwt>
<pdfrwt beam="1">  1        3 0.37801900E+00 0.10309233E+04</pdfrwt>
<pdfrwt beam="2">  1       -3 0.86917583E-01 0.10309233E+04</pdfrwt>
<totfact> 0.45320103E-02</totfact>
</mgrwt>
</event>
<event>
12    1  0.1335216E-007  0.7577564E+03  0.7818608E-02  0.9623260E-01
         -1   -1    0    0    0  501 -0.00000000000E+00  0.00000000000E+00  0.59695519085E+03  0.59695519085E+03  0.00000000000E+00 0.  1.
          1   -1    0    0  501    0  0.00000000000E+00 -0.00000000000E+00 -0.15139693423E+04  0.15139693423E+04  0.00000000000E+00 0. -1.
         23    2    1    2    0    0  0.63054986697E+03  0.18209106292E+03  0.19190772618E+03  0.68950698090E+03  0.88549485666E+02 0.  0.
    5000000    2    1    2    0    0 -0.63054986697E+03 -0.18209106292E+03 -0.11089218776E+04  0.14214175522E+04  0.59997486382E+03 0.  0.
         23    2    4    4    0    0  0.74336464529E+02  0.25365224418E+02 -0.49479104446E+02  0.12890541599E+03  0.89437799208E+02 0.  0.
         23    2    4    4    0    0 -0.70488633150E+03 -0.20745628733E+03 -0.10594427732E+04  0.12925121363E+04  0.90916341884E+02 0.  0.
          2    1    3    3  502    0  0.16498135340E+03  0.18138920651E+02  0.21684554159E+02  0.16738604273E+03  0.00000000000E+00 0. -1.
         -2    1    3    3    0  502  0.46556851357E+03  0.16395214226E+03  0.17022317202E+03  0.52212093817E+03  0.00000000000E+00 0.  1.
         13    1    5    5    0    0 -0.12554581130E+02  0.26214054969E+02 -0.31691585655E+00  0.29067071076E+02  0.00000000000E+00 0. -1.
        -13    1    5    5    0    0  0.86891045659E+02 -0.84883055080E+00 -0.49162188589E+02  0.99838344917E+02  0.00000000000E+00 0.  1.
          3    1    6    6  503    0 -0.41786233172E+02  0.84242927742E+01 -0.71461010429E+02  0.83208977898E+02  0.00000000000E+00 0. -1.
         -3    1    6    6    0  503 -0.66310009833E+03 -0.21588058011E+03 -0.98798176275E+03  0.12093031584E+04  0.00000000000E+00 0.  1.
<mgrwt>
<rscale>  0 0.75775643E+03</rscale>
<asrwt>0</asrwt>
<pdfrwt beam="1">  1        1 0.23291836E+00 0.75775643E+03</pdfrwt>
<pdfrwt beam="2">  1       -1 0.91839261E-01 0.75775643E+03</pdfrwt>
<totfact> 0.76748367E+00</totfact>
</mgrwt>
</event>
<event>
12    1  0.1335216E-007  0.1085353E+04  0.7818608E-02  0.9219587E-01
          2   -1    0    0  501    0  0.00000000000E+00  0.00000000000E+00  0.94682846794E+03  0.94682846794E+03  0.00000000000E+00 0. -1.
         -2   -1    0    0    0  501 -0.00000000000E+00 -0.00000000000E+00 -0.15541995257E+04  0.15541995257E+04  0.00000000000E+00 0.  1.
         23    2    1    2    0    0  0.77613760348E+03  0.73513344647E+03  0.11506606711E+03  0.10782604192E+04  0.81206946256E+02 0.  0.
    5000000    2    1    2    0    0 -0.77613760348E+03 -0.73513344647E+03 -0.72243712483E+03  0.14227675744E+04  0.59961771803E+03 0.  0.
         23    2    4    4    0    0 -0.70482594074E+03 -0.65346179260E+03 -0.80654978046E+03  0.12580100841E+04  0.90966489038E+02 0.  0.
         23    2    4    4    0    0 -0.71311662745E+02 -0.81671653877E+02  0.84112655637E+02  0.16475749034E+03  0.91183767704E+02 0.  0.
          3    1    3    3  502    0  0.42847709921E+03  0.37480147944E+03  0.95074427269E+02  0.57715502273E+03  0.00000000000E+00 0. -1.
         -3    1    3    3    0  502  0.34766050427E+03  0.36033196704E+03  0.19991639840E+02  0.50110539646E+03  0.00000000000E+00 0.  1.
         13    1    5    5    0    0 -0.45846087449E+03 -0.40057555790E+03 -0.45756961113E+03  0.76158853724E+03  0.00000000000E+00 0. -1.
        -13    1    5    5    0    0 -0.24636506624E+03 -0.25288623470E+03 -0.34898016933E+03  0.49642154683E+03  0.00000000000E+00 0.  1.
          2    1    6    6  503    0 -0.91513217808E+02 -0.61105660425E+02  0.79046130076E+02  0.13548749555E+03  0.00000000000E+00 0. -1.
         -2    1    6    6    0  503  0.20201555063E+02 -0.20565993452E+02  0.50665255610E+01  0.29269994788E+02  0.00000000000E+00 0.  1.
<mgrwt>
<rscale>  0 0.10853530E+04</rscale>
<asrwt>0</asrwt>
<pdfrwt beam="1">  1        2 0.14566592E+00 0.10853530E+04</pdfrwt>
<pdfrwt beam="2">  1       -2 0.23910762E+00 0.10853530E+04</pdfrwt>
<totfact> 0.20179450E+00</totfact>
</mgrwt>
</event>
<event>
12    1  0.1335216E-007  0.7420190E+03  0.7818608E-02  0.9647955E-01
          2   -1    0    0  501    0  0.00000000000E+00  0.00000000000E+00  0.27032261592E+04  0.27032261592E+04  0.00000000000E+00 0. -1.
         -2   -1    0    0    0  501 -0.00000000000E+00 -0.00000000000E+00 -0.26873299395E+03  0.26873299395E+03  0.00000000000E+00 0.  1.
         23    2    1    2    0    0  0.69412032680E+03 -0.19990086300E+03  0.13780766480E+04  0.15585676292E+04  0.90963859776E+02 0.  0.
    5000000    2    1    2    0    0 -0.69412032680E+03  0.19990086300E+03  0.10564165173E+04  0.14133915240E+04  0.59991362634E+03 0.  0.
         23    2    4    4    0    0 -0.31941590598E+03  0.19977606384E+03  0.93025668675E+03  0.10079390528E+04  0.92879675683E+02 0.  0.
         23    2    4    4    0    0 -0.37470442082E+03  0.12479915714E+00  0.12615983054E+03  0.40545247127E+03  0.89844226597E+02 0.  0.
          3    1    3    3  502    0  0.77942988700E+02  0.19331561089E+01  0.18327722162E+03  0.19917175137E+03  0.00000000000E+00 0. -1.
         -3    1    3    3    0  502  0.61617733810E+03 -0.20183401911E+03  0.11947994264E+04  0.13593958778E+04  0.00000000000E+00 0.  1.
         13    1    5    5    0    0 -0.23734502348E+03  0.11636523127E+03  0.72477323091E+03  0.77147246448E+03  0.00000000000E+00 0. -1.
        -13    1    5    5    0    0 -0.82070882503E+02  0.83410832570E+02  0.20548345585E+03  0.23646658828E+03  0.00000000000E+00 0.  1.
          2    1    6    6  503    0 -0.35020113533E+03 -0.86262842172E+01  0.13845290962E+03  0.37667553166E+03  0.00000000000E+00 0. -1.
         -2    1    6    6    0  503 -0.24503285493E+02  0.87510833744E+01 -0.12293079075E+02  0.28776939610E+02  0.00000000000E+00 0.  1.
<mgrwt>
<rscale>  0 0.74201897E+03</rscale>
<asrwt>0</asrwt>
<pdfrwt beam="1">  1        2 0.41588093E+00 0.74201897E+03</pdfrwt>
<pdfrwt beam="2">  1       -2 0.41343539E-01 0.74201897E+03</pdfrwt>
<totfact> 0.15440080E+01</totfact>
</mgrwt>
</event>
<event>
12    1  0.1335216E-007  0.9275966E+03  0.7818608E-02  0.9391727E-01
          3   -1    0    0  501    0  0.00000000000E+00  0.00000000000E+00  0.16533976224E+04  0.16533976224E+04  0.00000000000E+00 0. -1.
         -3   -1    0    0    0  501 -0.00000000000E+00 -0.00000000000E+00 -0.59496636601E+03  0.59496636601E+03  0.00000000000E+00 0.  1.
         23    2    1    2    0    0  0.34685083856E+02  0.86843494418E+03  0.74027831510E+03  0.11453298572E+04  0.91576146210E+02 0.  0.
    5000000    2    1    2    0    0 -0.34685083856E+02 -0.86843494418E+03  0.31815294132E+03  0.11030341313E+04  0.60006724072E+03 0.  0.
         23    2    4    4    0    0 -0.16348815344E+03 -0.80054551973E+03  0.39855192941E+03  0.91365393834E+03  0.91205115711E+02 0.  0.
         23    2    4    4    0    0  0.12880306959E+03 -0.67889424453E+02 -0.80398988088E+02  0.18938019294E+03  0.90562991925E+02 0.  0.
          2    1    3    3  502    0  0.48568977533E+02  0.21877309181E+03  0.18578720083E+03  0.29109705472E+03  0.00000000000E+00 0. -1.
         -2    1    3    3    0  502 -0.13883893678E+02  0.64966185238E+03  0.55449111427E+03  0.85423280243E+03  0.00000000000E+00 0.  1.
         11    1    5    5    0    0 -0.47144781370E+02 -0.32924914167E+03  0.11768673028E+03  0.35281410712E+03  0.00000000000E+00 0. -1.
        -11    1    5    5    0    0 -0.11634337207E+03 -0.47129637806E+03  0.28086519913E+03  0.56083983122E+03  0.00000000000E+00 0.  1.
          4    1    6    6  503    0  0.73038053724E+02 -0.77668532466E+02 -0.79090891575E+02  0.13274911434E+03  0.00000000000E+00 0. -1.
         -4    1    6    6    0  503  0.55765015863E+02  0.97791080124E+01 -0.13080965129E+01  0.56631078607E+02  0.00000000000E+00 0.  1.
<mgrwt>
<rscale>  0 0.92759658E+03</rscale>
<asrwt>0</asrwt>
<pdfrwt beam="1">  1        3 0.25436886E+00 0.92759658E+03</pdfrwt>
<pdfrwt beam="2">  1       -3 0.91533288E-01 0.92759658E+03</pdfrwt>
<totfact> 0.19271609E-01</totfact>
</mgrwt>
</event>
<event>
12    1  0.1335216E-007  0.1174053E+04  0.7818608E-02  0.9135876E-01
          1   -1    0    0  501    0  0.00000000000E+00  0.00000000000E+00  0.16359404884E+04  0.16359404884E+04  0.00000000000E+00 0. -1.
         -1   -1    0    0    0  501 -0.00000000000E+00 -0.00000000000E+00 -0.93582473731E+03  0.93582473731E+03  0.00000000000E+00 0.  1.
         23    2    1    2    0    0 -0.98799771133E+03  0.49558527103E+03 -0.48846547080E+02  0.11079513931E+04  0.58532604211E+02 0.  0.
    5000000    2    1    2    0    0  0.98799771133E+03 -0.49558527103E+03  0.74896229817E+03  0.14638138327E+04  0.60005180957E+03 0.  0.
         23    2    4    4    0    0  0.56704205709E+03  0.28360134022E+02  0.28172542832E+03  0.64021671045E+03  0.90372715227E+02 0.  0.
         23    2    4    4    0    0  0.42095565423E+03 -0.52394540505E+03  0.46723686985E+03  0.82359712222E+03  0.90991630792E+02 0.  0.
          1    1    3    3  502    0 -0.13341246833E+03  0.45552758396E+02 -0.10070837456E+02  0.14133422187E+03  0.00000000000E+00 0. -1.
         -1    1    3    3    0  502 -0.85458524300E+03  0.45003251263E+03 -0.38775709625E+02  0.96661717119E+03  0.00000000000E+00 0.  1.
         13    1    5    5    0    0  0.41595839348E+03  0.31081098368E+02  0.24839410451E+03  0.48547610748E+03  0.00000000000E+00 0.  1.
        -13    1    5    5    0    0  0.15108366362E+03 -0.27209643465E+01  0.33331323808E+02  0.15474060296E+03  0.00000000000E+00 0. -1.
          3    1    6    6  503    0  0.22084016440E+03 -0.24614884152E+03  0.17889218176E+03  0.37598143982E+03  0.00000000000E+00 0. -1.
         -3    1    6    6    0  503  0.20011548984E+03 -0.27779656353E+03  0.28834468808E+03  0.44761568239E+03  0.00000000000E+00 0.  1.
<mgrwt>
<rscale>  0 0.11740529E+04</rscale>
<asrwt>0</asrwt>
<pdfrwt beam="1">  1        1 0.25168315E+00 0.11740529E+04</pdfrwt>
<pdfrwt beam="2">  1       -1 0.14397304E+00 0.11740529E+04</pdfrwt>
<totfact> 0.20210205E+00</totfact>
</mgrwt>
</event>
<event>
12    1  0.1335216E-007  0.1112640E+04  0.7818608E-02  0.9192959E-01
         -2   -1    0    0    0  501 -0.00000000000E+00  0.00000000000E+00  0.84919359349E+03  0.84919359349E+03  0.00000000000E+00 0.  1.
          2   -1    0    0  501    0  0.00000000000E+00 -0.00000000000E+00 -0.17101142783E+04  0.17101142783E+04  0.00000000000E+00 0. -1.
         23    2    1    2    0    0  0.10475202468E+04  0.32518496312E+03 -0.68640568415E+03  0.12969946491E+04  0.89433936458E+02 0.  0.
    5000000    2    1    2    0    0 -0.10475202468E+04 -0.32518496312E+03 -0.17451500065E+03  0.12623132226E+04  0.59994604673E+03 0.  0.
         23    2    4    4    0    0 -0.37190229776E+03 -0.14998420932E+02  0.19371868222E+03  0.42761190372E+03  0.82393814415E+02 0.  0.
         23    2    4    4    0    0 -0.67561794901E+03 -0.31018654219E+03 -0.36823368287E+03  0.83470131893E+03  0.91950761983E+02 0.  0.
          2    1    3    3  502    0  0.39255302797E+03  0.14949965739E+03 -0.30359092016E+03  0.51828126932E+03  0.00000000000E+00 0. -1.
         -2    1    3    3    0  502  0.65496721880E+03  0.17568530574E+03 -0.38281476399E+03  0.77871337980E+03  0.00000000000E+00 0.  1.
         11    1    5    5    0    0 -0.24472012111E+03  0.24204109118E+02  0.14733881902E+03  0.28667491025E+03  0.00000000000E+00 0.  1.
        -11    1    5    5    0    0 -0.12718217664E+03 -0.39202530050E+02  0.46379863203E+02  0.14093699347E+03  0.00000000000E+00 0. -1.
          1    1    6    6  503    0 -0.35611675483E+03 -0.20921070010E+03 -0.18196857955E+03  0.45133227677E+03  0.00000000000E+00 0. -1.
         -1    1    6    6    0  503 -0.31950119418E+03 -0.10097584209E+03 -0.18626510332E+03  0.38336904216E+03  0.00000000000E+00 0.  1.
<mgrwt>
<rscale>  0 0.11126400E+04</rscale>
<asrwt>0</asrwt>
<pdfrwt beam="1">  1        2 0.26309450E+00 0.11126400E+04</pdfrwt>
<pdfrwt beam="2">  1       -2 0.13064517E+00 0.11126400E+04</pdfrwt>
<totfact> 0.40798511E+00</totfact>
</mgrwt>
</event>
<event>
12    1  0.1335216E-007  0.3394465E+03  0.7818608E-02  0.1067032E+00
         -1   -1    0    0    0  501 -0.00000000000E+00  0.00000000000E+00  0.28552655247E+03  0.28552655247E+03  0.00000000000E+00 0.  1.
          1   -1    0    0  501    0  0.00000000000E+00 -0.00000000000E+00 -0.98982024326E+03  0.98982024326E+03  0.00000000000E+00 0. -1.
         23    2    1    2    0    0 -0.21300012422E+03 -0.23100785149E+03 -0.44044965013E+03  0.54848068095E+03  0.90008236919E+02 0.  0.
    5000000    2    1    2    0    0  0.21300012422E+03  0.23100785149E+03 -0.26384404066E+03  0.72686611479E+03  0.59998915879E+03 0.  0.
         23    2    4    4    0    0  0.68650603444E+02  0.49558516263E+01 -0.39643422931E+03  0.41281826835E+03  0.92311205689E+02 0.  0.
         23    2    4    4    0    0  0.14434952077E+03  0.22605199986E+03  0.13259018865E+03  0.31404784643E+03  0.95444229434E+02 0.  0.
          1    1    3    3  502    0 -0.57854859638E+02 -0.15015935828E+02 -0.99622216234E+02  0.11617766171E+03  0.00000000000E+00 0. -1.
         -1    1    3    3    0  502 -0.15514526458E+03 -0.21599191566E+03 -0.34082743389E+03  0.43230301924E+03  0.00000000000E+00 0.  1.
         13    1    5    5    0    0 -0.64158199176E+01  0.45743420388E+01 -0.23116875372E+03  0.23130300484E+03  0.00000000000E+00 0.  1.
        -13    1    5    5    0    0  0.75066423362E+02  0.38150958750E+00 -0.16526547559E+03  0.18151526352E+03  0.00000000000E+00 0. -1.
          3    1    6    6  503    0  0.11338628239E+03  0.19939836848E+03  0.70962551791E+02  0.24010798017E+03  0.00000000000E+00 0. -1.
         -3    1    6    6    0  503  0.30963238384E+02  0.26653631383E+02  0.61627636862E+02  0.73939866258E+02  0.00000000000E+00 0.  1.
<mgrwt>
<rscale>  0 0.33944653E+03</rscale>
<asrwt>0</asrwt>
<pdfrwt beam="1">  1        1 0.15228004E+00 0.33944653E+03</pdfrwt>
<pdfrwt beam="2">  1       -1 0.43927161E-01 0.33944653E+03</pdfrwt>
<totfact> 0.84807751E+01</totfact>
</mgrwt>
</event>
<event>
12    1  0.1335216E-007  0.1020731E+04  0.7818608E-02  0.9286095E-01
          2   -1    0    0  501    0  0.00000000000E+00  0.00000000000E+00  0.22272507865E+04  0.22272507865E+04  0.00000000000E+00 0.  1.
         -2   -1    0    0    0  501 -0.00000000000E+00 -0.00000000000E+00 -0.73249856969E+03  0.73249856969E+03  0.00000000000E+00 0. -1.
         23    2    1    2    0    0  0.81078551915E+03  0.60676719126E+03 -0.49285077048E+02  0.10181686819E+04  0.93267697652E+02 0.  0.
    5000000    2    1    2    0    0 -0.81078551915E+03 -0.60676719126E+03  0.15440372938E+04  0.19415806743E+04  0.60012062763E+03 0.  0.
         23    2    4    4    0    0 -0.50759982993E+03 -0.36238500662E+03  0.13644645945E+04  0.15032517179E+04  0.94982193431E+02 0.  0.
         23    2    4    4    0    0 -0.30318568922E+03 -0.24438218464E+03  0.17957269929E+03  0.43832895648E+03  0.90783839093E+02 0.  0.
          4    1    3    3  502    0  0.70597873949E+03  0.49139063919E+03 -0.25861221599E+02  0.86054607295E+03  0.00000000000E+00 0. -1.
         -4    1    3    3    0  502  0.10480677966E+03  0.11537655207E+03 -0.23423855449E+02  0.15762260890E+03  0.00000000000E+00 0.  1.
         13    1    5    5    0    0 -0.40212967390E+03 -0.23628296803E+03  0.10185986742E+04  0.11203040546E+04  0.00000000000E+00 0.  1.
        -13    1    5    5    0    0 -0.10547015603E+03 -0.12610203858E+03  0.34586592036E+03  0.38294766328E+03  0.00000000000E+00 0. -1.
          1    1    6    6  503    0 -0.99860425626E+02 -0.12063841124E+03  0.10633587444E+03  0.18929619400E+03  0.00000000000E+00 0. -1.
         -1    1    6    6    0  503 -0.20332526359E+03 -0.12374377341E+03  0.73236824848E+02  0.24903276247E+03  0.00000000000E+00 0.  1.
<mgrwt>
<rscale>  0 0.10207308E+04</rscale>
<asrwt>0</asrwt>
<pdfrwt beam="1">  1        2 0.34265397E+00 0.10207308E+04</pdfrwt>
<pdfrwt beam="2">  1       -2 0.11269209E+00 0.10207308E+04</pdfrwt>
<totfact> 0.30883500E+00</totfact>
</mgrwt>
</event>
<event>
12    1  0.1335216E-007  0.1237303E+04  0.7818608E-02  0.9080818E-01
          1   -1    0    0  501    0  0.00000000000E+00  0.00000000000E+00  0.42614419650E+04  0.42614419650E+04  0.00000000000E+00 0. -1.
         -1   -1    0    0    0  501 -0.00000000000E+00 -0.00000000000E+00 -0.46795703647E+03  0.46795703647E+03  0.00000000000E+00 0.  1.
         23    2    1    2    0    0 -0.58599721254E+02 -0.11954165403E+04  0.28474635315E+04  0.30900271722E+04  0.88117704196E+02 0.  0.
    5000000    2    1    2    0    0  0.58599721254E+02  0.11954165403E+04  0.94602139705E+03  0.16393718293E+04  0.60010738945E+03 0.  0.
         23    2    4    4    0    0  0.16243442475E+03  0.11067583970E+04  0.64177838724E+03  0.12931908843E+04  0.95729166513E+02 0.  0.
         23    2    4    4    0    0 -0.10383470350E+03  0.88658143261E+02  0.30424300981E+03  0.34618094494E+03  0.92927528762E+02 0.  0.
          4    1    3    3  502    0 -0.61657640985E+01 -0.24352201589E+03  0.67420803555E+03  0.71686641996E+03  0.00000000000E+00 0. -1.
         -4    1    3    3    0  502 -0.52433957156E+02 -0.95189452437E+03  0.21732554959E+04  0.23731607522E+04  0.00000000000E+00 0.  1.
         11    1    5    5    0    0  0.96275864380E+02  0.67615031042E+03  0.33764551547E+03  0.76187451622E+03  0.00000000000E+00 0. -1.
        -11    1    5    5    0    0  0.66158560373E+02  0.43060808658E+03  0.30413287177E+03  0.53131636812E+03  0.00000000000E+00 0.  1.
          3    1    6    6  503    0 -0.80647853985E+02  0.15280163751E+02  0.20333694752E+03  0.21927944269E+03  0.00000000000E+00 0. -1.
         -3    1    6    6    0  503 -0.23186849514E+02  0.73377979510E+02  0.10090606229E+03  0.12690150225E+03  0.00000000000E+00 0.  1.
<mgrwt>
<rscale>  0 0.12373027E+04</rscale>
<asrwt>0</asrwt>
<pdfrwt beam="1">  1        1 0.65560643E+00 0.12373027E+04</pdfrwt>
<pdfrwt beam="2">  1       -1 0.71993393E-01 0.12373027E+04</pdfrwt>
<totfact> 0.10976531E-01</totfact>
</mgrwt>
</event>
<event>
12    1  0.1335216E-007  0.1833378E+04  0.7818608E-02  0.8688748E-01
          1   -1    0    0  501    0  0.00000000000E+00  0.00000000000E+00  0.20360154282E+04  0.20360154282E+04  0.00000000000E+00 0. -1.
         -1   -1    0    0    0  501 -0.00000000000E+00 -0.00000000000E+00 -0.17384132386E+04  0.17384132386E+04  0.00000000000E+00 0.  1.
         23    2    1    2    0    0  0.16241853097E+04  0.79530996590E+03  0.43513553505E+03  0.18640581617E+04  0.12195914972E+03 0.  0.
    5000000    2    1    2    0    0 -0.16241853097E+04 -0.79530996590E+03 -0.13753334546E+03  0.19103705052E+04  0.60008681348E+03 0.  0.
         23    2    4    4    0    0 -0.58632097912E+03 -0.90589545814E+02 -0.24416586244E+03  0.64799571271E+03  0.91119256711E+02 0.  0.
         23    2    4    4    0    0 -0.10378643306E+04 -0.70472042008E+03  0.10663251698E+03  0.12623747924E+04  0.91795336056E+02 0.  0.
          4    1    3    3  502    0  0.61726425230E+03  0.36662773221E+03  0.15731249266E+03  0.73496821124E+03  0.00000000000E+00 0. -1.
         -4    1    3    3    0  502  0.10069210574E+04  0.42868223369E+03  0.27782304239E+03  0.11290899505E+04  0.00000000000E+00 0.  1.
         11    1    5    5    0    0 -0.26913644762E+03 -0.86187535475E+02 -0.12713863234E+03  0.30988215589E+03  0.00000000000E+00 0.  1.
        -11    1    5    5    0    0 -0.31718453150E+03 -0.44020103390E+01 -0.11702723010E+03  0.33811355682E+03  0.00000000000E+00 0. -1.
          3    1    6    6  503    0 -0.59683574480E+03 -0.41564376461E+03  0.10642213453E+03  0.73504987317E+03  0.00000000000E+00 0. -1.
         -3    1    6    6    0  503 -0.44102858579E+03 -0.28907665548E+03  0.21038244775E+00  0.52732491927E+03  0.00000000000E+00 0.  1.
<mgrwt>
<rscale>  0 0.18333780E+04</rscale>
<asrwt>0</asrwt>
<pdfrwt beam="1">  1        1 0.31323314E+00 0.18333780E+04</pdfrwt>
<pdfrwt beam="2">  1       -1 0.26744819E+00 0.18333780E+04</pdfrwt>
<totfact> 0.13736190E-01</totfact>
</mgrwt>
</event>
<event>
12    1  0.1335216E-007  0.8201947E+03  0.7818608E-02  0.9531238E-01
         -1   -1    0    0    0  501 -0.00000000000E+00  0.00000000000E+00  0.71640568359E+03  0.71640568359E+03  0.00000000000E+00 0.  1.
          1   -1    0    0  501    0  0.00000000000E+00 -0.00000000000E+00 -0.96914688119E+03  0.96914688119E+03  0.00000000000E+00 0. -1.
         23    2    1    2    0    0 -0.14619734928E+03  0.70433500985E+03 -0.50605657448E+02  0.72730237958E+03  0.94585134851E+02 0.  0.
    5000000    2    1    2    0    0  0.14619734928E+03 -0.70433500985E+03 -0.20213554016E+03  0.95825018520E+03  0.59993597143E+03 0.  0.
         23    2    4    4    0    0  0.16558423424E+03  0.35042208428E+02 -0.58822563607E+02  0.19961586999E+03  0.87979012056E+02 0.  0.
         23    2    4    4    0    0 -0.19386884962E+02 -0.73937721828E+03 -0.14331297655E+03  0.75863431521E+03  0.89066788179E+02 0.  0.
          1    1    3    3  502    0 -0.89267931808E+02  0.31168605221E+03  0.17747913916E+02  0.32470285992E+03  0.00000000000E+00 0. -1.
         -1    1    3    3    0  502 -0.56929417469E+02  0.39264895764E+03 -0.68353571364E+02  0.40259951966E+03  0.00000000000E+00 0.  1.
         13    1    5    5    0    0  0.39944524545E+02  0.30002684717E+02 -0.54312703459E+02  0.73794280865E+02  0.00000000000E+00 0.  1.
        -13    1    5    5    0    0  0.12563970969E+03  0.50395237109E+01 -0.45098601476E+01  0.12582158912E+03  0.00000000000E+00 0. -1.
          4    1    6    6  503    0  0.28817426418E+01 -0.68436365878E+03 -0.14365145728E+03  0.69928367854E+03  0.00000000000E+00 0. -1.
         -4    1    6    6    0  503 -0.22268627603E+02 -0.55013559503E+02  0.33848073215E+00  0.59350636675E+02  0.00000000000E+00 0.  1.
<mgrwt>
<rscale>  0 0.82019469E+03</rscale>
<asrwt>0</asrwt>
<pdfrwt beam="1">  1        1 0.14909952E+00 0.82019469E+03</pdfrwt>
<pdfrwt beam="2">  1       -1 0.11021626E+00 0.82019469E+03</pdfrwt>
<totfact> 0.12425320E+01</totfact>
</mgrwt>
</event>
<event>
12    1  0.1335216E-007  0.5223634E+03  0.7818608E-02  0.1008101E+00
          2   -1    0    0  501    0  0.00000000000E+00  0.00000000000E+00  0.35389772505E+03  0.35389772505E+03  0.00000000000E+00 0. -1.
         -2   -1    0    0    0  501 -0.00000000000E+00 -0.00000000000E+00 -0.13438328476E+04  0.13438328476E+04  0.00000000000E+00 0.  1.
         23    2    1    2    0    0  0.47190520503E+03  0.49623430627E+02 -0.75554469967E+03  0.89742604135E+03  0.96792040418E+02 0.  0.
    5000000    2    1    2    0    0 -0.47190520503E+03 -0.49623430627E+02 -0.23439042283E+03  0.80030453126E+03  0.60032613222E+03 0.  0.
         23    2    4    4    0    0 -0.46917605611E+03 -0.10222143882E+03  0.54674087527E+02  0.49186022027E+03  0.91443021911E+02 0.  0.
         23    2    4    4    0    0 -0.27291489258E+01  0.52598008197E+02 -0.28906451036E+03  0.30844431099E+03  0.93838175122E+02 0.  0.
          1    1    3    3  502    0  0.18278286835E+03  0.61345399125E+02 -0.26171965931E+03  0.32506924650E+03  0.00000000000E+00 0. -1.
         -1    1    3    3    0  502  0.28912233669E+03 -0.11721968498E+02 -0.49382504036E+03  0.57235679484E+03  0.00000000000E+00 0.  1.
         11    1    5    5    0    0 -0.28613440070E+03 -0.58824537207E+02  0.77871193627E+02  0.30231960611E+03  0.00000000000E+00 0. -1.
        -11    1    5    5    0    0 -0.18304165540E+03 -0.43396901617E+02 -0.23197106101E+02  0.18954061416E+03  0.00000000000E+00 0.  1.
          4    1    6    6  503    0  0.29273882425E+02  0.14796487532E+02 -0.22544202040E+03  0.22781571674E+03  0.00000000000E+00 0.  1.
         -4    1    6    6    0  503 -0.32003031351E+02  0.37801520665E+02 -0.63622489963E+02  0.80628594242E+02  0.00000000000E+00 0. -1.
<mgrwt>
<rscale>  0 0.52236342E+03</rscale>
<asrwt>0</asrwt>
<pdfrwt beam="1">  1        2 0.54445803E-01 0.52236342E+03</pdfrwt>
<pdfrwt beam="2">  1       -2 0.20674352E+00 0.52236342E+03</pdfrwt>
<totfact> 0.11486434E+01</totfact>
</mgrwt>
</event>
<event>
12    1  0.1335216E-007  0.6372208E+03  0.7818608E-02  0.9831058E-01
          1   -1    0    0  501    0  0.00000000000E+00  0.00000000000E+00  0.12972409543E+04  0.12972409543E+04  0.00000000000E+00 0. -1.
         -1   -1    0    0    0  501 -0.00000000000E+00 -0.00000000000E+00 -0.39275095015E+03  0.39275095015E+03  0.00000000000E+00 0.  1.
         23    2    1    2    0    0  0.57081686494E+03 -0.71817404737E+02  0.25844985306E+03  0.63704148901E+03  0.89643177383E+02 0.  0.
    5000000    2    1    2    0    0 -0.57081686494E+03  0.71817404737E+02  0.64604015113E+03  0.10529504155E+04  0.60028915336E+03 0.  0.
         23    2    4    4    0    0 -0.50831497329E+03  0.20279572061E+03  0.67782964970E+03  0.87600635806E+03  0.91781746406E+02 0.  0.
         23    2    4    4    0    0 -0.62501891651E+02 -0.13097831588E+03 -0.31789498566E+02  0.17694405742E+03  0.96108384369E+02 0.  0.
          4    1    3    3  502    0  0.23321929084E+03 -0.48882797423E+02  0.15062403644E+03  0.28190134065E+03  0.00000000000E+00 0. -1.
         -4    1    3    3    0  502  0.33759757410E+03 -0.22934607313E+02  0.10782581662E+03  0.35514014837E+03  0.00000000000E+00 0.  1.
         13    1    5    5    0    0 -0.22742067054E+03  0.10285936362E+03  0.23971026469E+03  0.34606534220E+03  0.00000000000E+00 0.  1.
        -13    1    5    5    0    0 -0.28089430275E+03  0.99936356990E+02  0.43811938501E+03  0.52994101586E+03  0.00000000000E+00 0. -1.
          2    1    6    6  503    0 -0.12799404764E+02 -0.70981594111E+02 -0.60268744087E+02  0.93992196371E+02  0.00000000000E+00 0. -1.
         -2    1    6    6    0  503 -0.49702486886E+02 -0.59996721767E+02  0.28479245522E+02  0.82951861046E+02  0.00000000000E+00 0.  1.
<mgrwt>
<rscale>  0 0.63722077E+03</rscale>
<asrwt>0</asrwt>
<pdfrwt beam="1">  1        1 0.19957553E+00 0.63722077E+03</pdfrwt>
<pdfrwt beam="2">  1       -1 0.60423224E-01 0.63722077E+03</pdfrwt>
<totfact> 0.26402957E+01</totfact>
</mgrwt>
</event>
<event>
12    1  0.1335216E-007  0.3947657E+03  0.7818608E-02  0.1045607E+00
          1   -1    0    0  501    0  0.00000000000E+00  0.00000000000E+00  0.56531538190E+03  0.56531538190E+03  0.00000000000E+00 0. -1.
         -1   -1    0    0    0  501 -0.00000000000E+00 -0.00000000000E+00 -0.72616613997E+03  0.72616613997E+03  0.00000000000E+00 0.  1.
         23    2    1    2    0    0 -0.14514690730E+02 -0.24240584899E+03  0.37242840285E+03  0.45302893537E+03  0.86954178561E+02 0.  0.
    5000000    2    1    2    0    0  0.14514690730E+02  0.24240584899E+03 -0.53327916092E+03  0.83845258650E+03  0.59970393067E+03 0.  0.
         23    2    4    4    0    0  0.90310566494E+02  0.37004629238E+03 -0.54112944548E+03  0.66762772168E+03  0.88404983233E+02 0.  0.
         23    2    4    4    0    0 -0.75795875764E+02 -0.12764044339E+03  0.78502845584E+01  0.17082486482E+03  0.84157054962E+02 0.  0.
          4    1    3    3  502    0 -0.91119187157E+01 -0.16557860758E+03  0.31825655653E+03  0.35886841338E+03  0.00000000000E+00 0. -1.
         -4    1    3    3    0  502 -0.54027720147E+01 -0.76827241413E+02  0.54171846317E+02  0.94160521993E+02  0.00000000000E+00 0.  1.
         11    1    5    5    0    0  0.62952504964E+02  0.10036438520E+03 -0.13856363820E+03  0.18230718453E+03  0.00000000000E+00 0. -1.
        -11    1    5    5    0    0  0.27358061531E+02  0.26968190718E+03 -0.40256580728E+03  0.48532053715E+03  0.00000000000E+00 0.  1.
          2    1    6    6  503    0 -0.82348408136E+02 -0.12577066089E+03 -0.11046873401E+02  0.15073670049E+03  0.00000000000E+00 0.  1.
         -2    1    6    6    0  503  0.65525323716E+01 -0.18697825042E+01  0.18897157959E+02  0.20088164327E+02  0.00000000000E+00 0. -1.
<mgrwt>
<rscale>  0 0.39476567E+03</rscale>
<asrwt>0</asrwt>
<pdfrwt beam="1">  1        1 0.86971597E-01 0.39476567E+03</pdfrwt>
<pdfrwt beam="2">  1       -1 0.11171787E+00 0.39476567E+03</pdfrwt>
<totfact> 0.29515907E+01</totfact>
</mgrwt>
</event>
<event>
12    1  0.1335216E-007  0.4044877E+03  0.7818608E-02  0.1042237E+00
          1   -1    0    0  501    0  0.00000000000E+00  0.00000000000E+00  0.33240816350E+03  0.33240816350E+03  0.00000000000E+00 0. -1.
         -1   -1    0    0    0  501 -0.00000000000E+00 -0.00000000000E+00 -0.54297181317E+03  0.54297181317E+03  0.00000000000E+00 0.  1.
         23    2    1    2    0    0  0.15528156340E+03  0.56889186496E+02 -0.16610121447E+03  0.25129208655E+03  0.90605495646E+02 0.  0.
    5000000    2    1    2    0    0 -0.15528156340E+03 -0.56889186496E+02 -0.44462435208E+02  0.62408789013E+03  0.60013335434E+03 0.  0.
         23    2    4    4    0    0  0.65249611208E+02  0.22587931672E+03 -0.71869846497E+01  0.25225790236E+03  0.91123098456E+02 0.  0.
         23    2    4    4    0    0 -0.22053117461E+03 -0.28276850321E+03 -0.37275450558E+02  0.37182998776E+03  0.90972826731E+02 0.  0.
          2    1    3    3  502    0  0.43215561820E+02  0.62840853321E+02 -0.63667355459E+02  0.99348325505E+02  0.00000000000E+00 0. -1.
         -2    1    3    3    0  502  0.11206600158E+03 -0.59516668250E+01 -0.10243385901E+03  0.15194376104E+03  0.00000000000E+00 0.  1.
         13    1    5    5    0    0  0.86164109185E+02  0.14586460213E+03 -0.69300307527E+01  0.16955459650E+03  0.00000000000E+00 0. -1.
        -13    1    5    5    0    0 -0.20914497977E+02  0.80014714585E+02 -0.25695389697E+00  0.82703305865E+02  0.00000000000E+00 0.  1.
          1    1    6    6  503    0  0.72255994482E+01 -0.16294567021E+02  0.55746118144E+01  0.18676147854E+02  0.00000000000E+00 0. -1.
         -1    1    6    6    0  503 -0.22775677406E+03 -0.26647393619E+03 -0.42850062372E+02  0.35315383991E+03  0.00000000000E+00 0.  1.
<mgrwt>
<rscale>  0 0.40448773E+03</rscale>
<asrwt>0</asrwt>
<pdfrwt beam="1">  1        1 0.51139718E-01 0.40448773E+03</pdfrwt>
<pdfrwt beam="2">  1       -1 0.83534124E-01 0.40448773E+03</pdfrwt>
<totfact> 0.11378054E+02</totfact>
</mgrwt>
</event>
<event>
12    1  0.1335216E-007  0.1170613E+04  0.7818608E-02  0.9138975E-01
         -1   -1    0    0    0  501 -0.00000000000E+00  0.00000000000E+00  0.10722372051E+04  0.10722372051E+04  0.00000000000E+00 0.  1.
          1   -1    0    0  501    0  0.00000000000E+00 -0.00000000000E+00 -0.13107386650E+04  0.13107386650E+04  0.00000000000E+00 0. -1.
         23    2    1    2    0    0 -0.10586967238E+04  0.32517514522E+03 -0.92770284654E+02  0.11149597134E+04  0.89169549452E+02 0.  0.
    5000000    2    1    2    0    0  0.10586967238E+04 -0.32517514522E+03 -0.14573117519E+03  0.12680161568E+04  0.60004147382E+03 0.  0.
         23    2    4    4    0    0  0.76334057139E+03 -0.46137748011E+03 -0.21504859375E+03  0.92199067143E+03  0.90900459047E+02 0.  0.
         23    2    4    4    0    0  0.29535615246E+03  0.13620233489E+03  0.69317418552E+02  0.34602548536E+03  0.95615893956E+02 0.  0.
          2    1    3    3  502    0 -0.92216396923E+03  0.25564362090E+03 -0.95674881851E+02  0.96171395439E+03  0.00000000000E+00 0. -1.
         -2    1    3    3    0  502 -0.13653275461E+03  0.69531524315E+02  0.29045971964E+01  0.15324575896E+03  0.00000000000E+00 0.  1.
         13    1    5    5    0    0  0.26011877355E+03 -0.20292561945E+03 -0.99625847580E+02  0.34462427786E+03  0.00000000000E+00 0.  1.
        -13    1    5    5    0    0  0.50322179783E+03 -0.25845186066E+03 -0.11542274616E+03  0.57736639357E+03  0.00000000000E+00 0. -1.
          1    1    6    6  503    0  0.28690316415E+03  0.10892257939E+03  0.48518971773E+02  0.31069542083E+03  0.00000000000E+00 0. -1.
         -1    1    6    6    0  503  0.84529883110E+01  0.27279755499E+02  0.20798446779E+02  0.35330064532E+02  0.00000000000E+00 0.  1.
<mgrwt>
<rscale>  0 0.11706129E+04</rscale>
<asrwt>0</asrwt>
<pdfrwt beam="1">  1        1 0.20165210E+00 0.11706129E+04</pdfrwt>
<pdfrwt beam="2">  1       -1 0.16495957E+00 0.11706129E+04</pdfrwt>
<totfact> 0.23444490E+00</totfact>
</mgrwt>
</event>
<event>
12    1  0.1335216E-007  0.3889754E+03  0.7818608E-02  0.1047665E+00
          2   -1    0    0  501    0  0.00000000000E+00  0.00000000000E+00  0.77962420067E+03  0.77962420067E+03  0.00000000000E+00 0. -1.
         -2   -1    0    0    0  501 -0.00000000000E+00 -0.00000000000E+00 -0.27829982715E+03  0.27829982715E+03  0.00000000000E+00 0.  1.
         23    2    1    2    0    0 -0.42281204040E+02  0.18954776792E+03 -0.49816622633E+02  0.22041319663E+03  0.91565412779E+02 0.  0.
    5000000    2    1    2    0    0  0.42281204040E+02 -0.18954776792E+03  0.55114099615E+03  0.83751083118E+03  0.59995994714E+03 0.  0.
         23    2    4    4    0    0  0.26230125588E+03  0.98169915674E+01  0.41177892599E+03  0.49672918949E+03  0.90992756009E+02 0.  0.
         23    2    4    4    0    0 -0.22002005184E+03 -0.19936475949E+03  0.13936207017E+03  0.34078164169E+03  0.92494379163E+02 0.  0.
          3    1    3    3  502    0 -0.42812754701E+02  0.19974487991E+03 -0.49519900463E+02  0.21019792948E+03  0.00000000000E+00 0. -1.
         -3    1    3    3    0  502  0.53155066083E+00 -0.10197111984E+02 -0.29672217051E+00  0.10215267151E+02  0.00000000000E+00 0.  1.
         11    1    5    5    0    0  0.20990201867E+03  0.26106973259E+02  0.25901371563E+03  0.33440773971E+03  0.00000000000E+00 0. -1.
        -11    1    5    5    0    0  0.52399237211E+02 -0.16289981691E+02  0.15276521035E+03  0.16232144978E+03  0.00000000000E+00 0.  1.
          2    1    6    6  503    0 -0.76767801480E+02 -0.63415822613E+02  0.88390273475E+00  0.99577322648E+02  0.00000000000E+00 0. -1.
         -2    1    6    6    0  503 -0.14325225036E+03 -0.13594893688E+03  0.13847816743E+03  0.24120431905E+03  0.00000000000E+00 0.  1.
<mgrwt>
<rscale>  0 0.38897540E+03</rscale>
<asrwt>0</asrwt>
<pdfrwt beam="1">  1        2 0.11994218E+00 0.38897540E+03</pdfrwt>
<pdfrwt beam="2">  1       -2 0.42815358E-01 0.38897540E+03</pdfrwt>
<totfact> 0.19090652E+02</totfact>
</mgrwt>
</event>
<event>
12    1  0.1335216E-007  0.3760783E+03  0.7818608E-02  0.1052393E+00
         -1   -1    0    0    0  501 -0.00000000000E+00  0.00000000000E+00  0.17189552503E+04  0.17189552503E+04  0.00000000000E+00 0.  1.
          1   -1    0    0  501    0  0.00000000000E+00 -0.00000000000E+00 -0.10402099727E+03  0.10402099727E+03  0.00000000000E+00 0. -1.
         23    2    1    2    0    0  0.16251499308E+03  0.34186070651E+02  0.19108831558E+03  0.26898710054E+03  0.90881821647E+02 0.  0.
    5000000    2    1    2    0    0 -0.16251499308E+03 -0.34186070651E+02  0.14238459374E+04  0.15539891470E+04  0.59997100351E+03 0.  0.
         23    2    4    4    0    0  0.19352219518E+03  0.77626163578E+02  0.42067929662E+03  0.47984972376E+03  0.99035475905E+02 0.  0.
         23    2    4    4    0    0 -0.35603718826E+03 -0.11181223423E+03  0.10031666408E+04  0.10741394232E+04  0.90375528641E+02 0.  0.
          2    1    3    3  502    0  0.61021495441E+02  0.18630912219E+02  0.14095649320E+03  0.15472384034E+03  0.00000000000E+00 0.  1.
         -2    1    3    3    0  502  0.10149349763E+03  0.15555158432E+02  0.50131822383E+02  0.11426326020E+03  0.00000000000E+00 0. -1.
         11    1    5    5    0    0  0.56494536925E+02  0.20951056850E+02  0.23296843178E+03  0.24063430698E+03  0.00000000000E+00 0.  1.
        -11    1    5    5    0    0  0.13702765826E+03  0.56675106728E+02  0.18771086484E+03  0.23921541679E+03  0.00000000000E+00 0. -1.
          4    1    6    6  503    0 -0.61912735625E+02  0.15215086324E+01  0.25243372952E+03  0.25991977535E+03  0.00000000000E+00 0.  1.
         -4    1    6    6    0  503 -0.29412445263E+03 -0.11333374286E+03  0.75073291129E+03  0.81421964789E+03  0.00000000000E+00 0. -1.
<mgrwt>
<rscale>  0 0.37607829E+03</rscale>
<asrwt>0</asrwt>
<pdfrwt beam="1">  1        1 0.16003232E-01 0.37607829E+03</pdfrwt>
<pdfrwt beam="2">  1       -1 0.26445463E+00 0.37607829E+03</pdfrwt>
<totfact> 0.21590969E+01</totfact>
</mgrwt>
</event>
<event>
12    1  0.1335216E-007  0.5214610E+03  0.7818608E-02  0.1008324E+00
          2   -1    0    0  501    0  0.00000000000E+00  0.00000000000E+00  0.13170365529E+04  0.13170365529E+04  0.00000000000E+00 0. -1.
         -2   -1    0    0    0  501 -0.00000000000E+00 -0.00000000000E+00 -0.36432903478E+03  0.36432903478E+03  0.00000000000E+00 0.  1.
         23    2    1    2    0    0  0.44483934736E+03  0.72594624547E+02  0.78936334745E+03  0.91338601783E+03  0.89596310141E+02 0.  0.
    5000000    2    1    2    0    0 -0.44483934736E+03 -0.72594624547E+02  0.16334417068E+03  0.76797956986E+03  0.59996606333E+03 0.  0.
         23    2    4    4    0    0 -0.76316500270E+02 -0.18170858087E+03 -0.14983546775E+03  0.26388477649E+03  0.91336144517E+02 0.  0.
         23    2    4    4    0    0 -0.36852284709E+03  0.10911395632E+03  0.31317963843E+03  0.50409479336E+03  0.91187337246E+02 0.  0.
          3    1    3    3  502    0  0.37420521777E+03  0.77124846847E+02  0.60101345756E+03  0.71217621638E+03  0.00000000000E+00 0. -1.
         -3    1    3    3    0  502  0.70634129591E+02 -0.45302223003E+01  0.18834988989E+03  0.20120980145E+03  0.00000000000E+00 0.  1.
         11    1    5    5    0    0 -0.41170304336E+01 -0.83754189342E+02 -0.20545520391E+02  0.86335581194E+02  0.00000000000E+00 0. -1.
        -11    1    5    5    0    0 -0.72199469836E+02 -0.97954391526E+02 -0.12928994736E+03  0.17754919530E+03  0.00000000000E+00 0.  1.
          3    1    6    6  503    0 -0.22704941412E+03  0.73382771059E+02  0.24841736177E+03  0.34445268640E+03  0.00000000000E+00 0. -1.
         -3    1    6    6    0  503 -0.14147343297E+03  0.35731185261E+02  0.64762276668E+02  0.15964210696E+03  0.00000000000E+00 0.  1.
<mgrwt>
<rscale>  0 0.52146096E+03</rscale>
<asrwt>0</asrwt>
<pdfrwt beam="1">  1        2 0.20262100E+00 0.52146096E+03</pdfrwt>
<pdfrwt beam="2">  1       -2 0.56050622E-01 0.52146096E+03</pdfrwt>
<totfact> 0.50563370E+01</totfact>
</mgrwt>
</event>
<event>
12    1  0.1335216E-007  0.4573723E+03  0.7818608E-02  0.1025546E+00
         -2   -1    0    0    0  501 -0.00000000000E+00  0.00000000000E+00  0.41208714857E+03  0.41208714857E+03  0.00000000000E+00 0.  1.
          2   -1    0    0  501    0  0.00000000000E+00 -0.00000000000E+00 -0.18636437304E+04  0.18636437304E+04  0.00000000000E+00 0. -1.
         23    2    1    2    0    0 -0.19302686470E+03  0.19924240598E+03  0.29067174064E+03  0.41226909628E+03  0.92297562827E+02 0.  0.
    5000000    2    1    2    0    0  0.19302686470E+03 -0.19924240598E+03 -0.17422283225E+04  0.18634617827E+04  0.60014446688E+03 0.  0.
         23    2    4    4    0    0  0.39377355006E+03 -0.15716138636E+03 -0.10480667717E+04  0.11341211425E+04  0.89607465188E+02 0.  0.
         23    2    4    4    0    0 -0.20074668536E+03 -0.42081019616E+02 -0.69416155072E+03  0.72934064016E+03  0.89484451145E+02 0.  0.
          3    1    3    3  502    0 -0.17697119741E+03  0.14576800149E+03  0.26615317689E+03  0.35128994939E+03  0.00000000000E+00 0. -1.
         -3    1    3    3    0  502 -0.16055667293E+02  0.53474404485E+02  0.24518563745E+02  0.60979146889E+02  0.00000000000E+00 0.  1.
         11    1    5    5    0    0  0.28857366081E+03 -0.11904181240E+03 -0.65747144359E+03  0.72781481845E+03  0.00000000000E+00 0. -1.
        -11    1    5    5    0    0  0.10519988925E+03 -0.38119573959E+02 -0.39059532816E+03  0.40630632409E+03  0.00000000000E+00 0.  1.
          1    1    6    6  503    0 -0.74362555026E+02 -0.87541504427E+01 -0.12803595551E+03  0.14832272464E+03  0.00000000000E+00 0. -1.
         -1    1    6    6    0  503 -0.12638413033E+03 -0.33326869174E+02 -0.56612559521E+03  0.58101791552E+03  0.00000000000E+00 0.  1.
<mgrwt>
<rscale>  0 0.45737233E+03</rscale>
<asrwt>0</asrwt>
<pdfrwt beam="1">  1        2 0.28671442E+00 0.45737233E+03</pdfrwt>
<pdfrwt beam="2">  1       -2 0.63398022E-01 0.45737233E+03</pdfrwt>
<totfact> 0.19876140E+01</totfact>
</mgrwt>
</event>
<event>
12    1  0.1335216E-007  0.9747017E+03  0.7818608E-02  0.9336735E-01
          2   -1    0    0  501    0  0.00000000000E+00  0.00000000000E+00  0.12163517797E+04  0.12163517797E+04  0.00000000000E+00 0.  1.
         -2   -1    0    0    0  501 -0.00000000000E+00 -0.00000000000E+00 -0.13503026960E+04  0.13503026960E+04  0.00000000000E+00 0. -1.
         23    2    1    2    0    0  0.25593366559E+03  0.93119279700E+03  0.66582630298E+03  0.11766206810E+04  0.92138454212E+02 0.  0.
    5000000    2    1    2    0    0 -0.25593366559E+03 -0.93119279700E+03 -0.79977721921E+03  0.13900337947E+04  0.59994023348E+03 0.  0.
         23    2    4    4    0    0 -0.17503240231E+03 -0.46423921078E+03 -0.75121657831E+03  0.90486241460E+03  0.91078291311E+02 0.  0.
         23    2    4    4    0    0 -0.80901263276E+02 -0.46695358622E+03 -0.48560640900E+02  0.48517138012E+03  0.91882893739E+02 0.  0.
          4    1    3    3  502    0  0.88007052072E+02  0.45820490673E+03  0.28689036467E+03  0.54772535007E+03  0.00000000000E+00 0. -1.
         -4    1    3    3    0  502  0.16792661352E+03  0.47298789026E+03  0.37893593831E+03  0.62889533088E+03  0.00000000000E+00 0.  1.
         11    1    5    5    0    0 -0.11447966135E+03 -0.35973940101E+03 -0.62502603465E+03  0.73018872457E+03  0.00000000000E+00 0.  1.
        -11    1    5    5    0    0 -0.60552740965E+02 -0.10449980976E+03 -0.12619054367E+03  0.17467369003E+03  0.00000000000E+00 0. -1.
          4    1    6    6  503    0 -0.81287121082E+02 -0.20307489910E+03 -0.27316081417E+02  0.22043860597E+03  0.00000000000E+00 0. -1.
         -4    1    6    6    0  503  0.38585780627E+00 -0.26387868712E+03 -0.21244559483E+02  0.26473277415E+03  0.00000000000E+00 0.  1.
<mgrwt>
<rscale>  0 0.97470175E+03</rscale>
<asrwt>0</asrwt>
<pdfrwt beam="1">  1        2 0.18713104E+00 0.97470175E+03</pdfrwt>
<pdfrwt beam="2">  1       -2 0.20773888E+00 0.97470175E+03</pdfrwt>
<totfact> 0.21841743E+00</totfact>
</mgrwt>
</event>
<event>
12    1  0.1335216E-007  0.1203157E+04  0.7818608E-02  0.9110098E-01
         -1   -1    0    0    0  501 -0.00000000000E+00  0.00000000000E+00  0.12363614214E+04  0.12363614214E+04  0.00000000000E+00 0.  1.
          1   -1    0    0  501    0  0.00000000000E+00 -0.00000000000E+00 -0.11903731375E+04  0.11903731375E+04  0.00000000000E+00 0. -1.
         23    2    1    2    0    0 -0.11284417338E+04 -0.13708436051E+03  0.24558831760E+02  0.11409166850E+04  0.94418627975E+02 0.  0.
    5000000    2    1    2    0    0  0.11284417338E+04  0.13708436051E+03  0.21429452110E+02  0.12858178739E+04  0.60057931608E+03 0.  0.
         23    2    4    4    0    0  0.16728723822E+03  0.24215304866E+03  0.57908107587E+02  0.31373775415E+03  0.91950586776E+02 0.  0.
         23    2    4    4    0    0  0.96115449561E+03 -0.10506868815E+03 -0.36478655477E+02  0.97208011976E+03  0.93550378218E+02 0.  0.
          1    1    3    3  502    0 -0.88901122581E+03 -0.71757277666E+02  0.34056016634E+02  0.89255245156E+03  0.00000000000E+00 0. -1.
         -1    1    3    3    0  502 -0.23943050802E+03 -0.65327082846E+02 -0.94971848733E+01  0.24836423342E+03  0.00000000000E+00 0.  1.
         13    1    5    5    0    0  0.10363281613E+03  0.16831105470E+03  0.80899508135E+02  0.21357224101E+03  0.00000000000E+00 0.  1.
        -13    1    5    5    0    0  0.63654422087E+02  0.73841993957E+02 -0.22991400549E+02  0.10016551314E+03  0.00000000000E+00 0. -1.
          4    1    6    6  503    0  0.46609272106E+03 -0.56092964320E+01 -0.29880563957E+02  0.46708322270E+03  0.00000000000E+00 0. -1.
         -4    1    6    6    0  503  0.49506177456E+03 -0.99459391714E+02 -0.65980915205E+01  0.50499689706E+03  0.00000000000E+00 0.  1.
<mgrwt>
<rscale>  0 0.12031569E+04</rscale>
<asrwt>0</asrwt>
<pdfrwt beam="1">  1        1 0.18313433E+00 0.12031569E+04</pdfrwt>
<pdfrwt beam="2">  1       -1 0.19020945E+00 0.12031569E+04</pdfrwt>
<totfact> 0.18741317E+00</totfact>
</mgrwt>
</event>
<event>
12    1  0.1335216E-007  0.6075833E+03  0.7818608E-02  0.9889797E-01
         -2   -1    0    0    0  501 -0.00000000000E+00  0.00000000000E+00  0.61977062762E+03  0.61977062762E+03  0.00000000000E+00 0.  1.
          2   -1    0    0  501    0  0.00000000000E+00 -0.00000000000E+00 -0.64575794388E+03  0.64575794388E+03  0.00000000000E+00 0. -1.
         23    2    1    2    0    0  0.48378737418E+03  0.41004757800E+01  0.26698647048E+02  0.49287501164E+03  0.90254761809E+02 0.  0.
    5000000    2    1    2    0    0 -0.48378737418E+03 -0.41004757800E+01 -0.52685963305E+02  0.77265355986E+03  0.60012554980E+03 0.  0.
         23    2    4    4    0    0 -0.59045658924E+02  0.22759336265E+03 -0.11253367307E+03  0.27585972001E+03  0.90275295554E+02 0.  0.
         23    2    4    4    0    0 -0.42474171525E+03 -0.23169383843E+03  0.59847709767E+02  0.49679383985E+03  0.95576207852E+02 0.  0.
          4    1    3    3  502    0  0.35811378586E+03  0.35654213925E+01  0.59378888191E+02  0.36302072698E+03  0.00000000000E+00 0.  1.
         -4    1    3    3    0  502  0.12567358831E+03  0.53505438748E+00 -0.32680241143E+02  0.12985428466E+03  0.00000000000E+00 0. -1.
         13    1    5    5    0    0  0.87562804320E+01  0.40944205219E+02  0.92890538520E+01  0.42888074211E+02  0.00000000000E+00 0.  1.
        -13    1    5    5    0    0 -0.67801939356E+02  0.18664915743E+03 -0.12182272692E+03  0.23297164580E+03  0.00000000000E+00 0. -1.
          2    1    6    6  503    0 -0.24696796642E+03 -0.18053809266E+03  0.60295990751E+02  0.31180568603E+03  0.00000000000E+00 0. -1.
         -2    1    6    6    0  503 -0.17777374883E+03 -0.51155745774E+02 -0.44828098469E+00  0.18498815383E+03  0.00000000000E+00 0.  1.
<mgrwt>
<rscale>  0 0.60758332E+03</rscale>
<asrwt>0</asrwt>
<pdfrwt beam="1">  1        2 0.99347376E-01 0.60758332E+03</pdfrwt>
<pdfrwt beam="2">  1       -2 0.95349328E-01 0.60758332E+03</pdfrwt>
<totfact> 0.42929630E+01</totfact>
</mgrwt>
</event>
<event>
12    1  0.1335216E-007  0.8145345E+03  0.7818608E-02  0.9539214E-01
         -1   -1    0    0    0  501 -0.00000000000E+00  0.00000000000E+00  0.45132749867E+03  0.45132749867E+03  0.00000000000E+00 0.  1.
          1   -1    0    0  501    0  0.00000000000E+00 -0.00000000000E+00 -0.19154258727E+04  0.19154258727E+04  0.00000000000E+00 0. -1.
         23    2    1    2    0    0 -0.62817688078E+03  0.42209327050E+03 -0.10921678423E+04  0.13319734948E+04  0.92487147660E+02 0.  0.
    5000000    2    1    2    0    0  0.62817688078E+03 -0.42209327050E+03 -0.37193053172E+03  0.10347798766E+04  0.59972339457E+03 0.  0.
         23    2    4    4    0    0  0.65738867737E+03 -0.36983347867E+03 -0.13160148241E+03  0.77088877682E+03  0.89520282475E+02 0.  0.
         23    2    4    4    0    0 -0.29211796581E+02 -0.52259791831E+02 -0.24032904932E+03  0.26389109976E+03  0.91082631099E+02 0.  0.
          3    1    3    3  502    0 -0.45112363610E+03  0.25760896704E+03 -0.70876676785E+03  0.87876347566E+03  0.00000000000E+00 0. -1.
         -3    1    3    3    0  502 -0.17705324469E+03  0.16448430346E+03 -0.38340107447E+03  0.45321001913E+03  0.00000000000E+00 0.  1.
         13    1    5    5    0    0  0.10757153605E+03 -0.99379521216E+02 -0.35132718120E+02  0.15060621663E+03  0.00000000000E+00 0. -1.
        -13    1    5    5    0    0  0.54981714131E+03 -0.27045395746E+03 -0.96468764287E+02  0.62028256018E+03  0.00000000000E+00 0.  1.
          2    1    6    6  503    0 -0.53575737249E+01 -0.75339191871E+02 -0.17537597419E+03  0.19094876211E+03  0.00000000000E+00 0. -1.
         -2    1    6    6    0  503 -0.23854222856E+02  0.23079400040E+02 -0.64953075130E+02  0.72942337658E+02  0.00000000000E+00 0.  1.
<mgrwt>
<rscale>  0 0.81453453E+03</rscale>
<asrwt>0</asrwt>
<pdfrwt beam="1">  1        1 0.29468091E+00 0.81453453E+03</pdfrwt>
<pdfrwt beam="2">  1       -1 0.69434999E-01 0.81453453E+03</pdfrwt>
<totfact> 0.73904903E+00</totfact>
</mgrwt>
</event>
<event>
12    1  0.1335216E-007  0.1023053E+04  0.7818608E-02  0.9283616E-01
          2   -1    0    0  501    0  0.00000000000E+00  0.00000000000E+00  0.28570866104E+04  0.28570866104E+04  0.00000000000E+00 0. -1.
         -2   -1    0    0    0  501 -0.00000000000E+00 -0.00000000000E+00 -0.38982703404E+03  0.38982703404E+03  0.00000000000E+00 0.  1.
         23    2    1    2    0    0  0.47687511907E+03  0.82549799699E+03  0.88432952123E+03  0.13036236774E+04  0.92407618700E+02 0.  0.
    5000000    2    1    2    0    0 -0.47687511907E+03 -0.82549799699E+03  0.15829300552E+04  0.19432899670E+04  0.60154094978E+03 0.  0.
         23    2    4    4    0    0 -0.28824511233E+03 -0.83534512398E+03  0.14285969095E+04  0.16824939962E+04  0.94922053398E+02 0.  0.
         23    2    4    4    0    0 -0.18863000674E+03  0.98471269921E+01  0.15433314561E+03  0.26079597088E+03  0.92290699638E+02 0.  0.
          2    1    3    3  502    0  0.14749870059E+03  0.28971235843E+03  0.24760950418E+03  0.40865582568E+03  0.00000000000E+00 0.  1.
         -2    1    3    3    0  502  0.32937641848E+03  0.53578563856E+03  0.63672001705E+03  0.89496785174E+03  0.00000000000E+00 0. -1.
         13    1    5    5    0    0 -0.15522173360E+03 -0.58526295220E+03  0.97574361396E+03  0.11483475563E+04  0.00000000000E+00 0. -1.
        -13    1    5    5    0    0 -0.13302337873E+03 -0.25008217178E+03  0.45285329559E+03  0.53414643990E+03  0.00000000000E+00 0.  1.
          3    1    6    6  503    0 -0.38562217762E+02  0.33889417244E+02  0.70547029275E+02  0.87249186698E+02  0.00000000000E+00 0. -1.
         -3    1    6    6    0  503 -0.15006778897E+03 -0.24042290252E+02  0.83786116338E+02  0.17354678418E+03  0.00000000000E+00 0.  1.
<mgrwt>
<rscale>  0 0.10230532E+04</rscale>
<asrwt>0</asrwt>
<pdfrwt beam="1">  1        2 0.43955177E+00 0.10230532E+04</pdfrwt>
<pdfrwt beam="2">  1       -2 0.59973392E-01 0.10230532E+04</pdfrwt>
<totfact> 0.56229148E+00</totfact>
</mgrwt>
</event>
<event>
12    1  0.1335216E-007  0.1275561E+04  0.7818608E-02  0.9049174E-01
          2   -1    0    0  501    0  0.00000000000E+00  0.00000000000E+00  0.21532704101E+04  0.21532704101E+04  0.00000000000E+00 0. -1.
         -2   -1    0    0    0  501 -0.00000000000E+00 -0.00000000000E+00 -0.15864996586E+04  0.15864996586E+04  0.00000000000E+00 0.  1.
         23    2    1    2    0    0 -0.12051757274E+04  0.16513451395E+03  0.16164450300E+04  0.20248507179E+04  0.86069466325E+02 0.  0.
    5000000    2    1    2    0    0  0.12051757274E+04 -0.16513451395E+03 -0.10496742785E+04  0.17149193508E+04  0.59951175731E+03 0.  0.
         23    2    4    4    0    0  0.11678947461E+04 -0.27096532043E+03 -0.98870776050E+03  0.15566059377E+04  0.89881403712E+02 0.  0.
         23    2    4    4    0    0  0.37280981352E+02  0.10583080648E+03 -0.60966517989E+02  0.15831341313E+03  0.93574511968E+02 0.  0.
          4    1    3    3  502    0 -0.24700804862E+03  0.39130251805E+02  0.27745482527E+03  0.37353089933E+03  0.00000000000E+00 0. -1.
         -4    1    3    3    0  502 -0.95816767883E+03  0.12600426214E+03  0.13389902048E+04  0.16513198186E+04  0.00000000000E+00 0.  1.
         11    1    5    5    0    0  0.86047836939E+03 -0.23962795932E+03 -0.72836833652E+03  0.11525471863E+04  0.00000000000E+00 0. -1.
        -11    1    5    5    0    0  0.30741637670E+03 -0.31337361111E+02 -0.26033942397E+03  0.40405875135E+03  0.00000000000E+00 0.  1.
          3    1    6    6  503    0  0.53303324525E+02  0.45878963312E+02  0.13870484088E+01  0.70342359807E+02  0.00000000000E+00 0. -1.
         -3    1    6    6    0  503 -0.16022343172E+02  0.59951843168E+02 -0.62353566398E+02  0.87971053322E+02  0.00000000000E+00 0.  1.
<mgrwt>
<rscale>  0 0.12755606E+04</rscale>
<asrwt>0</asrwt>
<pdfrwt beam="1">  1        2 0.33127237E+00 0.12755606E+04</pdfrwt>
<pdfrwt beam="2">  1       -2 0.24407687E+00 0.12755606E+04</pdfrwt>
<totfact> 0.36944668E-01</totfact>
</mgrwt>
</event>
<event>
12    1  0.1335216E-007  0.4208654E+03  0.7818608E-02  0.1036785E+00
          1   -1    0    0  501    0  0.00000000000E+00  0.00000000000E+00  0.93394787465E+03  0.93394787465E+03  0.00000000000E+00 0. -1.
         -1   -1    0    0    0  501 -0.00000000000E+00 -0.00000000000E+00 -0.37403224855E+03  0.37403224855E+03  0.00000000000E+00 0.  1.
         23    2    1    2    0    0 -0.15418901602E+03  0.33645625790E+03 -0.38809448702E+02  0.38306610473E+03  0.90864740947E+02 0.  0.
    5000000    2    1    2    0    0  0.15418901602E+03 -0.33645625790E+03  0.59872507481E+03  0.92491401846E+03  0.60001430000E+03 0.  0.
         23    2    4    4    0    0  0.17224612018E+03 -0.34466262147E+03  0.88188821993E+02  0.40595735708E+03  0.92536797465E+02 0.  0.
         23    2    4    4    0    0 -0.18057104159E+02  0.82063635751E+01  0.51053625282E+03  0.51895666138E+03  0.90968937241E+02 0.  0.
          1    1    3    3  502    0 -0.59925614955E+01  0.56566716823E+02  0.21243289660E+02  0.60720520427E+02  0.00000000000E+00 0. -1.
         -1    1    3    3    0  502 -0.14819645452E+03  0.27988954108E+03 -0.60052738362E+02  0.32234558431E+03  0.00000000000E+00 0.  1.
         13    1    5    5    0    0  0.12047390450E+03 -0.27391259410E+03  0.30003238910E+02  0.30073620536E+03  0.00000000000E+00 0.  1.
        -13    1    5    5    0    0  0.51772215677E+02 -0.70750027375E+02  0.58185583083E+02  0.10522115172E+03  0.00000000000E+00 0. -1.
          4    1    6    6  503    0 -0.47789537214E+02  0.16184675718E+02  0.42622633435E+03  0.42920236683E+03  0.00000000000E+00 0.  1.
         -4    1    6    6    0  503  0.29732433056E+02 -0.79783121432E+01  0.84309918463E+02  0.89754294556E+02  0.00000000000E+00 0. -1.
<mgrwt>
<rscale>  0 0.42086541E+03</rscale>
<asrwt>0</asrwt>
<pdfrwt beam="1">  1        1 0.14368429E+00 0.42086541E+03</pdfrwt>
<pdfrwt beam="2">  1       -1 0.57543423E-01 0.42086541E+03</pdfrwt>
<totfact> 0.55686207E+01</totfact>
</mgrwt>
</event>
<event>
12    1  0.1335216E-007  0.5539752E+03  0.7818608E-02  0.1000578E+00
          1   -1    0    0  501    0  0.00000000000E+00  0.00000000000E+00  0.14328002554E+04  0.14328002554E+04  0.00000000000E+00 0. -1.
         -1   -1    0    0    0  501 -0.00000000000E+00 -0.00000000000E+00 -0.28351501655E+03  0.28351501655E+03  0.00000000000E+00 0.  1.
         23    2    1    2    0    0  0.30060848294E+03  0.28202961801E+03  0.80966930453E+03  0.91300246810E+03  0.90016435231E+02 0.  0.
    5000000    2    1    2    0    0 -0.30060848294E+03 -0.28202961801E+03  0.33961593428E+03  0.80331280381E+03  0.60005525787E+03 0.  0.
         23    2    4    4    0    0 -0.35609735170E+03  0.48029643417E+02  0.24038323169E+03  0.44227900463E+03  0.93351214929E+02 0.  0.
         23    2    4    4    0    0  0.55488868761E+02 -0.33005926143E+03  0.99232702592E+02  0.36103379917E+03  0.92087698803E+02 0.  0.
          2    1    3    3  502    0  0.20308363041E+03  0.19929125070E+03  0.46239339338E+03  0.54292505356E+03  0.00000000000E+00 0. -1.
         -2    1    3    3    0  502  0.97524852528E+02  0.82738367315E+02  0.34727591115E+03  0.37007741454E+03  0.00000000000E+00 0.  1.
         11    1    5    5    0    0 -0.10507895017E+03  0.38134487915E+00  0.24770817324E+02  0.10795982856E+03  0.00000000000E+00 0. -1.
        -11    1    5    5    0    0 -0.25101840153E+03  0.47648298538E+02  0.21561241436E+03  0.33431917607E+03  0.00000000000E+00 0.  1.
          3    1    6    6  503    0  0.25817078757E+02 -0.19216738051E+03  0.10045756567E+02  0.19415391037E+03  0.00000000000E+00 0. -1.
         -3    1    6    6    0  503  0.29671790004E+02 -0.13789188092E+03  0.89186946026E+02  0.16687988881E+03  0.00000000000E+00 0.  1.
<mgrwt>
<rscale>  0 0.55397522E+03</rscale>
<asrwt>0</asrwt>
<pdfrwt beam="1">  1        1 0.22043080E+00 0.55397522E+03</pdfrwt>
<pdfrwt beam="2">  1       -1 0.43617696E-01 0.55397522E+03</pdfrwt>
<totfact> 0.39957889E+01</totfact>
</mgrwt>
</event>
<event>
12    1  0.1335216E-007  0.1242724E+04  0.7818608E-02  0.9076261E-01
          1   -1    0    0  501    0  0.00000000000E+00  0.00000000000E+00  0.18602888285E+04  0.18602888285E+04  0.00000000000E+00 0. -1.
         -1   -1    0    0    0  501 -0.00000000000E+00 -0.00000000000E+00 -0.11383571596E+04  0.11383571596E+04  0.00000000000E+00 0.  1.
         23    2    1    2    0    0  0.10862496920E+04  0.46046894132E+03  0.11066716141E+04  0.16202236694E+04  0.91829396843E+02 0.  0.
    5000000    2    1    2    0    0 -0.10862496920E+04 -0.46046894132E+03 -0.38473994529E+03  0.13784223187E+04  0.60004435168E+03 0.  0.
         23    2    4    4    0    0 -0.45645650788E+03 -0.49108121602E+03 -0.11842381113E+03  0.68697018753E+03  0.91599864581E+02 0.  0.
         23    2    4    4    0    0 -0.62979318407E+03  0.30612274702E+02 -0.26631613417E+03  0.69145213117E+03  0.98006123870E+02 0.  0.
          1    1    3    3  502    0  0.49764656733E+03  0.23462413620E+03  0.57106206402E+03  0.79297696828E+03  0.00000000000E+00 0. -1.
         -1    1    3    3    0  502  0.58860312463E+03  0.22584480513E+03  0.53560955011E+03  0.82724670111E+03  0.00000000000E+00 0.  1.
         13    1    5    5    0    0 -0.12811995992E+03 -0.13616180136E+03  0.82749667253E+01  0.18714495812E+03  0.00000000000E+00 0.  1.
        -13    1    5    5    0    0 -0.32833654797E+03 -0.35491941467E+03 -0.12669877785E+03  0.49982522941E+03  0.00000000000E+00 0. -1.
          2    1    6    6  503    0 -0.39998906123E+03  0.52918092892E+02 -0.20499061452E+03  0.45256239979E+03  0.00000000000E+00 0. -1.
         -2    1    6    6    0  503 -0.22980412284E+03 -0.22305818191E+02 -0.61325519643E+02  0.23888973138E+03  0.00000000000E+00 0.  1.
<mgrwt>
<rscale>  0 0.12427236E+04</rscale>
<asrwt>0</asrwt>
<pdfrwt beam="1">  1        1 0.28619828E+00 0.12427236E+04</pdfrwt>
<pdfrwt beam="2">  1       -1 0.17513187E+00 0.12427236E+04</pdfrwt>
<totfact> 0.81645808E-01</totfact>
</mgrwt>
</event>
<event>
12    1  0.1335216E-007  0.5818120E+03  0.7818608E-02  0.9943876E-01
          2   -1    0    0  501    0  0.00000000000E+00  0.00000000000E+00  0.43168511483E+04  0.43168511483E+04  0.00000000000E+00 0.  1.
         -2   -1    0    0    0  501 -0.00000000000E+00 -0.00000000000E+00 -0.11573739667E+03  0.11573739667E+03  0.00000000000E+00 0. -1.
         23    2    1    2    0    0  0.23468419846E+03  0.46895242769E+03  0.24748999569E+04  0.25313687842E+04  0.87778544547E+02 0.  0.
    5000000    2    1    2    0    0 -0.23468419846E+03 -0.46895242769E+03  0.17262137947E+04  0.19012197607E+04  0.59985786727E+03 0.  0.
         23    2    4    4    0    0 -0.24250694577E+03 -0.10667124054E+03  0.13215630123E+04  0.13509896767E+04  0.91956179188E+02 0.  0.
         23    2    4    4    0    0  0.78227473070E+01 -0.36228118715E+03  0.40465078245E+03  0.55023008397E+03  0.87761242225E+02 0.  0.
          3    1    3    3  502    0  0.15591711483E+03  0.35142348819E+03  0.19619809611E+04  0.19992943522E+04  0.00000000000E+00 0. -1.
         -3    1    3    3    0  502  0.78767083631E+02  0.11752893950E+03  0.51291899571E+03  0.53207443205E+03  0.00000000000E+00 0.  1.
         11    1    5    5    0    0 -0.14019039789E+03 -0.21045020096E+02  0.81018194268E+03  0.82249074206E+03  0.00000000000E+00 0.  1.
        -11    1    5    5    0    0 -0.10231654788E+03 -0.85626220447E+02  0.51138106962E+03  0.52849893468E+03  0.00000000000E+00 0. -1.
          2    1    6    6  503    0 -0.15801134075E+01 -0.15534872742E+03  0.11128587563E+03  0.19110277336E+03  0.00000000000E+00 0.  1.
         -2    1    6    6    0  503  0.94028607144E+01 -0.20693245973E+03  0.29336490682E+03  0.35912731062E+03  0.00000000000E+00 0. -1.
<mgrwt>
<rscale>  0 0.58181197E+03</rscale>
<asrwt>0</asrwt>
<pdfrwt beam="1">  1        2 0.66413082E+00 0.58181197E+03</pdfrwt>
<pdfrwt beam="2">  1       -2 0.17805757E-01 0.58181197E+03</pdfrwt>
<totfact> 0.55949623E+00</totfact>
</mgrwt>
</event>
<event>
12    1  0.1335216E-007  0.6522309E+03  0.7818608E-02  0.9802602E-01
          1   -1    0    0  501    0  0.00000000000E+00  0.00000000000E+00  0.23383115922E+04  0.23383115922E+04  0.00000000000E+00 0. -1.
         -1   -1    0    0    0  501 -0.00000000000E+00 -0.00000000000E+00 -0.29638015970E+03  0.29638015970E+03  0.00000000000E+00 0.  1.
         23    2    1    2    0    0 -0.42988186456E+03 -0.36018747900E+03  0.17382329994E+03  0.59401742480E+03  0.90048452808E+02 0.  0.
    5000000    2    1    2    0    0  0.42988186456E+03  0.36018747900E+03  0.18681081326E+04  0.20406743272E+04  0.59999189736E+03 0.  0.
         23    2    4    4    0    0  0.80657255732E+02  0.36989653716E+03  0.13800243928E+04  0.14340594441E+04  0.93435130113E+02 0.  0.
         23    2    4    4    0    0  0.34922460883E+03 -0.97090581589E+01  0.48808373981E+03  0.60661488300E+03  0.87771213934E+02 0.  0.
          3    1    3    3  502    0 -0.19653046158E+03 -0.21892397498E+03  0.72229740140E+02  0.30293409268E+03  0.00000000000E+00 0. -1.
         -3    1    3    3    0  502 -0.23335140298E+03 -0.14126350402E+03  0.10159355980E+03  0.29108333212E+03  0.00000000000E+00 0.  1.
         11    1    5    5    0    0  0.35014020149E+01  0.16450734274E+03  0.47038191977E+03  0.49833129149E+03  0.00000000000E+00 0. -1.
        -11    1    5    5    0    0  0.77155853717E+02  0.20538919441E+03  0.90964247302E+03  0.93572815266E+03  0.00000000000E+00 0.  1.
          3    1    6    6  503    0  0.11710608988E+03  0.22338726443E+02  0.11242111366E+03  0.16386385136E+03  0.00000000000E+00 0. -1.
         -3    1    6    6    0  503  0.23211851895E+03 -0.32047784602E+02  0.37566262615E+03  0.44275103164E+03  0.00000000000E+00 0.  1.
<mgrwt>
<rscale>  0 0.65223087E+03</rscale>
<asrwt>0</asrwt>
<pdfrwt beam="1">  1        1 0.35974023E+00 0.65223087E+03</pdfrwt>
<pdfrwt beam="2">  1       -1 0.45596949E-01 0.65223087E+03</pdfrwt>
<totfact> 0.89600057E+00</totfact>
</mgrwt>
</event>
<event>
12    1  0.1335216E-007  0.5546918E+03  0.7818608E-02  0.1000414E+00
         -1   -1    0    0    0  501 -0.00000000000E+00  0.00000000000E+00  0.21233046801E+03  0.21233046801E+03  0.00000000000E+00 0.  1.
          1   -1    0    0  501    0  0.00000000000E+00 -0.00000000000E+00 -0.17128871987E+04  0.17128871987E+04  0.00000000000E+00 0. -1.
         23    2    1    2    0    0 -0.32935838329E+03 -0.25126615549E+03 -0.29431506246E+03  0.51615771991E+03  0.90475467888E+02 0.  0.
    5000000    2    1    2    0    0  0.32935838329E+03  0.25126615549E+03 -0.12062416682E+04  0.14090599468E+04  0.59901531361E+03 0.  0.
         23    2    4    4    0    0  0.45251514637E+03  0.87807553084E+02 -0.59595689664E+03  0.75906224366E+03  0.92362021538E+02 0.  0.
         23    2    4    4    0    0 -0.12315676308E+03  0.16345860241E+03 -0.61028477161E+03  0.64999770315E+03  0.90350476745E+02 0.  0.
          4    1    3    3  502    0 -0.18473191549E+03 -0.18809680435E+03 -0.15621474946E+03  0.30644630256E+03  0.00000000000E+00 0.  1.
         -4    1    3    3    0  502 -0.14462646780E+03 -0.63169351142E+02 -0.13810031301E+03  0.20971141735E+03  0.00000000000E+00 0. -1.
         11    1    5    5    0    0  0.28295746280E+03  0.91665790888E+02 -0.42022147755E+03  0.51483359755E+03  0.00000000000E+00 0. -1.
        -11    1    5    5    0    0  0.16955768357E+03 -0.38582378048E+01 -0.17573541909E+03  0.24422864610E+03  0.00000000000E+00 0.  1.
          3    1    6    6  503    0  0.10632608364E+02  0.30358509646E+02 -0.13112808610E+03  0.13501580068E+03  0.00000000000E+00 0. -1.
         -3    1    6    6    0  503 -0.13378937144E+03  0.13310009277E+03 -0.47915668551E+03  0.51498190248E+03  0.00000000000E+00 0.  1.
<mgrwt>
<rscale>  0 0.55469183E+03</rscale>
<asrwt>0</asrwt>
<pdfrwt beam="1">  1        1 0.26352110E+00 0.55469183E+03</pdfrwt>
<pdfrwt beam="2">  1       -1 0.32666227E-01 0.55469183E+03</pdfrwt>
<totfact> 0.43423739E+01</totfact>
</mgrwt>
</event>
<event>
12    1  0.1335216E-007  0.1081682E+04  0.7818608E-02  0.9223232E-01
          1   -1    0    0  501    0  0.00000000000E+00  0.00000000000E+00  0.29094704171E+04  0.29094704171E+04  0.00000000000E+00 0. -1.
         -1   -1    0    0    0  501 -0.00000000000E+00 -0.00000000000E+00 -0.72939722058E+03  0.72939722058E+03  0.00000000000E+00 0.  1.
         23    2    1    2    0    0 -0.94807710916E+03  0.31519614135E+03  0.22578874504E+04  0.24707590573E+04  0.91628423602E+02 0.  0.
    5000000    2    1    2    0    0  0.94807710916E+03 -0.31519614135E+03 -0.77814253840E+02  0.11681085804E+04  0.60018645865E+03 0.  0.
         23    2    4    4    0    0  0.24144669270E+03  0.16488244917E+03 -0.31830973579E+02  0.30769320066E+03  0.90438749396E+02 0.  0.
         23    2    4    4    0    0  0.70663041646E+03 -0.48007859052E+03 -0.45983280261E+02  0.86041537978E+03  0.91641503384E+02 0.  0.
          3    1    3    3  502    0 -0.63506567423E+03  0.24296780700E+03  0.14571761589E+04  0.16080124763E+04  0.00000000000E+00 0. -1.
         -3    1    3    3    0  502 -0.31301143493E+03  0.72228334352E+02  0.80071129146E+03  0.86274658096E+03  0.00000000000E+00 0.  1.
         13    1    5    5    0    0  0.18003919717E+03  0.16091545392E+03 -0.76928991758E+01  0.24159279072E+03  0.00000000000E+00 0.  1.
        -13    1    5    5    0    0  0.61407495524E+02  0.39669952469E+01 -0.24138074404E+02  0.66100409936E+02  0.00000000000E+00 0. -1.
          1    1    6    6  503    0  0.74881533870E+02 -0.19599724792E+02 -0.59255374359E+01  0.77630569498E+02  0.00000000000E+00 0. -1.
         -1    1    6    6    0  503  0.63174888259E+03 -0.46047886573E+03 -0.40057742825E+02  0.78278481028E+03  0.00000000000E+00 0.  1.
<mgrwt>
<rscale>  0 0.10816815E+04</rscale>
<asrwt>0</asrwt>
<pdfrwt beam="1">  1        1 0.44761083E+00 0.10816815E+04</pdfrwt>
<pdfrwt beam="2">  1       -1 0.11221496E+00 0.10816815E+04</pdfrwt>
<totfact> 0.51227088E-01</totfact>
</mgrwt>
</event>
<event>
12    1  0.1335216E-007  0.6705728E+03  0.7818608E-02  0.9768924E-01
         -1   -1    0    0    0  501 -0.00000000000E+00  0.00000000000E+00  0.21301298094E+03  0.21301298094E+03  0.00000000000E+00 0.  1.
          1   -1    0    0  501    0  0.00000000000E+00 -0.00000000000E+00 -0.24029072842E+04  0.24029072842E+04  0.00000000000E+00 0. -1.
         23    2    1    2    0    0  0.42692696922E+03  0.35020328643E+03 -0.12625803327E+04  0.13810654922E+04  0.91234962484E+02 0.  0.
    5000000    2    1    2    0    0 -0.42692696922E+03 -0.35020328643E+03 -0.92731397061E+03  0.12348547730E+04  0.60003844160E+03 0.  0.
         23    2    4    4    0    0 -0.28402566809E+03  0.97347869101E+02 -0.51636660250E+03  0.60421046132E+03  0.91041889455E+02 0.  0.
         23    2    4    4    0    0 -0.14290130112E+03 -0.44755115553E+03 -0.41094736811E+03  0.63064431166E+03  0.90064919907E+02 0.  0.
          1    1    3    3  502    0  0.21965740257E+02  0.52161498943E+02 -0.11551283353E+03  0.12863331772E+03  0.00000000000E+00 0. -1.
         -1    1    3    3    0  502  0.40496122896E+03  0.29804178749E+03 -0.11470674991E+04  0.12524321745E+04  0.00000000000E+00 0.  1.
         13    1    5    5    0    0 -0.15607473784E+03  0.94504767298E+02 -0.34561202905E+03  0.39081728398E+03  0.00000000000E+00 0.  1.
        -13    1    5    5    0    0 -0.12795093025E+03  0.28431018025E+01 -0.17075457345E+03  0.21339317734E+03  0.00000000000E+00 0. -1.
          4    1    6    6  503    0 -0.43612906029E+02 -0.19736077718E+03 -0.23058803512E+03  0.30663366398E+03  0.00000000000E+00 0.  1.
         -4    1    6    6    0  503 -0.99288395092E+02 -0.25019037835E+03 -0.18035933298E+03  0.32401064768E+03  0.00000000000E+00 0. -1.
<mgrwt>
<rscale>  0 0.67057279E+03</rscale>
<asrwt>0</asrwt>
<pdfrwt beam="1">  1        1 0.36967801E+00 0.67057279E+03</pdfrwt>
<pdfrwt beam="2">  1       -1 0.32771231E-01 0.67057279E+03</pdfrwt>
<totfact> 0.14666197E+01</totfact>
</mgrwt>
</event>
<event>
12    1  0.1335216E-007  0.6078931E+03  0.7818608E-02  0.9889164E-01
         -1   -1    0    0    0  501 -0.00000000000E+00  0.00000000000E+00  0.10759942038E+04  0.10759942038E+04  0.00000000000E+00 0.  1.
          1   -1    0    0  501    0  0.00000000000E+00 -0.00000000000E+00 -0.83843541837E+03  0.83843541837E+03  0.00000000000E+00 0. -1.
         23    2    1    2    0    0 -0.27925607461E+03  0.39970610937E+03 -0.59734498751E+03  0.77652531879E+03  0.91769317005E+02 0.  0.
    5000000    2    1    2    0    0  0.27925607461E+03 -0.39970610937E+03  0.83490377295E+03  0.11379043034E+04  0.60001080364E+03 0.  0.
         23    2    4    4    0    0  0.43648463309E+03 -0.22979955529E+03  0.67838799204E+03  0.84374646295E+03  0.91494018647E+02 0.  0.
         23    2    4    4    0    0 -0.15722855848E+03 -0.16990655407E+03  0.15651578091E+03  0.29415784043E+03  0.91883560517E+02 0.  0.
          2    1    3    3  502    0 -0.13482269217E+03  0.17150425922E+03 -0.19914442719E+03  0.29538004695E+03  0.00000000000E+00 0.  1.
         -2    1    3    3    0  502 -0.14443338244E+03  0.22820185015E+03 -0.39820056032E+03  0.48114527184E+03  0.00000000000E+00 0. -1.
         13    1    5    5    0    0  0.32024499089E+03 -0.18796410470E+03  0.44414997798E+03  0.57892707812E+03  0.00000000000E+00 0. -1.
        -13    1    5    5    0    0  0.11623964220E+03 -0.41835450594E+02  0.23423801406E+03  0.26481938482E+03  0.00000000000E+00 0.  1.
          3    1    6    6  503    0 -0.12484603400E+03 -0.14786417561E+03  0.16472398214E+03  0.25413448590E+03  0.00000000000E+00 0. -1.
         -3    1    6    6    0  503 -0.32382524488E+02 -0.22042378466E+02 -0.82082012252E+01  0.40023354532E+02  0.00000000000E+00 0.  1.
<mgrwt>
<rscale>  0 0.60789315E+03</rscale>
<asrwt>0</asrwt>
<pdfrwt beam="1">  1        1 0.12899006E+00 0.60789315E+03</pdfrwt>
<pdfrwt beam="2">  1       -1 0.16553757E+00 0.60789315E+03</pdfrwt>
<totfact> 0.57637972E+00</totfact>
</mgrwt>
</event>
<event>
12    1  0.1335216E-007  0.5029802E+03  0.7818608E-02  0.1013004E+00
          1   -1    0    0  501    0  0.00000000000E+00  0.00000000000E+00  0.14207585988E+04  0.14207585988E+04  0.00000000000E+00 0. -1.
         -1   -1    0    0    0  501 -0.00000000000E+00 -0.00000000000E+00 -0.20365713472E+03  0.20365713472E+03  0.00000000000E+00 0.  1.
         23    2    1    2    0    0 -0.21141655058E+03  0.26973434639E+03  0.60616946074E+03  0.70211482081E+03  0.89834464325E+02 0.  0.
    5000000    2    1    2    0    0  0.21141655058E+03 -0.26973434639E+03  0.61093200331E+03  0.92230091269E+03  0.59995623624E+03 0.  0.
         23    2    4    4    0    0 -0.81526628207E+02 -0.33704649591E+03  0.21997519175E+03  0.42072272893E+03  0.91496437881E+02 0.  0.
         23    2    4    4    0    0  0.29294317879E+03  0.67312149514E+02  0.39095681156E+03  0.50157818376E+03  0.91579552551E+02 0.  0.
          1    1    3    3  502    0 -0.14450492283E+03  0.18125778376E+03  0.31953631828E+03  0.39476513979E+03  0.00000000000E+00 0. -1.
         -1    1    3    3    0  502 -0.66911627752E+02  0.88476562632E+02  0.28663314246E+03  0.30734968101E+03  0.00000000000E+00 0.  1.
         13    1    5    5    0    0  0.63463721200E+01 -0.93788539977E+02  0.26328829544E+02  0.97620561027E+02  0.00000000000E+00 0. -1.
        -13    1    5    5    0    0 -0.87873000327E+02 -0.24325795593E+03  0.19364636220E+03  0.32310216790E+03  0.00000000000E+00 0.  1.
          1    1    6    6  503    0  0.82245501536E+02  0.56144307272E+02  0.91364331208E+02  0.13514417035E+03  0.00000000000E+00 0. -1.
         -1    1    6    6    0  503  0.21069767725E+03  0.11167842243E+02  0.29959248036E+03  0.36643401341E+03  0.00000000000E+00 0.  1.
<mgrwt>
<rscale>  0 0.50298020E+03</rscale>
<asrwt>0</asrwt>
<pdfrwt beam="1">  1        1 0.21857824E+00 0.50298020E+03</pdfrwt>
<pdfrwt beam="2">  1       -1 0.31331868E-01 0.50298020E+03</pdfrwt>
<totfact> 0.74080179E+01</totfact>
</mgrwt>
</event>
<event>
12    1  0.1335216E-007  0.1016843E+04  0.7818608E-02  0.9290262E-01
          1   -1    0    0  501    0  0.00000000000E+00  0.00000000000E+00  0.10811871602E+04  0.10811871602E+04  0.00000000000E+00 0. -1.
         -1   -1    0    0    0  501 -0.00000000000E+00 -0.00000000000E+00 -0.12629252644E+04  0.12629252644E+04  0.00000000000E+00 0.  1.
         23    2    1    2    0    0  0.88438221639E+03 -0.28148678235E+03 -0.65750913617E+03  0.11408963533E+04  0.89216095094E+02 0.  0.
    5000000    2    1    2    0    0 -0.88438221639E+03  0.28148678235E+03  0.47577103198E+03  0.12032160713E+04  0.60000343833E+03 0.  0.
         23    2    4    4    0    0 -0.89857209096E+03  0.10911427897E+03  0.38923763581E+03  0.98934618322E+03  0.89231186219E+02 0.  0.
         23    2    4    4    0    0  0.14189874569E+02  0.17237250339E+03  0.86533396168E+02  0.21386988806E+03  0.91316306872E+02 0.  0.
          1    1    3    3  502    0  0.64672374782E+02 -0.45317038674E+02 -0.64676311437E+02  0.10207436169E+03  0.00000000000E+00 0. -1.
         -1    1    3    3    0  502  0.81970984161E+03 -0.23616974368E+03 -0.59283282474E+03  0.10388219917E+04  0.00000000000E+00 0.  1.
         11    1    5    5    0    0 -0.89955130816E+02  0.23995519336E+02  0.15118528939E+02  0.94320095556E+02  0.00000000000E+00 0. -1.
        -11    1    5    5    0    0 -0.80861696015E+03  0.85118759629E+02  0.37411910687E+03  0.89502608767E+03  0.00000000000E+00 0.  1.
          4    1    6    6  503    0 -0.34989537042E+02  0.34671936444E+02  0.18798551127E+02  0.52723774559E+02  0.00000000000E+00 0. -1.
         -4    1    6    6    0  503  0.49179411611E+02  0.13770056694E+03  0.67734845041E+02  0.16114611350E+03  0.00000000000E+00 0.  1.
<mgrwt>
<rscale>  0 0.10168429E+04</rscale>
<asrwt>0</asrwt>
<pdfrwt beam="1">  1        1 0.16633649E+00 0.10168429E+04</pdfrwt>
<pdfrwt beam="2">  1       -1 0.19429619E+00 0.10168429E+04</pdfrwt>
<totfact> 0.21643949E+00</totfact>
</mgrwt>
</event>
<event>
12    1  0.1335216E-007  0.5148997E+03  0.7818608E-02  0.1009961E+00
         -4   -1    0    0    0  501 -0.00000000000E+00  0.00000000000E+00  0.13669184198E+03  0.13669184198E+03  0.00000000000E+00 0. -1.
          4   -1    0    0  501    0  0.00000000000E+00 -0.00000000000E+00 -0.24543265803E+04  0.24543265803E+04  0.00000000000E+00 0.  1.
         23    2    1    2    0    0  0.19352975653E+02 -0.35180823171E+03 -0.13568309518E+04  0.14049233463E+04  0.93144015785E+02 0.  0.
    5000000    2    1    2    0    0 -0.19352975653E+02  0.35180823171E+03 -0.96080378650E+03  0.11860950759E+04  0.59961157717E+03 0.  0.
         23    2    4    4    0    0  0.36264467158E+02  0.50129897640E+03 -0.68122950029E+03  0.85125959830E+03  0.89182376769E+02 0.  0.
         23    2    4    4    0    0 -0.55617442811E+02 -0.14949074469E+03 -0.27957428621E+03  0.33483547764E+03  0.92261762862E+02 0.  0.
          2    1    3    3  502    0  0.44290750417E+02 -0.15261443219E+03 -0.48886423540E+03  0.51404384651E+03  0.00000000000E+00 0. -1.
         -2    1    3    3    0  502 -0.24937774764E+02 -0.19919379952E+03 -0.86796671643E+03  0.89087949983E+03  0.00000000000E+00 0.  1.
         13    1    5    5    0    0  0.12665709791E+02  0.44081726179E+03 -0.55103764118E+03  0.70577812412E+03  0.00000000000E+00 0. -1.
        -13    1    5    5    0    0  0.23598757367E+02  0.60481714609E+02 -0.13019185911E+03  0.14548147418E+03  0.00000000000E+00 0.  1.
          1    1    6    6  503    0 -0.61125160786E+02 -0.12538846338E+03 -0.27679254429E+03  0.30995590752E+03  0.00000000000E+00 0. -1.
         -1    1    6    6    0  503  0.55077179755E+01 -0.24102281307E+02 -0.27817419182E+01  0.24879570124E+02  0.00000000000E+00 0.  1.
<mgrwt>
<rscale>  0 0.51489970E+03</rscale>
<asrwt>0</asrwt>
<pdfrwt beam="1">  1        4 0.37758866E+00 0.51489970E+03</pdfrwt>
<pdfrwt beam="2">  1       -4 0.21029517E-01 0.51489970E+03</pdfrwt>
<totfact> 0.43544441E-01</totfact>
</mgrwt>
</event>
<event>
12    1  0.1335216E-007  0.1295159E+04  0.7818608E-02  0.9033413E-01
         -2   -1    0    0    0  501 -0.00000000000E+00  0.00000000000E+00  0.20774815237E+04  0.20774815237E+04  0.00000000000E+00 0.  1.
          2   -1    0    0  501    0  0.00000000000E+00 -0.00000000000E+00 -0.12536706684E+04  0.12536706684E+04  0.00000000000E+00 0. -1.
         23    2    1    2    0    0 -0.10764477515E+04  0.71321054372E+03  0.12951897995E+04  0.18312474495E+04  0.92420577425E+02 0.  0.
    5000000    2    1    2    0    0  0.10764477515E+04 -0.71321054372E+03 -0.47137894417E+03  0.14999047425E+04  0.60008923196E+03 0.  0.
         23    2    4    4    0    0  0.50146429203E+03 -0.37587101786E+03  0.68940993441E+02  0.63672126227E+03  0.88969921941E+02 0.  0.
         23    2    4    4    0    0  0.57498345948E+03 -0.33733952587E+03 -0.54031993761E+03  0.86318348028E+03  0.93467380740E+02 0.  0.
          1    1    3    3  502    0 -0.12676967271E+03  0.10104474976E+03  0.20289722189E+03  0.25970728527E+03  0.00000000000E+00 0. -1.
         -1    1    3    3    0  502 -0.94967807879E+03  0.61216579396E+03  0.10922925776E+04  0.15715401642E+04  0.00000000000E+00 0.  1.
         13    1    5    5    0    0  0.35195956247E+03 -0.25593515133E+03  0.67896876238E+01  0.43522917544E+03  0.00000000000E+00 0. -1.
        -13    1    5    5    0    0  0.14950472956E+03 -0.11993586653E+03  0.62151305817E+02  0.20149208683E+03  0.00000000000E+00 0.  1.
          3    1    6    6  503    0  0.48261167520E+03 -0.24647914236E+03 -0.41115998752E+03  0.68023417438E+03  0.00000000000E+00 0. -1.
         -3    1    6    6    0  503  0.92371784281E+02 -0.90860383508E+02 -0.12915995009E+03  0.18294930590E+03  0.00000000000E+00 0.  1.
<mgrwt>
<rscale>  0 0.12951589E+04</rscale>
<asrwt>0</asrwt>
<pdfrwt beam="1">  1        2 0.19287241E+00 0.12951589E+04</pdfrwt>
<pdfrwt beam="2">  1       -2 0.31961254E+00 0.12951589E+04</pdfrwt>
<totfact> 0.40948158E-01</totfact>
</mgrwt>
</event>
<event>
12    1  0.1335216E-007  0.5425907E+03  0.7818608E-02  0.1003224E+00
         -2   -1    0    0    0  501 -0.00000000000E+00  0.00000000000E+00  0.21681173341E+03  0.21681173341E+03  0.00000000000E+00 0.  1.
          2   -1    0    0  501    0  0.00000000000E+00 -0.00000000000E+00 -0.28179589412E+04  0.28179589412E+04  0.00000000000E+00 0. -1.
         23    2    1    2    0    0 -0.80384507453E+02 -0.37357934949E+03 -0.67420231809E+02  0.40307880577E+03  0.10910470475E+03 0.  0.
    5000000    2    1    2    0    0  0.80384507453E+02  0.37357934949E+03 -0.25337269760E+04  0.26316918689E+04  0.60000542019E+03 0.  0.
         23    2    4    4    0    0 -0.23232175164E+03  0.96425961136E+02 -0.12598338753E+04  0.12879133907E+04  0.90929348681E+02 0.  0.
         23    2    4    4    0    0  0.31270625909E+03  0.27715338836E+03 -0.12738931008E+04  0.13437784781E+04  0.91311341281E+02 0.  0.
          1    1    3    3  502    0 -0.21843638830E+02 -0.93374201953E+01 -0.20142145384E+02  0.31145432955E+02  0.00000000000E+00 0. -1.
         -1    1    3    3    0  502 -0.58540868623E+02 -0.36424192930E+03 -0.47278086425E+02  0.37193337282E+03  0.00000000000E+00 0.  1.
         13    1    5    5    0    0 -0.16493240325E+03  0.11045882644E+03 -0.95269503403E+03  0.97315552603E+03  0.00000000000E+00 0.  1.
        -13    1    5    5    0    0 -0.67389348391E+02 -0.14032865302E+02 -0.30713884125E+03  0.31475786469E+03  0.00000000000E+00 0. -1.
          4    1    6    6  503    0  0.20778465725E+03  0.13236763184E+03 -0.66474927423E+03  0.70893388362E+03  0.00000000000E+00 0. -1.
         -4    1    6    6    0  503  0.10492160184E+03  0.14478575651E+03 -0.60914382652E+03  0.63484459453E+03  0.00000000000E+00 0.  1.
<mgrwt>
<rscale>  0 0.54259071E+03</rscale>
<asrwt>0</asrwt>
<pdfrwt beam="1">  1        2 0.43353211E+00 0.54259071E+03</pdfrwt>
<pdfrwt beam="2">  1       -2 0.33355654E-01 0.54259071E+03</pdfrwt>
<totfact> 0.20760426E+01</totfact>
</mgrwt>
</event>
<event>
12    1  0.1335216E-007  0.6556205E+03  0.7818608E-02  0.9796289E-01
          4   -1    0    0  501    0  0.00000000000E+00  0.00000000000E+00  0.74904115828E+03  0.74904115828E+03  0.00000000000E+00 0. -1.
         -4   -1    0    0    0  501 -0.00000000000E+00 -0.00000000000E+00 -0.66078258286E+03  0.66078258286E+03  0.00000000000E+00 0.  1.
         23    2    1    2    0    0 -0.54925307759E+03  0.74346928999E+02 -0.99804202774E+02  0.57163334776E+03  0.97966301823E+02 0.  0.
    5000000    2    1    2    0    0  0.54925307759E+03 -0.74346928999E+02  0.18806277819E+03  0.83819039339E+03  0.59999093154E+03 0.  0.
         23    2    4    4    0    0  0.21942158947E+02  0.15922881558E+03  0.17550715054E+03  0.25433560948E+03  0.89713813352E+02 0.  0.
         23    2    4    4    0    0  0.52731091864E+03 -0.23357574458E+03  0.12555627655E+02  0.58385478391E+03  0.90079584439E+02 0.  0.
          3    1    3    3  502    0 -0.29293226485E+03  0.20174861343E+02 -0.98308178744E+02  0.30964630601E+03  0.00000000000E+00 0. -1.
         -3    1    3    3    0  502 -0.25632081274E+03  0.54172067656E+02 -0.14960240303E+01  0.26198704175E+03  0.00000000000E+00 0.  1.
         11    1    5    5    0    0 -0.24827282264E+02  0.47202433519E+02  0.19784764864E+02  0.56884976887E+02  0.00000000000E+00 0. -1.
        -11    1    5    5    0    0  0.46769441211E+02  0.11202638207E+03  0.15572238568E+03  0.19745063259E+03  0.00000000000E+00 0.  1.
          3    1    6    6  503    0  0.40768280851E+03 -0.14758536587E+03 -0.15629735970E+02  0.43385596829E+03  0.00000000000E+00 0. -1.
         -3    1    6    6    0  503  0.11962811013E+03 -0.85990378713E+02  0.28185363624E+02  0.14999881562E+03  0.00000000000E+00 0.  1.
<mgrwt>
<rscale>  0 0.65562050E+03</rscale>
<asrwt>0</asrwt>
<pdfrwt beam="1">  1        4 0.11523710E+00 0.65562050E+03</pdfrwt>
<pdfrwt beam="2">  1       -4 0.10165886E+00 0.65562050E+03</pdfrwt>
<totfact> 0.90827581E-01</totfact>
</mgrwt>
</event>
<event>
12    1  0.1335216E-007  0.7603920E+03  0.7818608E-02  0.9619187E-01
          1   -1    0    0  501    0  0.00000000000E+00  0.00000000000E+00  0.69025116767E+03  0.69025116767E+03  0.00000000000E+00 0. -1.
         -1   -1    0    0    0  501 -0.00000000000E+00 -0.00000000000E+00 -0.96935319724E+03  0.96935319724E+03  0.00000000000E+00 0.  1.
         23    2    1    2    0    0 -0.59640961035E+03  0.25055618120E+03  0.16207935318E+03  0.67310021518E+03  0.91166658853E+02 0.  0.
    5000000    2    1    2    0    0  0.59640961035E+03 -0.25055618120E+03 -0.44118138276E+03  0.98650414974E+03  0.60005549885E+03 0.  0.
         23    2    4    4    0    0  0.44840040154E+03 -0.42750583683E+03 -0.25627784669E+03  0.67689227384E+03  0.93170033000E+02 0.  0.
         23    2    4    4    0    0  0.14800920881E+03  0.17694965563E+03 -0.18490353607E+03  0.30961187590E+03  0.91936334102E+02 0.  0.
          3    1    3    3  502    0 -0.77707722199E+02  0.19537690567E+02  0.49629395040E+02  0.94251197839E+02  0.00000000000E+00 0. -1.
         -3    1    3    3    0  502 -0.51870188815E+03  0.23101849063E+03  0.11244995814E+03  0.57884901734E+03  0.00000000000E+00 0.  1.
         11    1    5    5    0    0  0.26765922939E+03 -0.19102007903E+03 -0.13753757078E+03  0.35643613319E+03  0.00000000000E+00 0. -1.
        -11    1    5    5    0    0  0.18074117215E+03 -0.23648575779E+03 -0.11874027591E+03  0.32045614064E+03  0.00000000000E+00 0.  1.
          2    1    6    6  503    0  0.65618623864E+02  0.19167411702E+02 -0.34473698984E+02  0.76561278665E+02  0.00000000000E+00 0. -1.
         -2    1    6    6    0  503  0.82390584946E+02  0.15778224393E+03 -0.15042983708E+03  0.23305059723E+03  0.00000000000E+00 0.  1.
<mgrwt>
<rscale>  0 0.76039195E+03</rscale>
<asrwt>0</asrwt>
<pdfrwt beam="1">  1        1 0.10619249E+00 0.76039195E+03</pdfrwt>
<pdfrwt beam="2">  1       -1 0.14913126E+00 0.76039195E+03</pdfrwt>
<totfact> 0.10152083E+01</totfact>
</mgrwt>
</event>
<event>
12    1  0.1335216E-007  0.1166636E+04  0.7818608E-02  0.9142572E-01
          1   -1    0    0  501    0  0.00000000000E+00  0.00000000000E+00  0.15083195981E+04  0.15083195981E+04  0.00000000000E+00 0. -1.
         -1   -1    0    0    0  501 -0.00000000000E+00 -0.00000000000E+00 -0.98116851970E+03  0.98116851970E+03  0.00000000000E+00 0.  1.
         23    2    1    2    0    0 -0.73763425115E+03  0.81552329192E+03 -0.62080680502E+02  0.11051217157E+04  0.90870608285E+02 0.  0.
    5000000    2    1    2    0    0  0.73763425115E+03 -0.81552329192E+03  0.58923175895E+03  0.13843664022E+04  0.60007811285E+03 0.  0.
         23    2    4    4    0    0  0.81058349578E+03 -0.70293919373E+03  0.57858589219E+03  0.12222583030E+04  0.89356649978E+02 0.  0.
         23    2    4    4    0    0 -0.72949244627E+02 -0.11258409819E+03  0.10645866762E+02  0.16210809916E+03  0.90382132510E+02 0.  0.
          3    1    3    3  502    0 -0.65236569133E+03  0.73166793563E+03 -0.82768139643E+02  0.98375277799E+03  0.00000000000E+00 0.  1.
         -3    1    3    3    0  502 -0.85268559820E+02  0.83855356288E+02  0.20687459141E+02  0.12136893770E+03  0.00000000000E+00 0. -1.
         11    1    5    5    0    0  0.61970023523E+03 -0.55885634064E+03  0.41077445778E+03  0.93009915933E+03  0.00000000000E+00 0. -1.
        -11    1    5    5    0    0  0.19088326054E+03 -0.14408285310E+03  0.16781143440E+03  0.29215914367E+03  0.00000000000E+00 0.  1.
          4    1    6    6  503    0 -0.43328165485E+02 -0.12138131618E+03  0.18556506508E+02  0.13021174208E+03  0.00000000000E+00 0.  1.
         -4    1    6    6    0  503 -0.29621079142E+02  0.87972179879E+01 -0.79106397460E+01  0.31896357081E+02  0.00000000000E+00 0. -1.
<mgrwt>
<rscale>  0 0.11666364E+04</rscale>
<asrwt>0</asrwt>
<pdfrwt beam="1">  1        1 0.23204917E+00 0.11666364E+04</pdfrwt>
<pdfrwt beam="2">  1       -1 0.15094900E+00 0.11666364E+04</pdfrwt>
<totfact> 0.21804698E+00</totfact>
</mgrwt>
</event>
<event>
12    1  0.1335216E-007  0.5798424E+03  0.7818608E-02  0.9948132E-01
         -2   -1    0    0    0  501 -0.00000000000E+00  0.00000000000E+00  0.28576422248E+03  0.28576422248E+03  0.00000000000E+00 0.  1.
          2   -1    0    0  501    0  0.00000000000E+00 -0.00000000000E+00 -0.20006018270E+04  0.20006018270E+04  0.00000000000E+00 0. -1.
         23    2    1    2    0    0  0.20152392525E+03  0.52584866351E+03 -0.28654022388E+03  0.63795970793E+03  0.88082800093E+02 0.  0.
    5000000    2    1    2    0    0 -0.20152392525E+03 -0.52584866351E+03 -0.14282973806E+04  0.16484063415E+04  0.60006778780E+03 0.  0.
         23    2    4    4    0    0 -0.11018232390E+03 -0.14308104351E+03 -0.11252306864E+04  0.11433803363E+04  0.92531975355E+02 0.  0.
         23    2    4    4    0    0 -0.91341601347E+02 -0.38276762001E+03 -0.30306669424E+03  0.50502600519E+03  0.91364685169E+02 0.  0.
          1    1    3    3  502    0  0.58650492796E+02  0.23716269892E+03 -0.15917558049E+03  0.29158685068E+03  0.00000000000E+00 0.  1.
         -1    1    3    3    0  502  0.14287343245E+03  0.28868596459E+03 -0.12736464339E+03  0.34637285725E+03  0.00000000000E+00 0. -1.
         11    1    5    5    0    0 -0.56847273974E+02 -0.13377251307E+03 -0.90465255065E+03  0.91625484185E+03  0.00000000000E+00 0.  1.
        -11    1    5    5    0    0 -0.53335049927E+02 -0.93085304373E+01 -0.22057813572E+03  0.22712549449E+03  0.00000000000E+00 0. -1.
          1    1    6    6  503    0 -0.36491523902E+02 -0.12374679354E+03 -0.48787138991E+02  0.13793145094E+03  0.00000000000E+00 0. -1.
         -1    1    6    6    0  503 -0.54850077446E+02 -0.25902082647E+03 -0.25427955525E+03  0.36709455424E+03  0.00000000000E+00 0.  1.
<mgrwt>
<rscale>  0 0.57984236E+03</rscale>
<asrwt>0</asrwt>
<pdfrwt beam="1">  1        2 0.30778489E+00 0.57984236E+03</pdfrwt>
<pdfrwt beam="2">  1       -2 0.43963728E-01 0.57984236E+03</pdfrwt>
<totfact> 0.34652125E+01</totfact>
</mgrwt>
</event>
<event>
12    1  0.1335216E-007  0.4040678E+03  0.7818608E-02  0.1042380E+00
         -1   -1    0    0    0  501 -0.00000000000E+00  0.00000000000E+00  0.20738068548E+03  0.20738068548E+03  0.00000000000E+00 0.  1.
          1   -1    0    0  501    0  0.00000000000E+00 -0.00000000000E+00 -0.14268790747E+04  0.14268790747E+04  0.00000000000E+00 0. -1.
         23    2    1    2    0    0  0.36075183007E+03 -0.86981157709E+02 -0.46244965137E+03  0.59941991353E+03  0.87959922650E+02 0.  0.
    5000000    2    1    2    0    0 -0.36075183007E+03  0.86981157709E+02 -0.75704873788E+03  0.10348398467E+04  0.60005259105E+03 0.  0.
         23    2    4    4    0    0 -0.34945994227E+02  0.21195478940E+02  0.76867551905E+02  0.13212780132E+03  0.99391470997E+02 0.  0.
         23    2    4    4    0    0 -0.32580583585E+03  0.65785678769E+02 -0.83391628978E+03  0.90271204534E+03  0.94844400137E+02 0.  0.
          3    1    3    3  502    0  0.18524318502E+03  0.54221988440E+00 -0.22288100198E+03  0.28981247841E+03  0.00000000000E+00 0. -1.
         -3    1    3    3    0  502  0.17550864505E+03 -0.87523377593E+02 -0.23956864939E+03  0.30960743512E+03  0.00000000000E+00 0.  1.
         11    1    5    5    0    0  0.69550386272E+01 -0.28488401746E+02 -0.26309253108E+01  0.29442883085E+02  0.00000000000E+00 0. -1.
        -11    1    5    5    0    0 -0.41901032854E+02  0.49683880686E+02  0.79498477216E+02  0.10268491824E+03  0.00000000000E+00 0.  1.
          4    1    6    6  503    0 -0.71898373133E+02  0.11633652119E+02 -0.30417984457E+03  0.31277802954E+03  0.00000000000E+00 0. -1.
         -4    1    6    6    0  503 -0.25390746272E+03  0.54152026650E+02 -0.52973644521E+03  0.58993401580E+03  0.00000000000E+00 0.  1.
<mgrwt>
<rscale>  0 0.40406782E+03</rscale>
<asrwt>0</asrwt>
<pdfrwt beam="1">  1        1 0.21951986E+00 0.40406782E+03</pdfrwt>
<pdfrwt beam="2">  1       -1 0.31904721E-01 0.40406782E+03</pdfrwt>
<totfact> 0.72269637E+01</totfact>
</mgrwt>
</event>
<event>
12    1  0.1335216E-007  0.2384392E+04  0.7818608E-02  0.8445370E-01
          2   -1    0    0  501    0  0.00000000000E+00  0.00000000000E+00  0.40380114442E+04  0.40380114442E+04  0.00000000000E+00 0. -1.
         -2   -1    0    0    0  501 -0.00000000000E+00 -0.00000000000E+00 -0.15669283604E+04  0.15669283604E+04  0.00000000000E+00 0.  1.
         23    2    1    2    0    0  0.43381209261E+02  0.23609080260E+04  0.37838484414E+03  0.23932009906E+04  0.92017686964E+02 0.  0.
    5000000    2    1    2    0    0 -0.43381209261E+02 -0.23609080260E+04  0.20926982397E+04  0.32117388140E+04  0.60009303487E+03 0.  0.
         23    2    4    4    0    0 -0.22043391080E+03 -0.17604237416E+04  0.13209812873E+04  0.22139016539E+04  0.93199317070E+02 0.  0.
         23    2    4    4    0    0  0.17705270154E+03 -0.60048428437E+03  0.77171695242E+03  0.99783716012E+03  0.90569909758E+02 0.  0.
          2    1    3    3  502    0 -0.10078486025E+02  0.43942225063E+03  0.39277246527E+02  0.44128923884E+03  0.00000000000E+00 0.  1.
         -2    1    3    3    0  502  0.53459695286E+02  0.19214857754E+04  0.33910759761E+03  0.19519117518E+04  0.00000000000E+00 0. -1.
         11    1    5    5    0    0 -0.13137025119E+03 -0.11788570122E+04  0.93333252293E+03  0.15093281937E+04  0.00000000000E+00 0.  1.
        -11    1    5    5    0    0 -0.89063659612E+02 -0.58156672944E+03  0.38764876433E+03  0.70457346015E+03  0.00000000000E+00 0. -1.
          2    1    6    6  503    0  0.80330472996E+02 -0.13502546555E+03  0.19678143764E+03  0.25180904558E+03  0.00000000000E+00 0. -1.
         -2    1    6    6    0  503  0.96722228547E+02 -0.46545881883E+03  0.57493551478E+03  0.74602811453E+03  0.00000000000E+00 0.  1.
<mgrwt>
<rscale>  0 0.23843923E+04</rscale>
<asrwt>0</asrwt>
<pdfrwt beam="1">  1        2 0.62123253E+00 0.23843923E+04</pdfrwt>
<pdfrwt beam="2">  1       -2 0.24106590E+00 0.23843923E+04</pdfrwt>
<totfact> 0.19886860E-02</totfact>
</mgrwt>
</event>
<event>
12    1  0.1335216E-007  0.1419265E+04  0.7818608E-02  0.8939990E-01
          2   -1    0    0  501    0  0.00000000000E+00  0.00000000000E+00  0.17285485462E+04  0.17285485462E+04  0.00000000000E+00 0. -1.
         -2   -1    0    0    0  501 -0.00000000000E+00 -0.00000000000E+00 -0.14269404355E+04  0.14269404355E+04  0.00000000000E+00 0.  1.
         23    2    1    2    0    0 -0.13741169641E+04  0.21868582251E+03 -0.44847287549E+03  0.14647436516E+04  0.91242122164E+02 0.  0.
    5000000    2    1    2    0    0  0.13741169641E+04 -0.21868582251E+03  0.75008098615E+03  0.16907453301E+04  0.59998113751E+03 0.  0.
         23    2    4    4    0    0  0.54744650186E+02  0.30585629566E+02 -0.53462735220E+02  0.12327507319E+03  0.91684361545E+02 0.  0.
         23    2    4    4    0    0  0.13193723139E+04 -0.24927145208E+03  0.80354372137E+03  0.15674702569E+04  0.91656611957E+02 0.  0.
          1    1    3    3  502    0 -0.23632500254E+03  0.72030467877E+02 -0.87279740223E+02  0.26202222841E+03  0.00000000000E+00 0. -1.
         -1    1    3    3    0  502 -0.11377919616E+04  0.14665535463E+03 -0.36119313527E+03  0.12027214232E+04  0.00000000000E+00 0.  1.
         13    1    5    5    0    0  0.40214356971E+02 -0.20634781156E+02 -0.53494933636E+02  0.70033539284E+02  0.00000000000E+00 0.  1.
        -13    1    5    5    0    0  0.14530293216E+02  0.51220410722E+02  0.32198416278E-01  0.53241533902E+02  0.00000000000E+00 0. -1.
          2    1    6    6  503    0  0.10449659606E+04 -0.15925045741E+03  0.62838534910E+03  0.12297083858E+04  0.00000000000E+00 0. -1.
         -2    1    6    6    0  503  0.27440635329E+03 -0.90020994670E+02  0.17515837227E+03  0.33776187112E+03  0.00000000000E+00 0.  1.
<mgrwt>
<rscale>  0 0.14192651E+04</rscale>
<asrwt>0</asrwt>
<pdfrwt beam="1">  1        2 0.26593054E+00 0.14192651E+04</pdfrwt>
<pdfrwt beam="2">  1       -2 0.21952930E+00 0.14192651E+04</pdfrwt>
<totfact> 0.89109982E-01</totfact>
</mgrwt>
</event>
<event>
12    1  0.1335216E-007  0.5815902E+03  0.7818608E-02  0.9944354E-01
          2   -1    0    0  501    0  0.00000000000E+00  0.00000000000E+00  0.15347171720E+04  0.15347171720E+04  0.00000000000E+00 0. -1.
         -2   -1    0    0    0  501 -0.00000000000E+00 -0.00000000000E+00 -0.22495846017E+03  0.22495846017E+03  0.00000000000E+00 0.  1.
         23    2    1    2    0    0 -0.26431475092E+03  0.33592836004E+03  0.52811190264E+03  0.68553188725E+03  0.91332557660E+02 0.  0.
    5000000    2    1    2    0    0  0.26431475092E+03 -0.33592836004E+03  0.78164680919E+03  0.10741437449E+04  0.60008574372E+03 0.  0.
         23    2    4    4    0    0  0.43281450610E+03 -0.13469337695E+03  0.51403459087E+03  0.69076657961E+03  0.86349316163E+02 0.  0.
         23    2    4    4    0    0 -0.16849975518E+03 -0.20123498309E+03  0.26761221832E+03  0.38337716532E+03  0.80461578271E+02 0.  0.
          3    1    3    3  502    0 -0.21337535576E+03  0.23420694463E+03  0.43706083656E+03  0.53981859010E+03  0.00000000000E+00 0. -1.
         -3    1    3    3    0  502 -0.50939395159E+02  0.10172141541E+03  0.91051066080E+02  0.14571329715E+03  0.00000000000E+00 0.  1.
         13    1    5    5    0    0  0.23916849589E+03 -0.11888934583E+03  0.29198150631E+03  0.39571384358E+03  0.00000000000E+00 0.  1.
        -13    1    5    5    0    0  0.19364601022E+03 -0.15804031126E+02  0.22205308456E+03  0.29505273603E+03  0.00000000000E+00 0. -1.
          1    1    6    6  503    0 -0.16271800324E+03 -0.20682813095E+03  0.24569090987E+03  0.36002645392E+03  0.00000000000E+00 0.  1.
         -1    1    6    6    0  503 -0.57817519437E+01  0.55931478630E+01  0.21921308448E+02  0.23350711394E+02  0.00000000000E+00 0. -1.
<mgrwt>
<rscale>  0 0.58159024E+03</rscale>
<asrwt>0</asrwt>
<pdfrwt beam="1">  1        2 0.23611033E+00 0.58159024E+03</pdfrwt>
<pdfrwt beam="2">  1       -2 0.34608995E-01 0.58159024E+03</pdfrwt>
<totfact> 0.98478886E+01</totfact>
</mgrwt>
</event>
<event>
12    1  0.1335216E-007  0.6134734E+03  0.7818608E-02  0.9877841E-01
         -2   -1    0    0    0  501 -0.00000000000E+00  0.00000000000E+00  0.40931081008E+03  0.40931081008E+03  0.00000000000E+00 0.  1.
          2   -1    0    0  501    0  0.00000000000E+00 -0.00000000000E+00 -0.10588085669E+04  0.10588085669E+04  0.00000000000E+00 0. -1.
         23    2    1    2    0    0  0.47741839042E+03  0.12645303079E+03 -0.42845316042E+03  0.66016477766E+03  0.91250942379E+02 0.  0.
    5000000    2    1    2    0    0 -0.47741839042E+03 -0.12645303079E+03 -0.22104459638E+03  0.80795459929E+03  0.60000936027E+03 0.  0.
         23    2    4    4    0    0  0.75248071972E+01 -0.22443026117E+03 -0.18294021213E+03  0.30360529777E+03  0.91013684513E+02 0.  0.
         23    2    4    4    0    0 -0.48494319762E+03  0.97977230384E+02 -0.38104384253E+02  0.50434930151E+03  0.90259798612E+02 0.  0.
          1    1    3    3  502    0  0.27316937851E+03  0.31425820117E+02 -0.20608222967E+03  0.34362621686E+03  0.00000000000E+00 0. -1.
         -1    1    3    3    0  502  0.20424901191E+03  0.95027210675E+02 -0.22237093075E+03  0.31653856080E+03  0.00000000000E+00 0.  1.
         11    1    5    5    0    0  0.12151164914E+02 -0.13764097768E+03 -0.54529223595E+02  0.14854671242E+03  0.00000000000E+00 0.  1.
        -11    1    5    5    0    0 -0.46263577173E+01 -0.86789283494E+02 -0.12841098853E+03  0.15505858535E+03  0.00000000000E+00 0. -1.
          3    1    6    6  503    0 -0.23889318662E+03  0.61038043542E+01 -0.36213898410E+02  0.24169951899E+03  0.00000000000E+00 0. -1.
         -3    1    6    6    0  503 -0.24605001100E+03  0.91873426030E+02 -0.18904858423E+01  0.26264978253E+03  0.00000000000E+00 0.  1.
<mgrwt>
<rscale>  0 0.61347340E+03</rscale>
<asrwt>0</asrwt>
<pdfrwt beam="1">  1        2 0.16289362E+00 0.61347340E+03</pdfrwt>
<pdfrwt beam="2">  1       -2 0.62970895E-01 0.61347340E+03</pdfrwt>
<totfact> 0.55593616E+01</totfact>
</mgrwt>
</event>
<event>
12    1  0.1335216E-007  0.1219979E+04  0.7818608E-02  0.9095546E-01
          2   -1    0    0  501    0  0.00000000000E+00  0.00000000000E+00  0.27231095242E+04  0.27231095242E+04  0.00000000000E+00 0. -1.
         -2   -1    0    0    0  501 -0.00000000000E+00 -0.00000000000E+00 -0.56895170365E+03  0.56895170365E+03  0.00000000000E+00 0.  1.
         23    2    1    2    0    0 -0.44946272460E+03  0.10779692656E+04  0.11200276839E+04  0.16207045712E+04  0.90481026103E+02 0.  0.
    5000000    2    1    2    0    0  0.44946272460E+03 -0.10779692656E+04  0.10341301367E+04  0.16713566567E+04  0.59997787947E+03 0.  0.
         23    2    4    4    0    0  0.36240688440E+03 -0.27537738482E+03  0.19555901119E+03  0.50377991719E+03  0.91539194759E+02 0.  0.
         23    2    4    4    0    0  0.87055840202E+02 -0.80259188077E+03  0.83857112551E+03  0.11675767395E+04  0.91112368393E+02 0.  0.
          1    1    3    3  502    0 -0.35232921496E+03  0.89774791122E+03  0.96093003185E+03  0.13614234146E+04  0.00000000000E+00 0. -1.
         -1    1    3    3    0  502 -0.97133509641E+02  0.18022135437E+03  0.15909765204E+03  0.25928115657E+03  0.00000000000E+00 0.  1.
         13    1    5    5    0    0  0.20992804827E+03 -0.11220625591E+03  0.12902392836E+03  0.27075303028E+03  0.00000000000E+00 0.  1.
        -13    1    5    5    0    0  0.15247883613E+03 -0.16317112891E+03  0.66535082830E+02  0.23302688692E+03  0.00000000000E+00 0. -1.
          2    1    6    6  503    0 -0.14876211338E+01 -0.23470024243E+03  0.19916074495E+03  0.30781718461E+03  0.00000000000E+00 0. -1.
         -2    1    6    6    0  503  0.88543461336E+02 -0.56789163834E+03  0.63941038056E+03  0.85975955488E+03  0.00000000000E+00 0.  1.
<mgrwt>
<rscale>  0 0.12199794E+04</rscale>
<asrwt>0</asrwt>
<pdfrwt beam="1">  1        2 0.41893992E+00 0.12199794E+04</pdfrwt>
<pdfrwt beam="2">  1       -2 0.87531033E-01 0.12199794E+04</pdfrwt>
<totfact> 0.28569852E+00</totfact>
</mgrwt>
</event>
<event>
12    1  0.1335216E-007  0.8279766E+03  0.7818608E-02  0.9520382E-01
          2   -1    0    0  501    0  0.00000000000E+00  0.00000000000E+00  0.18350700785E+04  0.18350700785E+04  0.00000000000E+00 0. -1.
         -2   -1    0    0    0  501 -0.00000000000E+00 -0.00000000000E+00 -0.11454983493E+04  0.11454983493E+04  0.00000000000E+00 0.  1.
         23    2    1    2    0    0  0.72056801340E+03 -0.19728925899E+02 -0.88673626523E+03  0.11464035829E+04  0.91282409905E+02 0.  0.
    5000000    2    1    2    0    0 -0.72056801340E+03  0.19728925899E+02  0.15763079944E+04  0.18341648449E+04  0.59983855527E+03 0.  0.
         23    2    4    4    0    0 -0.36285575660E+02 -0.18705495491E+03  0.28162808172E+03  0.35250745610E+03  0.92956608368E+02 0.  0.
         23    2    4    4    0    0 -0.68428243774E+03  0.20678388081E+03  0.12946799127E+04  0.14816573887E+04  0.90058388486E+02 0.  0.
          4    1    3    3  502    0  0.49052594990E+03  0.25893344045E+02 -0.57367628506E+03  0.75524211538E+03  0.00000000000E+00 0. -1.
         -4    1    3    3    0  502  0.23004206350E+03 -0.45622269944E+02 -0.31305998017E+03  0.39116146753E+03  0.00000000000E+00 0.  1.
         13    1    5    5    0    0 -0.64763936817E+02 -0.16046073292E+03  0.23078030046E+03  0.28844680862E+03  0.00000000000E+00 0. -1.
        -13    1    5    5    0    0  0.28478361157E+02 -0.26594221987E+02  0.50847781261E+02  0.64060647487E+02  0.00000000000E+00 0.  1.
          4    1    6    6  503    0 -0.44136991399E+03  0.98303849445E+02  0.87089319646E+03  0.98128793299E+03  0.00000000000E+00 0. -1.
         -4    1    6    6    0  503 -0.24291252375E+03  0.10848003136E+03  0.42378671623E+03  0.50036945576E+03  0.00000000000E+00 0.  1.
<mgrwt>
<rscale>  0 0.82797660E+03</rscale>
<asrwt>0</asrwt>
<pdfrwt beam="1">  1        2 0.28231847E+00 0.82797660E+03</pdfrwt>
<pdfrwt beam="2">  1       -2 0.17623051E+00 0.82797660E+03</pdfrwt>
<totfact> 0.16243540E+00</totfact>
</mgrwt>
</event>
<event>
12    1  0.1335216E-007  0.5476822E+03  0.7818608E-02  0.1002032E+00
          2   -1    0    0  501    0  0.00000000000E+00  0.00000000000E+00  0.23284594272E+04  0.23284594272E+04  0.00000000000E+00 0. -1.
         -2   -1    0    0    0  501 -0.00000000000E+00 -0.00000000000E+00 -0.13390448735E+03  0.13390448735E+03  0.00000000000E+00 0.  1.
         23    2    1    2    0    0 -0.37908815494E+03 -0.73546651886E+02  0.65896837118E+03  0.76909955918E+03  0.90320974821E+02 0.  0.
    5000000    2    1    2    0    0  0.37908815494E+03  0.73546651886E+02  0.15355865687E+04  0.16932643553E+04  0.60000094003E+03 0.  0.
         23    2    4    4    0    0 -0.50778567967E+02 -0.17117213139E+03  0.57613232168E+03  0.61006560118E+03  0.91505322939E+02 0.  0.
         23    2    4    4    0    0  0.42986672291E+03  0.24471878328E+03  0.95945424698E+03  0.10831987542E+04  0.89968920439E+02 0.  0.
          4    1    3    3  502    0 -0.23726829388E+03 -0.51859406918E+01  0.35952751190E+03  0.43079365023E+03  0.00000000000E+00 0.  1.
         -4    1    3    3    0  502 -0.14181986106E+03 -0.68360711195E+02  0.29944085928E+03  0.33830590895E+03  0.00000000000E+00 0. -1.
         11    1    5    5    0    0 -0.16754949893E+02 -0.16204800660E+03  0.50608077118E+03  0.53165593362E+03  0.00000000000E+00 0.  1.
        -11    1    5    5    0    0 -0.34023618074E+02 -0.91241247958E+01  0.70051550497E+02  0.78409667562E+02  0.00000000000E+00 0. -1.
          3    1    6    6  503    0  0.23064031811E+03  0.18136788505E+03  0.57841187040E+03  0.64857502101E+03  0.00000000000E+00 0. -1.
         -3    1    6    6    0  503  0.19922640480E+03  0.63350898225E+02  0.38104237658E+03  0.43462373316E+03  0.00000000000E+00 0.  1.
<mgrwt>
<rscale>  0 0.54768223E+03</rscale>
<asrwt>0</asrwt>
<pdfrwt beam="1">  1        2 0.35822450E+00 0.54768223E+03</pdfrwt>
<pdfrwt beam="2">  1       -2 0.20600692E-01 0.54768223E+03</pdfrwt>
<totfact> 0.94017912E+01</totfact>
</mgrwt>
</event>
<event>
12    1  0.1335216E-007  0.1101019E+04  0.7818608E-02  0.9204200E-01
          2   -1    0    0  501    0  0.00000000000E+00  0.00000000000E+00  0.26011701685E+04  0.26011701685E+04  0.00000000000E+00 0. -1.
         -2   -1    0    0    0  501 -0.00000000000E+00 -0.00000000000E+00 -0.66902243947E+03  0.66902243947E+03  0.00000000000E+00 0.  1.
         23    2    1    2    0    0 -0.64013422606E+03  0.80282118382E+03  0.35277692148E+02  0.10314063976E+04  0.90889828488E+02 0.  0.
    5000000    2    1    2    0    0  0.64013422606E+03 -0.80282118382E+03  0.18968700369E+04  0.22387862104E+04  0.59979503028E+03 0.  0.
         23    2    4    4    0    0  0.35061865606E+03 -0.79878421460E+03  0.12899508139E+04  0.15599439712E+04  0.91991453338E+02 0.  0.
         23    2    4    4    0    0  0.28951557000E+03 -0.40369692116E+01  0.60691922299E+03  0.67884223918E+03  0.92953106851E+02 0.  0.
          2    1    3    3  502    0 -0.60118431739E+03  0.74173200608E+03  0.10476658521E+02  0.95482915366E+03  0.00000000000E+00 0. -1.
         -2    1    3    3    0  502 -0.38949908672E+02  0.61089177740E+02  0.24801033627E+02  0.76577243953E+02  0.00000000000E+00 0.  1.
         11    1    5    5    0    0  0.14409429955E+03 -0.33348860332E+03  0.61894740096E+03  0.71768635271E+03  0.00000000000E+00 0.  1.
        -11    1    5    5    0    0  0.20652435651E+03 -0.46529561128E+03  0.67100341293E+03  0.84225761847E+03  0.00000000000E+00 0. -1.
          1    1    6    6  503    0  0.17947817578E+03 -0.45016807755E+02  0.33624607170E+03  0.38379727630E+03  0.00000000000E+00 0. -1.
         -1    1    6    6    0  503  0.11003739421E+03  0.40979838543E+02  0.27067315129E+03  0.29504496288E+03  0.00000000000E+00 0.  1.
<mgrwt>
<rscale>  0 0.11010186E+04</rscale>
<asrwt>0</asrwt>
<pdfrwt beam="1">  1        2 0.40018002E+00 0.11010186E+04</pdfrwt>
<pdfrwt beam="2">  1       -2 0.10292653E+00 0.11010186E+04</pdfrwt>
<totfact> 0.23345606E+00</totfact>
</mgrwt>
</event>
<event>
12    1  0.1335216E-007  0.4879947E+03  0.7818608E-02  0.1016961E+00
          2   -1    0    0  501    0  0.00000000000E+00  0.00000000000E+00  0.45494318377E+03  0.45494318377E+03  0.00000000000E+00 0. -1.
         -2   -1    0    0    0  501 -0.00000000000E+00 -0.00000000000E+00 -0.80276318092E+03  0.80276318092E+03  0.00000000000E+00 0.  1.
         23    2    1    2    0    0  0.39753531015E+03 -0.10604257306E+03 -0.32863840976E+03  0.52990302254E+03  0.59284557892E+02 0.  0.
    5000000    2    1    2    0    0 -0.39753531015E+03  0.10604257306E+03 -0.19181587389E+02  0.72780334216E+03  0.60004201639E+03 0.  0.
         23    2    4    4    0    0 -0.43296008667E+03  0.15109579015E+03  0.17991756643E+03  0.50101630744E+03  0.91447444805E+02 0.  0.
         23    2    4    4    0    0  0.35424776514E+02 -0.45053217090E+02 -0.19909915382E+03  0.22678703472E+03  0.92234369421E+02 0.  0.
          3    1    3    3  502    0  0.32572065015E+02 -0.25733616624E+02 -0.25511925878E+02  0.48723883322E+02  0.00000000000E+00 0. -1.
         -3    1    3    3    0  502  0.36496324514E+03 -0.80308956437E+02 -0.30312648388E+03  0.48117913922E+03  0.00000000000E+00 0.  1.
         13    1    5    5    0    0 -0.60905908056E+02  0.49623913306E+02  0.54020276158E+02  0.95342816426E+02  0.00000000000E+00 0.  1.
        -13    1    5    5    0    0 -0.37205417861E+03  0.10147187685E+03  0.12589729027E+03  0.40567349101E+03  0.00000000000E+00 0. -1.
          3    1    6    6  503    0 -0.24996033725E+02 -0.13809157824E+02 -0.11566902497E+03  0.11914200720E+03  0.00000000000E+00 0. -1.
         -3    1    6    6    0  503  0.60420810239E+02 -0.31244059266E+02 -0.83430128849E+02  0.10764502752E+03  0.00000000000E+00 0.  1.
<mgrwt>
<rscale>  0 0.48799472E+03</rscale>
<asrwt>0</asrwt>
<pdfrwt beam="1">  1        2 0.69991259E-01 0.48799472E+03</pdfrwt>
<pdfrwt beam="2">  1       -2 0.12350203E+00 0.48799472E+03</pdfrwt>
<totfact> 0.35158153E+01</totfact>
</mgrwt>
</event>
<event>
12    1  0.1335216E-007  0.1502269E+04  0.7818608E-02  0.8882945E-01
          2   -1    0    0  501    0  0.00000000000E+00  0.00000000000E+00  0.17303277460E+04  0.17303277460E+04  0.00000000000E+00 0. -1.
         -2   -1    0    0    0  501 -0.00000000000E+00 -0.00000000000E+00 -0.16319073706E+04  0.16319073706E+04  0.00000000000E+00 0.  1.
         23    2    1    2    0    0 -0.81100874843E+03 -0.11981912445E+04  0.78982263321E+03  0.16508281809E+04  0.89534589075E+02 0.  0.
    5000000    2    1    2    0    0  0.81100874843E+03  0.11981912445E+04 -0.69140225780E+03  0.17114069357E+04  0.59789561715E+03 0.  0.
         23    2    4    4    0    0  0.66374715155E+03  0.12193404348E+04 -0.58957213310E+03  0.15109011980E+04  0.88745437678E+02 0.  0.
         23    2    4    4    0    0  0.14726159688E+03 -0.21149190391E+02 -0.10183012471E+03  0.20050573767E+03  0.87749133175E+02 0.  0.
          3    1    3    3  502    0 -0.22778040389E+03 -0.40033625222E+03  0.22684500157E+03  0.51343128262E+03  0.00000000000E+00 0. -1.
         -3    1    3    3    0  502 -0.58322834455E+03 -0.79785499224E+03  0.56297763163E+03  0.11373968983E+04  0.00000000000E+00 0.  1.
         13    1    5    5    0    0  0.59883179476E+03  0.10554598172E+04 -0.49219604727E+03  0.13095235367E+04  0.00000000000E+00 0. -1.
        -13    1    5    5    0    0  0.64915356799E+02  0.16388061760E+03 -0.97376085829E+02  0.20137766129E+03  0.00000000000E+00 0.  1.
          3    1    6    6  503    0  0.13682623933E+03  0.58202004041E+01 -0.10331513767E+03  0.17154973673E+03  0.00000000000E+00 0. -1.
         -3    1    6    6    0  503  0.10435357550E+02 -0.26969390795E+02  0.14850129609E+01  0.28956000942E+02  0.00000000000E+00 0.  1.
<mgrwt>
<rscale>  0 0.15022693E+04</rscale>
<asrwt>0</asrwt>
<pdfrwt beam="1">  1        2 0.26620427E+00 0.15022693E+04</pdfrwt>
<pdfrwt beam="2">  1       -2 0.25106267E+00 0.15022693E+04</pdfrwt>
<totfact> 0.56038036E-01</totfact>
</mgrwt>
</event>
<event>
12    1  0.1335216E-007  0.1026151E+04  0.7818608E-02  0.9280319E-01
          1   -1    0    0  501    0  0.00000000000E+00  0.00000000000E+00  0.53057896080E+03  0.53057896080E+03  0.00000000000E+00 0.  1.
         -1   -1    0    0    0  501 -0.00000000000E+00 -0.00000000000E+00 -0.21048418102E+04  0.21048418102E+04  0.00000000000E+00 0. -1.
         23    2    1    2    0    0  0.85517050849E+03  0.45229402090E+03 -0.80104449958E+03  0.12592518518E+04  0.90313100282E+02 0.  0.
    5000000    2    1    2    0    0 -0.85517050849E+03 -0.45229402090E+03 -0.77321834985E+03  0.13761689192E+04  0.60007316031E+03 0.  0.
         23    2    4    4    0    0 -0.31495188481E+03 -0.42905499029E+03 -0.58581910471E+03  0.79675481554E+03  0.91385656452E+02 0.  0.
         23    2    4    4    0    0 -0.54021862368E+03 -0.23239030606E+02 -0.18739924514E+03  0.57941410367E+03  0.90697367844E+02 0.  0.
          4    1    3    3  502    0  0.62988717971E+03  0.37695582209E+03 -0.60336032915E+03  0.95020904951E+03  0.00000000000E+00 0. -1.
         -4    1    3    3    0  502  0.22528332877E+03  0.75338198806E+02 -0.19768417043E+03  0.30904280232E+03  0.00000000000E+00 0.  1.
         11    1    5    5    0    0 -0.26717597407E+03 -0.34869748751E+03 -0.42795076417E+03  0.61328198692E+03  0.00000000000E+00 0.  1.
        -11    1    5    5    0    0 -0.47775910734E+02 -0.80357502780E+02 -0.15786834054E+03  0.18347282862E+03  0.00000000000E+00 0. -1.
          1    1    6    6  503    0 -0.26104298892E+03 -0.55510095798E+02 -0.80823207392E+02  0.27884978690E+03  0.00000000000E+00 0.  1.
         -1    1    6    6    0  503 -0.27917563476E+03  0.32271065192E+02 -0.10657603775E+03  0.30056431677E+03  0.00000000000E+00 0. -1.
<mgrwt>
<rscale>  0 0.10261508E+04</rscale>
<asrwt>0</asrwt>
<pdfrwt beam="1">  1        1 0.81627534E-01 0.10261508E+04</pdfrwt>
<pdfrwt beam="2">  1       -1 0.32382181E+00 0.10261508E+04</pdfrwt>
<totfact> 0.95588169E-01</totfact>
</mgrwt>
</event>
<event>
12    1  0.1335216E-007  0.4450546E+03  0.7818608E-02  0.1029207E+00
         -2   -1    0    0    0  501 -0.00000000000E+00  0.00000000000E+00  0.92819689056E+02  0.92819689056E+02  0.00000000000E+00 0.  1.
          2   -1    0    0  501    0  0.00000000000E+00 -0.00000000000E+00 -0.29380768260E+04  0.29380768260E+04  0.00000000000E+00 0. -1.
         23    2    1    2    0    0 -0.89585478519E+02  0.25555269350E+03 -0.15687710554E+04  0.15946643211E+04  0.92622543115E+02 0.  0.
    5000000    2    1    2    0    0  0.89585478519E+02 -0.25555269350E+03 -0.12764860816E+04  0.14362321940E+04  0.60001121787E+03 0.  0.
         23    2    4    4    0    0  0.12919815978E+03  0.13245653202E+03 -0.72833358433E+03  0.75715523836E+03  0.92613970580E+02 0.  0.
         23    2    4    4    0    0 -0.39612681265E+02 -0.38800922552E+03 -0.54815249723E+03  0.67907695565E+03  0.92487987688E+02 0.  0.
          3    1    3    3  502    0  0.74932559751E+01  0.94375837814E+02 -0.64658428140E+03  0.65347852345E+03  0.00000000000E+00 0. -1.
         -3    1    3    3    0  502 -0.97078734494E+02  0.16117685569E+03 -0.92218677401E+03  0.94118579763E+03  0.00000000000E+00 0.  1.
         13    1    5    5    0    0  0.10262437620E+03  0.39087998410E+02 -0.39223898857E+03  0.40732181180E+03  0.00000000000E+00 0.  1.
        -13    1    5    5    0    0  0.26573783582E+02  0.93368533609E+02 -0.33609459576E+03  0.34983342656E+03  0.00000000000E+00 0. -1.
          3    1    6    6  503    0  0.12092789656E+02 -0.28379661231E+03 -0.37396168479E+03  0.46961057741E+03  0.00000000000E+00 0.  1.
         -3    1    6    6    0  503 -0.51705470921E+02 -0.10421261321E+03 -0.17419081244E+03  0.20946637824E+03  0.00000000000E+00 0. -1.
<mgrwt>
<rscale>  0 0.44505464E+03</rscale>
<asrwt>0</asrwt>
<pdfrwt beam="1">  1        2 0.45201177E+00 0.44505464E+03</pdfrwt>
<pdfrwt beam="2">  1       -2 0.14279954E-01 0.44505464E+03</pdfrwt>
<totfact> 0.80399503E+01</totfact>
</mgrwt>
</event>
<event>
12    1  0.1335216E-007  0.1488728E+04  0.7818608E-02  0.8891983E-01
          1   -1    0    0  501    0  0.00000000000E+00  0.00000000000E+00  0.15760694978E+04  0.15760694978E+04  0.00000000000E+00 0. -1.
         -1   -1    0    0    0  501 -0.00000000000E+00 -0.00000000000E+00 -0.14659523870E+04  0.14659523870E+04  0.00000000000E+00 0.  1.
         23    2    1    2    0    0  0.94824468701E+03 -0.10797150675E+04  0.30915958370E+03  0.14721289910E+04  0.81434049802E+02 0.  0.
    5000000    2    1    2    0    0 -0.94824468701E+03  0.10797150675E+04 -0.19904247294E+03  0.15698928938E+04  0.59999431551E+03 0.  0.
         23    2    4    4    0    0 -0.23969471962E+03  0.67770312097E+03  0.77536247309E+01  0.72448486013E+03  0.89906145912E+02 0.  0.
         23    2    4    4    0    0 -0.70854996739E+03  0.40201194649E+03 -0.20679609768E+03  0.84540803368E+03  0.91068413763E+02 0.  0.
          3    1    3    3  502    0  0.28226392582E+03 -0.29068923147E+03  0.11850369989E+03  0.42215670076E+03  0.00000000000E+00 0. -1.
         -3    1    3    3    0  502  0.66598076120E+03 -0.78902583600E+03  0.19065588382E+03  0.10499722902E+04  0.00000000000E+00 0.  1.
         11    1    5    5    0    0 -0.62947131708E+02  0.12852737270E+03  0.33539066388E+02  0.14699148240E+03  0.00000000000E+00 0. -1.
        -11    1    5    5    0    0 -0.17674758791E+03  0.54917574828E+03 -0.25785441658E+02  0.57749337774E+03  0.00000000000E+00 0.  1.
          2    1    6    6  503    0 -0.57633921826E+03  0.28402918008E+03 -0.16244450660E+03  0.66274254984E+03  0.00000000000E+00 0. -1.
         -2    1    6    6    0  503 -0.13221074912E+03  0.11798276641E+03 -0.44351591074E+02  0.18266548384E+03  0.00000000000E+00 0.  1.
<mgrwt>
<rscale>  0 0.14887285E+04</rscale>
<asrwt>0</asrwt>
<pdfrwt beam="1">  1        1 0.24247223E+00 0.14887285E+04</pdfrwt>
<pdfrwt beam="2">  1       -1 0.22553113E+00 0.14887285E+04</pdfrwt>
<totfact> 0.55479379E-01</totfact>
</mgrwt>
</event>
<event>
12    1  0.1335216E-007  0.1087844E+04  0.7818608E-02  0.9217121E-01
          2   -1    0    0  501    0  0.00000000000E+00  0.00000000000E+00  0.83345801352E+03  0.83345801352E+03  0.00000000000E+00 0. -1.
         -2   -1    0    0    0  501 -0.00000000000E+00 -0.00000000000E+00 -0.15833269380E+04  0.15833269380E+04  0.00000000000E+00 0.  1.
         23    2    1    2    0    0  0.83364264722E+03  0.60983414341E+03 -0.63692662918E+03  0.12169331684E+04  0.91613643119E+02 0.  0.
    5000000    2    1    2    0    0 -0.83364264722E+03 -0.60983414341E+03 -0.11294229533E+03  0.11998517832E+04  0.60002549431E+03 0.  0.
         23    2    4    4    0    0 -0.42050443046E+03 -0.41316637328E+02  0.12773652322E+03  0.45071218519E+03  0.91070379148E+02 0.  0.
         23    2    4    4    0    0 -0.41313821676E+03 -0.56851750608E+03 -0.24067881855E+03  0.74913959800E+03  0.96894286373E+02 0.  0.
          1    1    3    3  502    0  0.32408974041E+03  0.18454357473E+03 -0.24277632720E+03  0.44500655710E+03  0.00000000000E+00 0. -1.
         -1    1    3    3    0  502  0.50955290680E+03  0.42529056868E+03 -0.39415030197E+03  0.77192661127E+03  0.00000000000E+00 0.  1.
         11    1    5    5    0    0 -0.25885788809E+03 -0.68678239551E+02  0.89429645914E+02  0.28235043542E+03  0.00000000000E+00 0.  1.
        -11    1    5    5    0    0 -0.16164654237E+03  0.27361602223E+02  0.38306877305E+02  0.16836174977E+03  0.00000000000E+00 0. -1.
          4    1    6    6  503    0 -0.34384982100E+03 -0.41573664794E+03 -0.20807146667E+03  0.57824164074E+03  0.00000000000E+00 0. -1.
         -4    1    6    6    0  503 -0.69288395761E+02 -0.15278085814E+03 -0.32607351883E+02  0.17089795727E+03  0.00000000000E+00 0.  1.
<mgrwt>
<rscale>  0 0.10878445E+04</rscale>
<asrwt>0</asrwt>
<pdfrwt beam="1">  1        2 0.12822431E+00 0.10878445E+04</pdfrwt>
<pdfrwt beam="2">  1       -2 0.24358876E+00 0.10878445E+04</pdfrwt>
<totfact> 0.22644590E+00</totfact>
</mgrwt>
</event>
<event>
12    1  0.1335216E-007  0.1923045E+04  0.7818608E-02  0.8643470E-01
         -2   -1    0    0    0  501 -0.00000000000E+00  0.00000000000E+00  0.19172779891E+04  0.19172779891E+04  0.00000000000E+00 0.  1.
          2   -1    0    0  501    0  0.00000000000E+00 -0.00000000000E+00 -0.22285276102E+04  0.22285276102E+04  0.00000000000E+00 0. -1.
         23    2    1    2    0    0  0.19037573367E+04  0.97233256189E+02  0.52516849710E+03  0.19793920418E+04  0.91894511997E+02 0.  0.
    5000000    2    1    2    0    0 -0.19037573367E+04 -0.97233256189E+02 -0.83641811815E+03  0.21664135575E+04  0.60000510873E+03 0.  0.
         23    2    4    4    0    0 -0.16243230148E+04 -0.18252877002E+03 -0.50134959152E+03  0.17121555531E+04  0.91559907690E+02 0.  0.
         23    2    4    4    0    0 -0.27943432191E+03  0.85295513835E+02 -0.33506852663E+03  0.45425800441E+03  0.93383896321E+02 0.  0.
          3    1    3    3  502    0  0.16508249955E+04  0.10800082069E+03  0.47633307936E+03  0.17215634015E+04  0.00000000000E+00 0. -1.
         -3    1    3    3    0  502  0.25293234130E+03 -0.10767564496E+02  0.48835417746E+02  0.25782864027E+03  0.00000000000E+00 0.  1.
         11    1    5    5    0    0 -0.29900805485E+03  0.17776661275E+01 -0.87814228491E+02  0.31164132539E+03  0.00000000000E+00 0.  1.
        -11    1    5    5    0    0 -0.13253149600E+04 -0.18430643615E+03 -0.41353536303E+03  0.14005142277E+04  0.00000000000E+00 0. -1.
          3    1    6    6  503    0 -0.10780760196E+03 -0.42860288532E+01 -0.16162743861E+03  0.19433033215E+03  0.00000000000E+00 0. -1.
         -3    1    6    6    0  503 -0.17162671995E+03  0.89581542688E+02 -0.17344108802E+03  0.25992767226E+03  0.00000000000E+00 0.  1.
<mgrwt>
<rscale>  0 0.19230448E+04</rscale>
<asrwt>0</asrwt>
<pdfrwt beam="1">  1        2 0.34285040E+00 0.19230448E+04</pdfrwt>
<pdfrwt beam="2">  1       -2 0.29496585E+00 0.19230448E+04</pdfrwt>
<totfact> 0.15201637E-01</totfact>
</mgrwt>
</event>
<event>
12    1  0.1335216E-007  0.1058357E+04  0.7818608E-02  0.9246758E-01
          2   -1    0    0  501    0  0.00000000000E+00  0.00000000000E+00  0.18321433548E+04  0.18321433548E+04  0.00000000000E+00 0. -1.
         -2   -1    0    0    0  501 -0.00000000000E+00 -0.00000000000E+00 -0.67240761026E+03  0.67240761026E+03  0.00000000000E+00 0.  1.
         23    2    1    2    0    0  0.99849046275E+03  0.59757601985E+02  0.27722670185E+03  0.10418779740E+04  0.90004962303E+02 0.  0.
    5000000    2    1    2    0    0 -0.99849046275E+03 -0.59757601985E+02  0.88250904268E+03  0.14626729911E+04  0.60002991027E+03 0.  0.
         23    2    4    4    0    0 -0.13621172528E+03  0.15653274201E+03  0.35142446296E+02  0.23111310004E+03  0.95509895057E+02 0.  0.
         23    2    4    4    0    0 -0.86227873747E+03 -0.21629034399E+03  0.84736659638E+03  0.12315598910E+04  0.91670510850E+02 0.  0.
          1    1    3    3  502    0  0.69703810698E+03  0.20707129413E+02  0.22977256276E+03  0.73422499166E+03  0.00000000000E+00 0. -1.
         -1    1    3    3    0  502  0.30145235577E+03  0.39050472572E+02  0.47454139098E+02  0.30765298231E+03  0.00000000000E+00 0.  1.
         13    1    5    5    0    0 -0.14681386204E+03  0.14887059220E+03  0.46031858238E+02  0.21409272589E+03  0.00000000000E+00 0. -1.
        -13    1    5    5    0    0  0.10602136759E+02  0.76621498092E+01 -0.10889411942E+02  0.17020374144E+02  0.00000000000E+00 0.  1.
          4    1    6    6  503    0 -0.53665432353E+03 -0.90900031225E+02  0.53583171994E+03  0.76379075062E+03  0.00000000000E+00 0. -1.
         -4    1    6    6    0  503 -0.32562441394E+03 -0.12539031277E+03  0.31153487644E+03  0.46776914042E+03  0.00000000000E+00 0.  1.
<mgrwt>
<rscale>  0 0.10583572E+04</rscale>
<asrwt>0</asrwt>
<pdfrwt beam="1">  1        2 0.28186821E+00 0.10583572E+04</pdfrwt>
<pdfrwt beam="2">  1       -2 0.10344733E+00 0.10583572E+04</pdfrwt>
<totfact> 0.62567237E+00</totfact>
</mgrwt>
</event>
<event>
12    1  0.1335216E-007  0.5235945E+03  0.7818608E-02  0.1007798E+00
          2   -1    0    0  501    0  0.00000000000E+00  0.00000000000E+00  0.19832767132E+03  0.19832767132E+03  0.00000000000E+00 0. -1.
         -2   -1    0    0    0  501 -0.00000000000E+00 -0.00000000000E+00 -0.16810159853E+04  0.16810159853E+04  0.00000000000E+00 0.  1.
         23    2    1    2    0    0 -0.40411323744E+03  0.96709827128E+02 -0.51248131041E+03  0.66527261765E+03  0.85383036546E+02 0.  0.
    5000000    2    1    2    0    0  0.40411323744E+03 -0.96709827128E+02 -0.97020700352E+03  0.12140710389E+04  0.60000546544E+03 0.  0.
         23    2    4    4    0    0 -0.88308610139E+02 -0.60285165973E+02 -0.51665916398E+03  0.53650575669E+03  0.97308906967E+02 0.  0.
         23    2    4    4    0    0  0.49242184758E+03 -0.36424661155E+02 -0.45354783954E+03  0.67756528224E+03  0.97892987692E+02 0.  0.
          4    1    3    3  502    0 -0.11413539539E+03  0.47964913196E+02 -0.10240662351E+03  0.16066934342E+03  0.00000000000E+00 0. -1.
         -4    1    3    3    0  502 -0.28997784205E+03  0.48744913932E+02 -0.41007468690E+03  0.50460327422E+03  0.00000000000E+00 0.  1.
         11    1    5    5    0    0 -0.18802003962E+01  0.18265660888E+02 -0.24147455216E+02  0.30335937675E+02  0.00000000000E+00 0. -1.
        -11    1    5    5    0    0 -0.86428409743E+02 -0.78550826862E+02 -0.49251170876E+03  0.50616981901E+03  0.00000000000E+00 0.  1.
          2    1    6    6  503    0  0.83730460296E+02  0.14464693947E+01 -0.13131291856E+03  0.15574326578E+03  0.00000000000E+00 0. -1.
         -2    1    6    6    0  503  0.40869138728E+03 -0.37871130549E+02 -0.32223492098E+03  0.52182201646E+03  0.00000000000E+00 0.  1.
<mgrwt>
<rscale>  0 0.52359446E+03</rscale>
<asrwt>0</asrwt>
<pdfrwt beam="1">  1        2 0.30511950E-01 0.52359446E+03</pdfrwt>
<pdfrwt beam="2">  1       -2 0.25861784E+00 0.52359446E+03</pdfrwt>
<totfact> 0.10501230E+01</totfact>
</mgrwt>
</event>
<event>
12    1  0.1335216E-007  0.7293870E+03  0.7818608E-02  0.9668256E-01
          1   -1    0    0  501    0  0.00000000000E+00  0.00000000000E+00  0.53818241323E+03  0.53818241323E+03  0.00000000000E+00 0. -1.
         -1   -1    0    0    0  501 -0.00000000000E+00 -0.00000000000E+00 -0.12262912445E+04  0.12262912445E+04  0.00000000000E+00 0.  1.
         23    2    1    2    0    0 -0.37218669813E+03  0.54604570843E+03 -0.54336944234E+03  0.86007705852E+03  0.88279905795E+02 0.  0.
    5000000    2    1    2    0    0  0.37218669813E+03 -0.54604570843E+03 -0.14473938895E+03  0.90439659923E+03  0.60024566973E+03 0.  0.
         23    2    4    4    0    0 -0.28736751872E+02 -0.31211223528E+03  0.13629028660E+03  0.35393790836E+03  0.91962777441E+02 0.  0.
         23    2    4    4    0    0  0.40092345000E+03 -0.23393347314E+03 -0.28102967555E+03  0.55045869087E+03  0.92534367628E+02 0.  0.
          1    1    3    3  502    0 -0.13206922227E+03  0.14111115722E+03 -0.19386009363E+03  0.27374508958E+03  0.00000000000E+00 0. -1.
         -1    1    3    3    0  502 -0.24011747587E+03  0.40493455120E+03 -0.34950934870E+03  0.58633196894E+03  0.00000000000E+00 0.  1.
         11    1    5    5    0    0 -0.52536131991E+02 -0.16097152366E+03  0.10013764090E+03  0.19672169102E+03  0.00000000000E+00 0. -1.
        -11    1    5    5    0    0  0.23799380119E+02 -0.15114071163E+03  0.36152645699E+02  0.15721621734E+03  0.00000000000E+00 0.  1.
          1    1    6    6  503    0  0.32819646079E+03 -0.14858707548E+03 -0.19943518931E+03  0.41178323255E+03  0.00000000000E+00 0. -1.
         -1    1    6    6    0  503  0.72726989210E+02 -0.85346397665E+02 -0.81594486244E+02  0.13867545832E+03  0.00000000000E+00 0.  1.
<mgrwt>
<rscale>  0 0.72938704E+03</rscale>
<asrwt>0</asrwt>
<pdfrwt beam="1">  1        1 0.82797294E-01 0.72938704E+03</pdfrwt>
<pdfrwt beam="2">  1       -1 0.18866019E+00 0.72938704E+03</pdfrwt>
<totfact> 0.74816887E+00</totfact>
</mgrwt>
</event>
<event>
12    1  0.1335216E-007  0.9681286E+03  0.7818608E-02  0.9344208E-01
          1   -1    0    0  501    0  0.00000000000E+00  0.00000000000E+00  0.15366200085E+04  0.15366200085E+04  0.00000000000E+00 0.  1.
         -1   -1    0    0    0  501 -0.00000000000E+00 -0.00000000000E+00 -0.10371679941E+04  0.10371679941E+04  0.00000000000E+00 0. -1.
         23    2    1    2    0    0  0.91724716673E+03  0.92081174266E+02  0.10018572129E+04  0.13645663277E+04  0.92206724282E+02 0.  0.
    5000000    2    1    2    0    0 -0.91724716673E+03 -0.92081174266E+02 -0.50240519850E+03  0.12092216749E+04  0.59998730655E+03 0.  0.
         23    2    4    4    0    0 -0.76510650592E+03 -0.21808863098E+03 -0.18120257098E+03  0.82100548258E+03  0.90912124234E+02 0.  0.
         23    2    4    4    0    0 -0.15214066081E+03  0.12600745672E+03 -0.32120262752E+03  0.38821619231E+03  0.92282307229E+02 0.  0.
          3    1    3    3  502    0  0.16689480594E+03  0.22031635793E+02  0.23807722025E+03  0.29158194737E+03  0.00000000000E+00 0. -1.
         -3    1    3    3    0  502  0.75035236079E+03  0.70049538473E+02  0.76377999268E+03  0.10729843803E+04  0.00000000000E+00 0.  1.
         11    1    5    5    0    0 -0.60891869266E+03 -0.15528774117E+03 -0.17598131936E+03  0.65258385024E+03  0.00000000000E+00 0. -1.
        -11    1    5    5    0    0 -0.15618781326E+03 -0.62800889815E+02 -0.52212516193E+01  0.16842163234E+03  0.00000000000E+00 0.  1.
          3    1    6    6  503    0 -0.11087630169E+03  0.32812934277E+02 -0.18361822135E+03  0.21699284353E+03  0.00000000000E+00 0. -1.
         -3    1    6    6    0  503 -0.41264359121E+02  0.93194522440E+02 -0.13758440617E+03  0.17122334878E+03  0.00000000000E+00 0.  1.
<mgrwt>
<rscale>  0 0.96812864E+03</rscale>
<asrwt>0</asrwt>
<pdfrwt beam="1">  1        1 0.23640308E+00 0.96812864E+03</pdfrwt>
<pdfrwt beam="2">  1       -1 0.15956431E+00 0.96812864E+03</pdfrwt>
<totfact> 0.18364331E+00</totfact>
</mgrwt>
</event>
<event>
12    1  0.1335216E-007  0.9919050E+03  0.7818608E-02  0.9317468E-01
          2   -1    0    0  501    0  0.00000000000E+00  0.00000000000E+00  0.23079635072E+04  0.23079635072E+04  0.00000000000E+00 0. -1.
         -2   -1    0    0    0  501 -0.00000000000E+00 -0.00000000000E+00 -0.46762322171E+03  0.46762322171E+03  0.00000000000E+00 0.  1.
         23    2    1    2    0    0 -0.53303459833E+02 -0.93967665906E+03  0.10138630363E+04  0.13866635625E+04  0.95310528452E+02 0.  0.
    5000000    2    1    2    0    0  0.53303459833E+02  0.93967665906E+03  0.82647724917E+03  0.13889231664E+04  0.60017450487E+03 0.  0.
         23    2    4    4    0    0 -0.12222693716E+03  0.78807422617E+03  0.81022807655E+03  0.11406032033E+04  0.92226467164E+02 0.  0.
         23    2    4    4    0    0  0.17553039699E+03  0.15160243289E+03  0.16249172618E+02  0.24831996307E+03  0.87204073993E+02 0.  0.
          4    1    3    3  502    0  0.59810679949E+01 -0.29740870585E+03  0.26571222784E+03  0.39886175489E+03  0.00000000000E+00 0. -1.
         -4    1    3    3    0  502 -0.59284527828E+02 -0.64226795321E+03  0.74815080845E+03  0.98780180763E+03  0.00000000000E+00 0.  1.
         13    1    5    5    0    0 -0.59465716772E+02  0.36044642828E+03  0.43667840937E+03  0.56933806507E+03  0.00000000000E+00 0. -1.
        -13    1    5    5    0    0 -0.62761220387E+02  0.42762779789E+03  0.37354966719E+03  0.57126513824E+03  0.00000000000E+00 0.  1.
          1    1    6    6  503    0  0.17046422563E+03  0.16014084740E+03  0.58754337791E+01  0.23396081712E+03  0.00000000000E+00 0. -1.
         -1    1    6    6    0  503  0.50661713580E+01 -0.85384145151E+01  0.10373738839E+02  0.14359145941E+02  0.00000000000E+00 0.  1.
<mgrwt>
<rscale>  0 0.99190503E+03</rscale>
<asrwt>0</asrwt>
<pdfrwt beam="1">  1        2 0.35507130E+00 0.99190503E+03</pdfrwt>
<pdfrwt beam="2">  1       -2 0.71942036E-01 0.99190503E+03</pdfrwt>
<totfact> 0.79209852E+00</totfact>
</mgrwt>
</event>
<event>
12    1  0.1335216E-007  0.3659155E+03  0.7818608E-02  0.1056266E+00
         -2   -1    0    0    0  501 -0.00000000000E+00  0.00000000000E+00  0.11361432043E+03  0.11361432043E+03  0.00000000000E+00 0.  1.
          2   -1    0    0  501    0  0.00000000000E+00 -0.00000000000E+00 -0.12553562250E+04  0.12553562250E+04  0.00000000000E+00 0. -1.
         23    2    1    2    0    0 -0.14504017742E+02  0.10242547588E+03 -0.13477291481E+03  0.19221948519E+03  0.89906881151E+02 0.  0.
    5000000    2    1    2    0    0  0.14504017742E+02 -0.10242547588E+03 -0.10069689898E+04  0.11767510603E+04  0.60004597060E+03 0.  0.
         23    2    4    4    0    0 -0.27042005730E+03 -0.10979141344E+03 -0.56429964882E+03  0.64235955898E+03  0.94923903707E+02 0.  0.
         23    2    4    4    0    0  0.28492407504E+03  0.73659375505E+01 -0.44266934097E+03  0.53439150131E+03  0.91554058642E+02 0.  0.
          3    1    3    3  502    0 -0.50685272252E+02  0.45111247862E+02 -0.81244938070E+02  0.10585254588E+03  0.00000000000E+00 0. -1.
         -3    1    3    3    0  502  0.36181254510E+02  0.57314228023E+02 -0.53527976740E+02  0.86366939309E+02  0.00000000000E+00 0.  1.
         13    1    5    5    0    0 -0.26719393276E+03 -0.82846387290E+02 -0.51197304921E+03  0.58341453933E+03  0.00000000000E+00 0.  1.
        -13    1    5    5    0    0 -0.32261245381E+01 -0.26945026146E+02 -0.52326599613E+02  0.58945019642E+02  0.00000000000E+00 0. -1.
          1    1    6    6  503    0  0.22279881329E+03 -0.14967349260E+02 -0.39211759783E+03  0.45124222240E+03  0.00000000000E+00 0. -1.
         -1    1    6    6    0  503  0.62125261751E+02  0.22333286811E+02 -0.50551743138E+02  0.83149278901E+02  0.00000000000E+00 0.  1.
<mgrwt>
<rscale>  0 0.36591552E+03</rscale>
<asrwt>0</asrwt>
<pdfrwt beam="1">  1        2 0.19313175E+00 0.36591552E+03</pdfrwt>
<pdfrwt beam="2">  1       -2 0.17479124E-01 0.36591552E+03</pdfrwt>
<totfact> 0.48974246E+02</totfact>
</mgrwt>
</event>
<event>
12    1  0.1335216E-007  0.9454093E+03  0.7818608E-02  0.9370533E-01
         -1   -1    0    0    0  501 -0.00000000000E+00  0.00000000000E+00  0.42533273318E+03  0.42533273318E+03  0.00000000000E+00 0.  1.
          1   -1    0    0  501    0  0.00000000000E+00 -0.00000000000E+00 -0.26949225347E+04  0.26949225347E+04  0.00000000000E+00 0. -1.
         23    2    1    2    0    0  0.20748857441E+03  0.89417189901E+03 -0.52895123689E+03  0.10632544944E+04  0.90143304676E+02 0.  0.
    5000000    2    1    2    0    0 -0.20748857441E+03 -0.89417189901E+03 -0.17406385646E+04  0.20570007735E+04  0.59902810944E+03 0.  0.
         23    2    4    4    0    0  0.36861808709E+02 -0.55999237276E+02 -0.74522716572E+01  0.11419697520E+03  0.92145023067E+02 0.  0.
         23    2    4    4    0    0 -0.24435038312E+03 -0.83817266174E+03 -0.17331862930E+04  0.19428037983E+04  0.91166615668E+02 0.  0.
          2    1    3    3  502    0  0.61239389543E+02  0.29671458061E+03 -0.12725248737E+03  0.32860766991E+03  0.00000000000E+00 0. -1.
         -2    1    3    3    0  502  0.14624918486E+03  0.59745731840E+03 -0.40169874952E+03  0.73464682450E+03  0.00000000000E+00 0.  1.
         13    1    5    5    0    0 -0.14674121766E+02 -0.37361908001E+02  0.27987284129E+02  0.48933935995E+02  0.00000000000E+00 0. -1.
        -13    1    5    5    0    0  0.51535930475E+02 -0.18637329275E+02 -0.35439555786E+02  0.65263039208E+02  0.00000000000E+00 0.  1.
          1    1    6    6  503    0 -0.11467361587E+03 -0.24332979804E+03 -0.53150582592E+03  0.59569948110E+03  0.00000000000E+00 0. -1.
         -1    1    6    6    0  503 -0.12967676725E+03 -0.59484286370E+03 -0.12016804670E+04  0.13471043172E+04  0.00000000000E+00 0.  1.
<mgrwt>
<rscale>  0 0.94540928E+03</rscale>
<asrwt>0</asrwt>
<pdfrwt beam="1">  1        1 0.41460348E+00 0.94540928E+03</pdfrwt>
<pdfrwt beam="2">  1       -1 0.65435804E-01 0.94540928E+03</pdfrwt>
<totfact> 0.24147661E+00</totfact>
</mgrwt>
</event>
<event>
12    1  0.1335216E-007  0.6888954E+03  0.7818608E-02  0.9736413E-01
         -1   -1    0    0    0  501 -0.00000000000E+00  0.00000000000E+00  0.21501370724E+04  0.21501370724E+04  0.00000000000E+00 0.  1.
          1   -1    0    0  501    0  0.00000000000E+00 -0.00000000000E+00 -0.59033670412E+03  0.59033670412E+03  0.00000000000E+00 0. -1.
         23    2    1    2    0    0 -0.57835774602E+03  0.11795908628E+02 -0.33223331690E+03  0.67304698789E+03  0.89310946732E+02 0.  0.
    5000000    2    1    2    0    0  0.57835774602E+03 -0.11795908628E+02  0.18920336851E+04  0.20674267886E+04  0.59985434454E+03 0.  0.
         23    2    4    4    0    0  0.55015812961E+03  0.18489090895E+03  0.11134102799E+04  0.12587604355E+04  0.89088533126E+02 0.  0.
         23    2    4    4    0    0  0.28199616408E+02 -0.19668681758E+03  0.77862340527E+03  0.80866635315E+03  0.90586648608E+02 0.  0.
          2    1    3    3  502    0 -0.33457687591E+03 -0.29304489485E+02 -0.16201880209E+03  0.37289479914E+03  0.00000000000E+00 0. -1.
         -2    1    3    3    0  502 -0.24378087011E+03  0.41100398113E+02 -0.17021451481E+03  0.30015218874E+03  0.00000000000E+00 0.  1.
         11    1    5    5    0    0  0.24982134138E+03  0.10976383814E+03  0.60174922760E+03  0.66072758054E+03  0.00000000000E+00 0.  1.
        -11    1    5    5    0    0  0.30033678824E+03  0.75127070808E+02  0.51166105227E+03  0.59803285491E+03  0.00000000000E+00 0. -1.
          2    1    6    6  503    0  0.53904959687E+02 -0.12662770295E+03  0.58951008048E+03  0.60536142495E+03  0.00000000000E+00 0. -1.
         -2    1    6    6    0  503 -0.25705343279E+02 -0.70059114632E+02  0.18911332480E+03  0.20330492820E+03  0.00000000000E+00 0.  1.
<mgrwt>
<rscale>  0 0.68889539E+03</rscale>
<asrwt>0</asrwt>
<pdfrwt beam="1">  1        1 0.90821033E-01 0.68889539E+03</pdfrwt>
<pdfrwt beam="2">  1       -1 0.33079031E+00 0.68889539E+03</pdfrwt>
<totfact> 0.78429294E-01</totfact>
</mgrwt>
</event>
<event>
12    1  0.1335216E-007  0.7112077E+03  0.7818608E-02  0.9698255E-01
          2   -1    0    0  501    0  0.00000000000E+00  0.00000000000E+00  0.87019320073E+03  0.87019320073E+03  0.00000000000E+00 0. -1.
         -2   -1    0    0    0  501 -0.00000000000E+00 -0.00000000000E+00 -0.14940988438E+04  0.14940988438E+04  0.00000000000E+00 0.  1.
         23    2    1    2    0    0 -0.66345008268E+03  0.11911332710E+03 -0.11376830588E+04  0.13258677711E+04  0.96169679315E+02 0.  0.
    5000000    2    1    2    0    0  0.66345008268E+03 -0.11911332710E+03  0.51377741572E+03  0.10384242735E+04  0.60000311824E+03 0.  0.
         23    2    4    4    0    0  0.68932646709E+02  0.42072178985E+02  0.38185446656E+03  0.40131082133E+03  0.93358254333E+02 0.  0.
         23    2    4    4    0    0  0.59451743597E+03 -0.16118550609E+03  0.13192294916E+03  0.63711345213E+03  0.95279259665E+02 0.  0.
          1    1    3    3  502    0 -0.22984923133E+03  0.88148032108E+02 -0.41409178183E+03  0.48173929514E+03  0.00000000000E+00 0. -1.
         -1    1    3    3    0  502 -0.43360085135E+03  0.30965294992E+02 -0.72359127698E+03  0.84412847595E+03  0.00000000000E+00 0.  1.
         11    1    5    5    0    0  0.79840576709E+02  0.17530217477E+00  0.26080462415E+03  0.27275190265E+03  0.00000000000E+00 0. -1.
        -11    1    5    5    0    0 -0.10907930000E+02  0.41896876811E+02  0.12104984241E+03  0.12855891868E+03  0.00000000000E+00 0.  1.
          3    1    6    6  503    0  0.22428470999E+03 -0.88441436418E+02  0.90567946336E+02  0.25754236878E+03  0.00000000000E+00 0. -1.
         -3    1    6    6    0  503  0.37023272598E+03 -0.72744069667E+02  0.41355002821E+02  0.37957108335E+03  0.00000000000E+00 0.  1.
<mgrwt>
<rscale>  0 0.71120774E+03</rscale>
<asrwt>0</asrwt>
<pdfrwt beam="1">  1        2 0.13387588E+00 0.71120774E+03</pdfrwt>
<pdfrwt beam="2">  1       -2 0.22986136E+00 0.71120774E+03</pdfrwt>
<totfact> 0.27230970E+00</totfact>
</mgrwt>
</event>
<event>
12    1  0.1335216E-007  0.1059641E+04  0.7818608E-02  0.9245447E-01
          1   -1    0    0  501    0  0.00000000000E+00  0.00000000000E+00  0.20066556268E+04  0.20066556268E+04  0.00000000000E+00 0. -1.
         -1   -1    0    0    0  501 -0.00000000000E+00 -0.00000000000E+00 -0.58206553408E+03  0.58206553408E+03  0.00000000000E+00 0.  1.
         23    2    1    2    0    0  0.97077282128E+03  0.20033844071E+03  0.55249422498E+03  0.11385414057E+04  0.92148263157E+02 0.  0.
    5000000    2    1    2    0    0 -0.97077282128E+03 -0.20033844071E+03  0.87209586777E+03  0.14501797552E+04  0.59994562969E+03 0.  0.
         23    2    4    4    0    0 -0.97531474478E+03 -0.29820284263E+03  0.78540373978E+03  0.12905909388E+04  0.92747776441E+02 0.  0.
         23    2    4    4    0    0  0.45419234969E+01  0.97864401921E+02  0.86692127992E+02  0.15958881648E+03  0.91405662064E+02 0.  0.
          4    1    3    3  502    0  0.24663217865E+03  0.45284204766E+02  0.18634356635E+03  0.31241321270E+03  0.00000000000E+00 0. -1.
         -4    1    3    3    0  502  0.72414064264E+03  0.15505423594E+03  0.36615065863E+03  0.82612819297E+03  0.00000000000E+00 0.  1.
         11    1    5    5    0    0 -0.40113594818E+03 -0.92833309817E+02  0.36162047866E+03  0.54799401723E+03  0.00000000000E+00 0.  1.
        -11    1    5    5    0    0 -0.57417879660E+03 -0.20536953281E+03  0.42378326112E+03  0.74259692154E+03  0.00000000000E+00 0. -1.
          4    1    6    6  503    0 -0.13022363540E+02  0.81142617432E+02  0.10194125249E+03  0.13094168654E+03  0.00000000000E+00 0. -1.
         -4    1    6    6    0  503  0.17564287037E+02  0.16721784490E+02 -0.15249124498E+02  0.28647129937E+02  0.00000000000E+00 0.  1.
<mgrwt>
<rscale>  0 0.10596407E+04</rscale>
<asrwt>0</asrwt>
<pdfrwt beam="1">  1        1 0.30871625E+00 0.10596407E+04</pdfrwt>
<pdfrwt beam="2">  1       -1 0.89548545E-01 0.10596407E+04</pdfrwt>
<totfact> 0.36148875E+00</totfact>
</mgrwt>
</event>
<event>
12    1  0.1335216E-007  0.9821733E+03  0.7818608E-02  0.9328316E-01
         -2   -1    0    0    0  501 -0.00000000000E+00  0.00000000000E+00  0.10655811140E+04  0.10655811140E+04  0.00000000000E+00 0.  1.
          2   -1    0    0  501    0  0.00000000000E+00 -0.00000000000E+00 -0.13238805090E+04  0.13238805090E+04  0.00000000000E+00 0. -1.
         23    2    1    2    0    0 -0.66819876059E+02 -0.91067266651E+03  0.51371576163E+03  0.10516401620E+04  0.90849024275E+02 0.  0.
    5000000    2    1    2    0    0  0.66819876059E+02  0.91067266651E+03 -0.77201515662E+03  0.13378214610E+04  0.59997438116E+03 0.  0.
         23    2    4    4    0    0  0.24236754898E+03  0.23044541497E+03 -0.97680034803E+02  0.35976460034E+03  0.89677535547E+02 0.  0.
         23    2    4    4    0    0 -0.17554767292E+03  0.68022725154E+03 -0.67433512182E+03  0.97805686064E+03  0.91330536626E+02 0.  0.
          2    1    3    3  502    0 -0.38941037247E+02 -0.84377914692E+03  0.48209596826E+03  0.97257193861E+03  0.00000000000E+00 0. -1.
         -2    1    3    3    0  502 -0.27878838812E+02 -0.66893519592E+02  0.31619793364E+02  0.79068223385E+02  0.00000000000E+00 0.  1.
         11    1    5    5    0    0  0.18510209665E+03  0.21064146259E+03 -0.55285376480E+02  0.28581302419E+03  0.00000000000E+00 0.  1.
        -11    1    5    5    0    0  0.57265452330E+02  0.19803952376E+02 -0.42394658323E+02  0.73951576146E+02  0.00000000000E+00 0. -1.
          2    1    6    6  503    0 -0.12152646516E+03  0.32691210393E+03 -0.37187712380E+03  0.50983605270E+03  0.00000000000E+00 0. -1.
         -2    1    6    6    0  503 -0.54021207759E+02  0.35331514762E+03 -0.30245799802E+03  0.46822080794E+03  0.00000000000E+00 0.  1.
<mgrwt>
<rscale>  0 0.98217334E+03</rscale>
<asrwt>0</asrwt>
<pdfrwt beam="1">  1        2 0.20367392E+00 0.98217334E+03</pdfrwt>
<pdfrwt beam="2">  1       -2 0.16393556E+00 0.98217334E+03</pdfrwt>
<totfact> 0.37493140E+00</totfact>
</mgrwt>
</event>
<event>
12    1  0.1335216E-007  0.1655954E+04  0.7818608E-02  0.8786892E-01
         -2   -1    0    0    0  501 -0.00000000000E+00  0.00000000000E+00  0.16652838210E+04  0.16652838210E+04  0.00000000000E+00 0. -1.
          2   -1    0    0  501    0  0.00000000000E+00 -0.00000000000E+00 -0.16716091488E+04  0.16716091488E+04  0.00000000000E+00 0.  1.
         23    2    1    2    0    0 -0.86679893333E+03 -0.13596874334E+04 -0.53280855376E+02  0.16158914890E+04  0.90422051513E+02 0.  0.
    5000000    2    1    2    0    0  0.86679893333E+03  0.13596874334E+04  0.46955527657E+02  0.17210014808E+04  0.59962569000E+03 0.  0.
         23    2    4    4    0    0  0.72363734928E+03  0.64882531104E+03 -0.76165898964E+02  0.97907952720E+03  0.90389041946E+02 0.  0.
         23    2    4    4    0    0  0.14316158405E+03  0.71086212232E+03  0.12312142662E+03  0.74192195361E+03  0.97309318414E+02 0.  0.
          3    1    3    3  502    0 -0.84214904225E+03 -0.12898468898E+04 -0.59423590532E+02  0.15415742510E+04  0.00000000000E+00 0. -1.
         -3    1    3    3    0  502 -0.24649891080E+02 -0.69840543613E+02  0.61427351566E+01  0.74317237958E+02  0.00000000000E+00 0.  1.
         11    1    5    5    0    0  0.35061013171E+03  0.29653180185E+03 -0.79247984497E+02  0.46598156296E+03  0.00000000000E+00 0. -1.
        -11    1    5    5    0    0  0.37302721757E+03  0.35229350919E+03  0.30820855334E+01  0.51309796424E+03  0.00000000000E+00 0.  1.
          3    1    6    6  503    0  0.27750701761E+02  0.13869890296E+03  0.63985556870E+02  0.15524702451E+03  0.00000000000E+00 0. -1.
         -3    1    6    6    0  503  0.11541088229E+03  0.57216321937E+03  0.59135869750E+02  0.58667492910E+03  0.00000000000E+00 0.  1.
<mgrwt>
<rscale>  0 0.16559541E+04</rscale>
<asrwt>0</asrwt>
<pdfrwt beam="1">  1        2 0.25717064E+00 0.16559541E+04</pdfrwt>
<pdfrwt beam="2">  1       -2 0.25619751E+00 0.16559541E+04</pdfrwt>
<totfact> 0.55376637E-01</totfact>
</mgrwt>
</event>
<event>
12    1  0.1335216E-007  0.7162784E+03  0.7818608E-02  0.9689792E-01
          1   -1    0    0  501    0  0.00000000000E+00  0.00000000000E+00  0.44093140882E+03  0.44093140882E+03  0.00000000000E+00 0. -1.
         -1   -1    0    0    0  501 -0.00000000000E+00 -0.00000000000E+00 -0.13326589007E+04  0.13326589007E+04  0.00000000000E+00 0.  1.
         23    2    1    2    0    0  0.12521777256E+03 -0.58836981888E+03 -0.64954956964E+03  0.89002756987E+03  0.91519928830E+02 0.  0.
    5000000    2    1    2    0    0 -0.12521777256E+03  0.58836981888E+03 -0.24217792226E+03  0.88356273966E+03  0.60014534453E+03 0.  0.
         23    2    4    4    0    0  0.19874470666E+03  0.86359336801E+02 -0.13098201511E+03  0.26971724019E+03  0.92917748004E+02 0.  0.
         23    2    4    4    0    0 -0.32396247922E+03  0.50201048208E+03 -0.11119590714E+03  0.61384549947E+03  0.86461294209E+02 0.  0.
          4    1    3    3  502    0  0.84935711810E+02 -0.19372837964E+03 -0.21389621739E+03  0.30082611594E+03  0.00000000000E+00 0. -1.
         -4    1    3    3    0  502  0.40282060751E+02 -0.39464143924E+03 -0.43565335225E+03  0.58920145392E+03  0.00000000000E+00 0.  1.
         13    1    5    5    0    0  0.18082634341E+03  0.91261459287E+02 -0.14268479529E+03  0.24776152088E+03  0.00000000000E+00 0. -1.
        -13    1    5    5    0    0  0.17918363253E+02 -0.49021224858E+01  0.11702780178E+02  0.21955719310E+02  0.00000000000E+00 0.  1.
          4    1    6    6  503    0 -0.32334482620E+03  0.50527841394E+03 -0.11237563990E+03  0.61031666917E+03  0.00000000000E+00 0. -1.
         -4    1    6    6    0  503 -0.61765302251E+00 -0.32679318630E+01  0.11797327561E+01  0.35288303010E+01  0.00000000000E+00 0.  1.
<mgrwt>
<rscale>  0 0.71627836E+03</rscale>
<asrwt>0</asrwt>
<pdfrwt beam="1">  1        1 0.67835601E-01 0.71627836E+03</pdfrwt>
<pdfrwt beam="2">  1       -1 0.20502445E+00 0.71627836E+03</pdfrwt>
<totfact> 0.75959077E+00</totfact>
</mgrwt>
</event>
<event>
12    1  0.1335216E-007  0.1432928E+04  0.7818608E-02  0.8930322E-01
          2   -1    0    0  501    0  0.00000000000E+00  0.00000000000E+00  0.37710661484E+04  0.37710661484E+04  0.00000000000E+00 0.  1.
         -2   -1    0    0    0  501 -0.00000000000E+00 -0.00000000000E+00 -0.55577938974E+03  0.55577938974E+03  0.00000000000E+00 0. -1.
         23    2    1    2    0    0  0.13665219955E+04  0.21639289315E+03  0.15004097245E+04  0.20431987983E+04  0.96040300771E+02 0.  0.
    5000000    2    1    2    0    0 -0.13665219955E+04 -0.21639289315E+03  0.17148770342E+04  0.22836467399E+04  0.60002578431E+03 0.  0.
         23    2    4    4    0    0 -0.11468812680E+02 -0.85361618913E+02  0.26268172133E+03  0.29099781140E+03  0.90883991306E+02 0.  0.
         23    2    4    4    0    0 -0.13550531829E+04 -0.13103127424E+03  0.14521953128E+04  0.19926489285E+04  0.91870574089E+02 0.  0.
          3    1    3    3  502    0  0.65673975330E+02 -0.92112414060E+01  0.81059201987E+02  0.10473066519E+03  0.00000000000E+00 0. -1.
         -3    1    3    3    0  502  0.13008480202E+04  0.22560413456E+03  0.14193505225E+04  0.19384681331E+04  0.00000000000E+00 0.  1.
         13    1    5    5    0    0 -0.28185482316E+02 -0.92485946888E+02  0.16175494031E+03  0.18844822233E+03  0.00000000000E+00 0.  1.
        -13    1    5    5    0    0  0.16716669636E+02  0.71243279750E+01  0.10092678102E+03  0.10254958907E+03  0.00000000000E+00 0. -1.
          1    1    6    6  503    0 -0.15025800801E+03  0.14067933646E+02  0.15512289397E+03  0.21642201358E+03  0.00000000000E+00 0. -1.
         -1    1    6    6    0  503 -0.12047951748E+04 -0.14509920789E+03  0.12970724189E+04  0.17762269149E+04  0.00000000000E+00 0.  1.
<mgrwt>
<rscale>  0 0.14329281E+04</rscale>
<asrwt>0</asrwt>
<pdfrwt beam="1">  1        2 0.58016401E+00 0.14329281E+04</pdfrwt>
<pdfrwt beam="2">  1       -2 0.85504524E-01 0.14329281E+04</pdfrwt>
<totfact> 0.60009959E-01</totfact>
</mgrwt>
</event>
<event>
12    1  0.1335216E-007  0.4270880E+03  0.7818608E-02  0.1034784E+00
          1   -1    0    0  501    0  0.00000000000E+00  0.00000000000E+00  0.16107800785E+04  0.16107800785E+04  0.00000000000E+00 0. -1.
         -1   -1    0    0    0  501 -0.00000000000E+00 -0.00000000000E+00 -0.24645829714E+03  0.24645829714E+03  0.00000000000E+00 0.  1.
         23    2    1    2    0    0  0.11411001026E+03  0.29726422715E+03 -0.17441724913E+01  0.33161402057E+03  0.92615880455E+02 0.  0.
    5000000    2    1    2    0    0 -0.11411001026E+03 -0.29726422715E+03  0.13660659538E+04  0.15256243550E+04  0.60000530609E+03 0.  0.
         23    2    4    4    0    0 -0.77651266931E+02 -0.38548921424E+03  0.46735397344E+03  0.61736850610E+03  0.89958225193E+02 0.  0.
         23    2    4    4    0    0 -0.36458743324E+02  0.88224987087E+02  0.89871198037E+03  0.90825584894E+03  0.90180791514E+02 0.  0.
          1    1    3    3  502    0  0.12644458269E+03  0.23481449282E+03 -0.12814371162E+02  0.26700240943E+03  0.00000000000E+00 0. -1.
         -1    1    3    3    0  502 -0.12334572438E+02  0.62449734333E+02  0.11070198671E+02  0.64611611140E+02  0.00000000000E+00 0.  1.
         11    1    5    5    0    0 -0.11043462199E+02 -0.19074430389E+03  0.28044684421E+03  0.33934610643E+03  0.00000000000E+00 0. -1.
        -11    1    5    5    0    0 -0.66607804732E+02 -0.19474491035E+03  0.18690712923E+03  0.27802239967E+03  0.00000000000E+00 0.  1.
          1    1    6    6  503    0 -0.33920898851E+02 -0.44671790108E+01  0.15167683026E+03  0.15548776127E+03  0.00000000000E+00 0. -1.
         -1    1    6    6    0  503 -0.25378444726E+01  0.92692166098E+02  0.74703515012E+03  0.75276808767E+03  0.00000000000E+00 0.  1.
<mgrwt>
<rscale>  0 0.42708804E+03</rscale>
<asrwt>0</asrwt>
<pdfrwt beam="1">  1        1 0.24781231E+00 0.42708804E+03</pdfrwt>
<pdfrwt beam="2">  1       -1 0.37916662E-01 0.42708804E+03</pdfrwt>
<totfact> 0.39948355E+01</totfact>
</mgrwt>
</event>
<event>
12    1  0.1335216E-007  0.6252633E+03  0.7818608E-02  0.9854336E-01
          2   -1    0    0  501    0  0.00000000000E+00  0.00000000000E+00  0.21599503583E+03  0.21599503583E+03  0.00000000000E+00 0. -1.
         -2   -1    0    0    0  501 -0.00000000000E+00 -0.00000000000E+00 -0.23672011479E+04  0.23672011479E+04  0.00000000000E+00 0.  1.
         23    2    1    2    0    0 -0.40597677302E+03 -0.29563611534E+03 -0.14331207464E+04  0.15213235386E+04  0.91500723414E+02 0.  0.
    5000000    2    1    2    0    0  0.40597677302E+03  0.29563611534E+03 -0.71808536569E+03  0.10618726452E+04  0.59975750867E+03 0.  0.
         23    2    4    4    0    0  0.28639792402E+03  0.45606317182E+03 -0.40872584847E+03  0.68257484221E+03  0.93990469969E+02 0.  0.
         23    2    4    4    0    0  0.11957884900E+03 -0.16042705647E+03 -0.30935951723E+03  0.37929780296E+03  0.90153041284E+02 0.  0.
          4    1    3    3  502    0 -0.28090600055E+03 -0.23897619251E+03 -0.95023668316E+03  0.10192975796E+04  0.00000000000E+00 0. -1.
         -4    1    3    3    0  502 -0.12507077247E+03 -0.56659922828E+02 -0.48288406325E+03  0.50202595901E+03  0.00000000000E+00 0.  1.
         11    1    5    5    0    0  0.19640816022E+03  0.28568447106E+03 -0.31451028140E+03  0.46809026855E+03  0.00000000000E+00 0. -1.
        -11    1    5    5    0    0  0.89989763796E+02  0.17037870076E+03 -0.94215567063E+02  0.21448457366E+03  0.00000000000E+00 0.  1.
          3    1    6    6  503    0  0.58581564248E+02 -0.42831268232E+02 -0.18027092226E+03  0.19432941779E+03  0.00000000000E+00 0. -1.
         -3    1    6    6    0  503  0.60997284750E+02 -0.11759578824E+03 -0.12908859497E+03  0.18496838516E+03  0.00000000000E+00 0.  1.
<mgrwt>
<rscale>  0 0.62526334E+03</rscale>
<asrwt>0</asrwt>
<pdfrwt beam="1">  1        2 0.33230006E-01 0.62526334E+03</pdfrwt>
<pdfrwt beam="2">  1       -2 0.36418479E+00 0.62526334E+03</pdfrwt>
<totfact> 0.21588720E+00</totfact>
</mgrwt>
</event>
<event>
12    1  0.1335216E-007  0.4644093E+03  0.7818608E-02  0.1023510E+00
         -1   -1    0    0    0  501 -0.00000000000E+00  0.00000000000E+00  0.11752816688E+04  0.11752816688E+04  0.00000000000E+00 0.  1.
          1   -1    0    0  501    0  0.00000000000E+00 -0.00000000000E+00 -0.33844805816E+03  0.33844805816E+03  0.00000000000E+00 0. -1.
         23    2    1    2    0    0  0.13478466848E+03 -0.33704577789E+03  0.70731367742E+03  0.80064974250E+03  0.94766073273E+02 0.  0.
    5000000    2    1    2    0    0 -0.13478466848E+03  0.33704577789E+03  0.12951993326E+03  0.71307998450E+03  0.59995073792E+03 0.  0.
         23    2    4    4    0    0  0.13109284383E+03  0.23585861290E+03 -0.13396477049E+03  0.31460394800E+03  0.90633687903E+02 0.  0.
         23    2    4    4    0    0 -0.26587751230E+03  0.10118716499E+03  0.26348470375E+03  0.39847603650E+03  0.91811048615E+02 0.  0.
          3    1    3    3  502    0 -0.23003652594E+01 -0.77678575239E+02  0.20078460203E+03  0.21529911552E+03  0.00000000000E+00 0. -1.
         -3    1    3    3    0  502  0.13708503374E+03 -0.25936720265E+03  0.50652907539E+03  0.58535062698E+03  0.00000000000E+00 0.  1.
         13    1    5    5    0    0  0.12070412284E+03  0.23182625455E+03 -0.14502213536E+03  0.29890519787E+03  0.00000000000E+00 0. -1.
        -13    1    5    5    0    0  0.10388720984E+02  0.40323583465E+01  0.11057364874E+02  0.15698750125E+02  0.00000000000E+00 0.  1.
          3    1    6    6  503    0 -0.20264500076E+03  0.86369020407E+02  0.14611927001E+03  0.26433963964E+03  0.00000000000E+00 0. -1.
         -3    1    6    6    0  503 -0.63232511548E+02  0.14818144581E+02  0.11736543374E+03  0.13413639686E+03  0.00000000000E+00 0.  1.
<mgrwt>
<rscale>  0 0.46440925E+03</rscale>
<asrwt>0</asrwt>
<pdfrwt beam="1">  1        1 0.52068932E-01 0.46440925E+03</pdfrwt>
<pdfrwt beam="2">  1       -1 0.18081256E+00 0.46440925E+03</pdfrwt>
<totfact> 0.16427458E+01</totfact>
</mgrwt>
</event>
<event>
12    1  0.1335216E-007  0.6154570E+03  0.7818608E-02  0.9873847E-01
          1   -1    0    0  501    0  0.00000000000E+00  0.00000000000E+00  0.23299209389E+04  0.23299209389E+04  0.00000000000E+00 0. -1.
         -1   -1    0    0    0  501 -0.00000000000E+00 -0.00000000000E+00 -0.19121326357E+03  0.19121326357E+03  0.00000000000E+00 0.  1.
         23    2    1    2    0    0 -0.24593777896E+03 -0.43814683157E+03  0.55459652445E+03  0.75425437927E+03  0.94150552723E+02 0.  0.
    5000000    2    1    2    0    0  0.24593777896E+03  0.43814683157E+03  0.15841111509E+04  0.17668798232E+04  0.59999844512E+03 0.  0.
         23    2    4    4    0    0  0.15777245773E+02  0.48862891992E+03  0.77906149762E+03  0.92346617984E+03  0.82739503097E+02 0.  0.
         23    2    4    4    0    0  0.23016053319E+03 -0.50482088343E+02  0.80504965323E+03  0.84341364334E+03  0.87859645527E+02 0.  0.
          2    1    3    3  502    0 -0.17226573851E+03 -0.24971590849E+03  0.27741057741E+03  0.41108411314E+03  0.00000000000E+00 0. -1.
         -2    1    3    3    0  502 -0.73672040448E+02 -0.18843092308E+03  0.27718594704E+03  0.34317026613E+03  0.00000000000E+00 0.  1.
         11    1    5    5    0    0 -0.65677516781E+00  0.33631716373E+03  0.46325590330E+03  0.57246458223E+03  0.00000000000E+00 0. -1.
        -11    1    5    5    0    0  0.16434020940E+02  0.15231175619E+03  0.31580559433E+03  0.35100159761E+03  0.00000000000E+00 0.  1.
          4    1    6    6  503    0  0.14348603968E+03 -0.34464061053E+02  0.34885624469E+03  0.37878317616E+03  0.00000000000E+00 0. -1.
         -4    1    6    6    0  503  0.86674493508E+02 -0.16018027290E+02  0.45619340855E+03  0.46463046717E+03  0.00000000000E+00 0.  1.
<mgrwt>
<rscale>  0 0.61545701E+03</rscale>
<asrwt>0</asrwt>
<pdfrwt beam="1">  1        1 0.35844935E+00 0.61545701E+03</pdfrwt>
<pdfrwt beam="2">  1       -1 0.29417427E-01 0.61545701E+03</pdfrwt>
<totfact> 0.20026236E+01</totfact>
</mgrwt>
</event>
<event>
12    1  0.1335216E-007  0.4185257E+03  0.7818608E-02  0.1037547E+00
          2   -1    0    0  501    0  0.00000000000E+00  0.00000000000E+00  0.12245907133E+04  0.12245907133E+04  0.00000000000E+00 0. -1.
         -2   -1    0    0    0  501 -0.00000000000E+00 -0.00000000000E+00 -0.22480036136E+03  0.22480036136E+03  0.00000000000E+00 0.  1.
         23    2    1    2    0    0  0.17933229217E+03 -0.15218681702E+03 -0.87891853746E+01  0.25171908854E+03  0.89243215255E+02 0.  0.
    5000000    2    1    2    0    0 -0.17933229217E+03  0.15218681702E+03  0.10085795374E+04  0.11976719862E+04  0.60155183065E+03 0.  0.
         23    2    4    4    0    0  0.97595292555E+01  0.32971724907E+03  0.72644662177E+03  0.80378628216E+03  0.97667703758E+02 0.  0.
         23    2    4    4    0    0 -0.18909182142E+03 -0.17753043205E+03  0.28213291558E+03  0.39388570399E+03  0.90962599570E+02 0.  0.
          3    1    3    3  502    0  0.12250507148E+03 -0.70976610457E+02  0.30961809191E+02  0.14492689674E+03  0.00000000000E+00 0. -1.
         -3    1    3    3    0  502  0.56827220683E+02 -0.81210206561E+02 -0.39750994566E+02  0.10679219180E+03  0.00000000000E+00 0.  1.
         13    1    5    5    0    0  0.15340617701E+02  0.24889841938E+03  0.43624357287E+03  0.50248802234E+03  0.00000000000E+00 0.  1.
        -13    1    5    5    0    0 -0.55810884455E+01  0.80818829696E+02  0.29020304890E+03  0.30129825983E+03  0.00000000000E+00 0. -1.
          3    1    6    6  503    0 -0.70663870715E+02 -0.29953011837E+02  0.13053775362E+03  0.15142876431E+03  0.00000000000E+00 0. -1.
         -3    1    6    6    0  503 -0.11842795071E+03 -0.14757742022E+03  0.15159516197E+03  0.24245693968E+03  0.00000000000E+00 0.  1.
<mgrwt>
<rscale>  0 0.41852573E+03</rscale>
<asrwt>0</asrwt>
<pdfrwt beam="1">  1        2 0.18839857E+00 0.41852573E+03</pdfrwt>
<pdfrwt beam="2">  1       -2 0.34584672E-01 0.41852573E+03</pdfrwt>
<totfact> 0.15013921E+02</totfact>
</mgrwt>
</event>
<event>
12    1  0.1335216E-007  0.9682085E+03  0.7818608E-02  0.9344117E-01
         -2   -1    0    0    0  501 -0.00000000000E+00  0.00000000000E+00  0.76432359946E+03  0.76432359946E+03  0.00000000000E+00 0.  1.
          2   -1    0    0  501    0  0.00000000000E+00 -0.00000000000E+00 -0.13138800882E+04  0.13138800882E+04  0.00000000000E+00 0. -1.
         23    2    1    2    0    0  0.12676570857E+03 -0.89340450791E+03 -0.37148015497E+03  0.97995352258E+03  0.89834521461E+02 0.  0.
    5000000    2    1    2    0    0 -0.12676570857E+03  0.89340450791E+03 -0.17807633374E+03  0.10982501650E+04  0.60016754724E+03 0.  0.
         23    2    4    4    0    0  0.13716892496E+03  0.66393667083E+03 -0.25397254222E+03  0.72962635291E+03  0.90693692207E+02 0.  0.
         23    2    4    4    0    0 -0.26393463353E+03  0.22946783708E+03  0.75896208478E+02  0.36862381214E+03  0.88353276008E+02 0.  0.
          1    1    3    3  502    0  0.50134361553E+02 -0.17851226028E+03 -0.47890807385E+02  0.19150355274E+03  0.00000000000E+00 0. -1.
         -1    1    3    3    0  502  0.76631347018E+02 -0.71489224763E+03 -0.32358934758E+03  0.78844996984E+03  0.00000000000E+00 0.  1.
         13    1    5    5    0    0  0.11447714917E+03  0.36814836694E+03 -0.16969536378E+03  0.42123004908E+03  0.00000000000E+00 0. -1.
        -13    1    5    5    0    0  0.22691775799E+02  0.29578830389E+03 -0.84277178442E+02  0.30839630383E+03  0.00000000000E+00 0.  1.
          2    1    6    6  503    0 -0.15369517298E+03  0.12877074356E+03  0.87701173407E+02  0.21885064865E+03  0.00000000000E+00 0. -1.
         -2    1    6    6    0  503 -0.11023946055E+03  0.10069709352E+03 -0.11804964929E+02  0.14977316349E+03  0.00000000000E+00 0.  1.
<mgrwt>
<rscale>  0 0.96820846E+03</rscale>
<asrwt>0</asrwt>
<pdfrwt beam="1">  1        2 0.20213540E+00 0.96820846E+03</pdfrwt>
<pdfrwt beam="2">  1       -2 0.11758825E+00 0.96820846E+03</pdfrwt>
<totfact> 0.90268836E+00</totfact>
</mgrwt>
</event>
<event>
12    1  0.1335216E-007  0.8049258E+03  0.7818608E-02  0.9552915E-01
         -2   -1    0    0    0  501 -0.00000000000E+00  0.00000000000E+00  0.55748969733E+03  0.55748969733E+03  0.00000000000E+00 0.  1.
          2   -1    0    0  501    0  0.00000000000E+00 -0.00000000000E+00 -0.13679929198E+04  0.13679929198E+04  0.00000000000E+00 0. -1.
         23    2    1    2    0    0  0.65979238882E+03  0.39060946094E+03 -0.32809396045E+03  0.83893431998E+03  0.90903239921E+02 0.  0.
    5000000    2    1    2    0    0 -0.65979238882E+03 -0.39060946094E+03 -0.48240926197E+03  0.10865482971E+04  0.59997229819E+03 0.  0.
         23    2    4    4    0    0 -0.36640721275E+02 -0.14238153753E+03 -0.35873701321E+03  0.39800453528E+03  0.90001782043E+02 0.  0.
         23    2    4    4    0    0 -0.62315166755E+03 -0.24822792340E+03 -0.12367224876E+03  0.68854376183E+03  0.94141298671E+02 0.  0.
          3    1    3    3  502    0  0.16024958242E+03  0.72333917587E+02 -0.40197940415E+02  0.18035520151E+03  0.00000000000E+00 0. -1.
         -3    1    3    3    0  502  0.49954280640E+03  0.31827554335E+03 -0.28789602004E+03  0.65857911847E+03  0.00000000000E+00 0.  1.
         13    1    5    5    0    0  0.90530669130E+01 -0.11251505287E+03 -0.19389409563E+03  0.22435800736E+03  0.00000000000E+00 0. -1.
        -13    1    5    5    0    0 -0.45693788188E+02 -0.29866484661E+02 -0.16484291757E+03  0.17364652792E+03  0.00000000000E+00 0.  1.
          1    1    6    6  503    0 -0.21265735201E+03 -0.12006160638E+03 -0.76585838684E+02  0.25593618224E+03  0.00000000000E+00 0. -1.
         -1    1    6    6    0  503 -0.41049431554E+03 -0.12816631703E+03 -0.47086410073E+02  0.43260757959E+03  0.00000000000E+00 0.  1.
<mgrwt>
<rscale>  0 0.80492576E+03</rscale>
<asrwt>0</asrwt>
<pdfrwt beam="1">  1        2 0.21046045E+00 0.80492576E+03</pdfrwt>
<pdfrwt beam="2">  1       -2 0.85767646E-01 0.80492576E+03</pdfrwt>
<totfact> 0.18094278E+01</totfact>
</mgrwt>
</event>
<event>
12    1  0.1335216E-007  0.1387627E+04  0.7818608E-02  0.8962824E-01
          3   -1    0    0  501    0  0.00000000000E+00  0.00000000000E+00  0.16064563362E+04  0.16064563362E+04  0.00000000000E+00 0. -1.
         -3   -1    0    0    0  501 -0.00000000000E+00 -0.00000000000E+00 -0.16995297123E+04  0.16995297123E+04  0.00000000000E+00 0.  1.
         23    2    1    2    0    0 -0.13175659546E+04 -0.28377167828E+03  0.81140906703E+03  0.15754887236E+04  0.85285602561E+02 0.  0.
    5000000    2    1    2    0    0  0.13175659546E+04  0.28377167828E+03 -0.90448244311E+03  0.17304973249E+04  0.60002174255E+03 0.  0.
         23    2    4    4    0    0  0.85190242290E+03  0.40463832548E+03 -0.77548295992E+03  0.12242457847E+04  0.89073046776E+02 0.  0.
         23    2    4    4    0    0  0.46566353166E+03 -0.12086664720E+03 -0.12899948319E+03  0.50625154018E+03  0.90545481065E+02 0.  0.
          2    1    3    3  502    0 -0.38487524513E+03 -0.64169999900E+02  0.19557211521E+03  0.43645755286E+03  0.00000000000E+00 0.  1.
         -2    1    3    3    0  502 -0.93269070943E+03 -0.21960167838E+03  0.61583695182E+03  0.11390311707E+04  0.00000000000E+00 0. -1.
         11    1    5    5    0    0  0.48507991545E+03  0.19921863355E+03 -0.38605664799E+03  0.65117610812E+03  0.00000000000E+00 0. -1.
        -11    1    5    5    0    0  0.36682250745E+03  0.20541969194E+03 -0.38942631193E+03  0.57306967659E+03  0.00000000000E+00 0.  1.
          1    1    6    6  503    0  0.37791315977E+03 -0.11022024390E+03 -0.69625865338E+02  0.39976820736E+03  0.00000000000E+00 0. -1.
         -1    1    6    6    0  503  0.87750371890E+02 -0.10646403305E+02 -0.59373617853E+02  0.10648333281E+03  0.00000000000E+00 0.  1.
<mgrwt>
<rscale>  0 0.13876269E+04</rscale>
<asrwt>0</asrwt>
<pdfrwt beam="1">  1        3 0.24714713E+00 0.13876269E+04</pdfrwt>
<pdfrwt beam="2">  1       -3 0.26146611E+00 0.13876269E+04</pdfrwt>
<totfact> 0.11669134E-02</totfact>
</mgrwt>
</event>
<event>
12    1  0.1335216E-007  0.6157847E+03  0.7818608E-02  0.9873188E-01
          1   -1    0    0  501    0  0.00000000000E+00  0.00000000000E+00  0.10550892204E+04  0.10550892204E+04  0.00000000000E+00 0. -1.
         -1   -1    0    0    0  501 -0.00000000000E+00 -0.00000000000E+00 -0.52866814633E+03  0.52866814633E+03  0.00000000000E+00 0.  1.
         23    2    1    2    0    0 -0.51338401259E+03  0.19733661057E+03  0.52974052193E+03  0.76946565888E+03  0.94591211858E+02 0.  0.
    5000000    2    1    2    0    0  0.51338401259E+03 -0.19733661057E+03 -0.33194478440E+01  0.81429170787E+03  0.60046239227E+03 0.  0.
         23    2    4    4    0    0  0.57173073657E+03 -0.20443148558E+03  0.14440951456E+03  0.63067187955E+03  0.90689824872E+02 0.  0.
         23    2    4    4    0    0 -0.58346723978E+02  0.70948750074E+01 -0.14772896241E+03  0.18361982832E+03  0.91857049638E+02 0.  0.
          2    1    3    3  502    0 -0.17895835741E+03  0.35931849514E+02  0.13154393616E+03  0.22499110790E+03  0.00000000000E+00 0.  1.
         -2    1    3    3    0  502 -0.33442565518E+03  0.16140476105E+03  0.39819658578E+03  0.54447455097E+03  0.00000000000E+00 0. -1.
         13    1    5    5    0    0  0.41709903154E+03 -0.19026117221E+03  0.10098526657E+03  0.46943470241E+03  0.00000000000E+00 0. -1.
        -13    1    5    5    0    0  0.15463170502E+03 -0.14170313367E+02  0.43424247989E+02  0.16123717714E+03  0.00000000000E+00 0.  1.
          1    1    6    6  503    0 -0.24582027423E+02 -0.95016118907E+01  0.45654770425E+01  0.26746967704E+02  0.00000000000E+00 0. -1.
         -1    1    6    6    0  503 -0.33764696556E+02  0.16596486898E+02 -0.15229443945E+03  0.15687286062E+03  0.00000000000E+00 0.  1.
<mgrwt>
<rscale>  0 0.61578465E+03</rscale>
<asrwt>0</asrwt>
<pdfrwt beam="1">  1        1 0.16232142E+00 0.61578465E+03</pdfrwt>
<pdfrwt beam="2">  1       -1 0.81333561E-01 0.61578465E+03</pdfrwt>
<totfact> 0.21641671E+01</totfact>
</mgrwt>
</event>
<event>
12    1  0.1640158E-007  0.1466280E+04  0.7818608E-02  0.8907191E-01
         -1   -1    0    0    0  501 -0.00000000000E+00  0.00000000000E+00  0.12852075865E+04  0.12852075865E+04  0.00000000000E+00 0.  1.
          1   -1    0    0  501    0  0.00000000000E+00 -0.00000000000E+00 -0.17581715021E+04  0.17581715021E+04  0.00000000000E+00 0. -1.
         23    2    1    2    0    0 -0.71107675411E+03  0.12471721197E+04 -0.93033890145E+02  0.14417369026E+04  0.94241949685E+02 0.  0.
    5000000    2    1    2    0    0  0.71107675411E+03 -0.12471721197E+04 -0.37993002555E+03  0.16016421860E+04  0.59986867015E+03 0.  0.
         23    2    4    4    0    0  0.30706706599E+03 -0.19278966491E+03 -0.27562939150E+03  0.46409518032E+03  0.89189332467E+02 0.  0.
         23    2    4    4    0    0  0.40400968812E+03 -0.10543824548E+04 -0.10430063406E+03  0.11375470057E+04  0.90489662020E+02 0.  0.
          4    1    3    3  502    0 -0.41785459370E+03  0.82398723384E+03 -0.61743467851E+02  0.92594258938E+03  0.00000000000E+00 0. -1.
         -4    1    3    3    0  502 -0.29322216040E+03  0.42318488586E+03 -0.31290422294E+02  0.51579431317E+03  0.00000000000E+00 0.  1.
         11    1    5    5    0    0  0.24169327518E+03 -0.14980016434E+03 -0.16551955380E+03  0.32901740257E+03  0.00000000000E+00 0.  1.
        -11    1    5    5    0    0  0.65373790809E+02 -0.42989500572E+02 -0.11010983769E+03  0.13507777775E+03  0.00000000000E+00 0. -1.
          3    1    6    6  503    0  0.14038913416E+03 -0.28013684670E+03 -0.26299615578E+01  0.31335711029E+03  0.00000000000E+00 0. -1.
         -3    1    6    6    0  503  0.26362055396E+03 -0.77424560808E+03 -0.10167067250E+03  0.82418989544E+03  0.00000000000E+00 0.  1.
<mgrwt>
<rscale>  0 0.14662803E+04</rscale>
<asrwt>0</asrwt>
<pdfrwt beam="1">  1        1 0.27048793E+00 0.14662803E+04</pdfrwt>
<pdfrwt beam="2">  1       -1 0.19772424E+00 0.14662803E+04</pdfrwt>
<totfact> 0.64478679E-01</totfact>
</mgrwt>
</event>
<event>
12    1  0.1335216E-007  0.7394027E+03  0.7818608E-02  0.9652124E-01
         -1   -1    0    0    0  501 -0.00000000000E+00  0.00000000000E+00  0.12527611786E+04  0.12527611786E+04  0.00000000000E+00 0.  1.
          1   -1    0    0  501    0  0.00000000000E+00 -0.00000000000E+00 -0.43996152871E+03  0.43996152871E+03  0.00000000000E+00 0. -1.
         23    2    1    2    0    0 -0.35061620976E+03 -0.50695632952E+03  0.30179355177E+03  0.69221153355E+03  0.90227560708E+02 0.  0.
    5000000    2    1    2    0    0  0.35061620976E+03  0.50695632952E+03  0.51100609814E+03  0.10005111738E+04  0.59996577397E+03 0.  0.
         23    2    4    4    0    0 -0.44126002934E+02  0.43686164148E+03  0.26909244500E+03  0.52326089178E+03  0.92714718262E+02 0.  0.
         23    2    4    4    0    0  0.39474221269E+03  0.70094688041E+02  0.24191365314E+03  0.47725028200E+03  0.92254736016E+02 0.  0.
          4    1    3    3  502    0 -0.18250728683E+03 -0.20963494467E+03  0.99372696379E+02  0.29517901782E+03  0.00000000000E+00 0. -1.
         -4    1    3    3    0  502 -0.16810892293E+03 -0.29732138485E+03  0.20242085539E+03  0.39703251574E+03  0.00000000000E+00 0.  1.
         11    1    5    5    0    0 -0.33625416239E+02  0.45390369906E+02  0.24746211139E+02  0.61671138008E+02  0.00000000000E+00 0. -1.
        -11    1    5    5    0    0 -0.10500586695E+02  0.39147127157E+03  0.24434623386E+03  0.46158975377E+03  0.00000000000E+00 0.  1.
          4    1    6    6  503    0  0.37857105914E+03  0.86324462872E+02  0.22495444888E+03  0.44874543316E+03  0.00000000000E+00 0. -1.
         -4    1    6    6    0  503  0.16171153555E+02 -0.16229774831E+02  0.16959204260E+02  0.28504848842E+02  0.00000000000E+00 0.  1.
<mgrwt>
<rscale>  0 0.73940268E+03</rscale>
<asrwt>0</asrwt>
<pdfrwt beam="1">  1        1 0.67686389E-01 0.73940268E+03</pdfrwt>
<pdfrwt beam="2">  1       -1 0.19273249E+00 0.73940268E+03</pdfrwt>
<totfact> 0.92210556E+00</totfact>
</mgrwt>
</event>
<event>
12    1  0.1335216E-007  0.5604119E+03  0.7818608E-02  0.9991123E-01
          2   -1    0    0  501    0  0.00000000000E+00  0.00000000000E+00  0.20518190568E+04  0.20518190568E+04  0.00000000000E+00 0.  1.
         -2   -1    0    0    0  501 -0.00000000000E+00 -0.00000000000E+00 -0.20063215959E+03  0.20063215959E+03  0.00000000000E+00 0. -1.
         23    2    1    2    0    0 -0.13588765298E+02  0.48498141361E+03  0.54501527880E+03  0.73547421558E+03  0.92135994949E+02 0.  0.
    5000000    2    1    2    0    0  0.13588765298E+02 -0.48498141361E+03  0.13061716184E+04  0.15169770008E+04  0.59978604367E+03 0.  0.
         23    2    4    4    0    0 -0.10756255301E+03 -0.25461774679E-01  0.74966711097E+03  0.76318034681E+03  0.94200642376E+02 0.  0.
         23    2    4    4    0    0  0.12115131831E+03 -0.48495595183E+03  0.55650450745E+03  0.75379665402E+03  0.93017265331E+02 0.  0.
          4    1    3    3  502    0 -0.45467435390E+02  0.18147539916E+03  0.17898868438E+03  0.25891612023E+03  0.00000000000E+00 0. -1.
         -4    1    3    3    0  502  0.31878670092E+02  0.30350601444E+03  0.36602659442E+03  0.47655809534E+03  0.00000000000E+00 0.  1.
         11    1    5    5    0    0 -0.11702877986E+03 -0.64268897553E+01  0.51221310327E+03  0.52545152335E+03  0.00000000000E+00 0.  1.
        -11    1    5    5    0    0  0.94662268445E+01  0.64014279807E+01  0.23745400770E+03  0.23772882346E+03  0.00000000000E+00 0. -1.
          1    1    6    6  503    0  0.58237838090E+02 -0.21582498167E+03  0.31811387899E+03  0.38880394611E+03  0.00000000000E+00 0. -1.
         -1    1    6    6    0  503  0.62913480220E+02 -0.26913097016E+03  0.23839062846E+03  0.36499270791E+03  0.00000000000E+00 0.  1.
<mgrwt>
<rscale>  0 0.56041186E+03</rscale>
<asrwt>0</asrwt>
<pdfrwt beam="1">  1        2 0.31566446E+00 0.56041186E+03</pdfrwt>
<pdfrwt beam="2">  1       -2 0.30866488E-01 0.56041186E+03</pdfrwt>
<totfact> 0.64183229E+01</totfact>
</mgrwt>
</event>
<event>
12    1  0.1335216E-007  0.8885471E+03  0.7818608E-02  0.9440012E-01
         -2   -1    0    0    0  501 -0.00000000000E+00  0.00000000000E+00  0.72809927778E+03  0.72809927778E+03  0.00000000000E+00 0.  1.
          2   -1    0    0  501    0  0.00000000000E+00 -0.00000000000E+00 -0.13508010655E+04  0.13508010655E+04  0.00000000000E+00 0. -1.
         23    2    1    2    0    0  0.77683947704E+03  0.16142817145E+03 -0.72556533731E+03  0.10788325966E+04  0.88859918368E+02 0.  0.
    5000000    2    1    2    0    0 -0.77683947704E+03 -0.16142817145E+03  0.10286354964E+03  0.10000677467E+04  0.60001330023E+03 0.  0.
         23    2    4    4    0    0 -0.59369253617E+03 -0.35746199536E+03  0.18155924948E+01  0.69951491433E+03  0.95225591984E+02 0.  0.
         23    2    4    4    0    0 -0.18314694087E+03  0.19603382391E+03  0.10104795715E+03  0.30055283234E+03  0.90273214833E+02 0.  0.
          1    1    3    3  502    0  0.30556652564E+03  0.19888739930E+02 -0.26950681379E+03  0.40792203452E+03  0.00000000000E+00 0. -1.
         -1    1    3    3    0  502  0.47127295140E+03  0.14153943152E+03 -0.45605852352E+03  0.67091056205E+03  0.00000000000E+00 0.  1.
         13    1    5    5    0    0 -0.13673448974E+03 -0.12040922357E+03 -0.25680452228E+02  0.18399507448E+03  0.00000000000E+00 0.  1.
        -13    1    5    5    0    0 -0.45695804643E+03 -0.23705277179E+03  0.27496044723E+02  0.51551983985E+03  0.00000000000E+00 0. -1.
          3    1    6    6  503    0 -0.14172214970E+03  0.89723668143E+02  0.46345271476E+02  0.17402123011E+03  0.00000000000E+00 0. -1.
         -3    1    6    6    0  503 -0.41424791168E+02  0.10631015577E+03  0.54702685669E+02  0.12653160223E+03  0.00000000000E+00 0.  1.
<mgrwt>
<rscale>  0 0.88854712E+03</rscale>
<asrwt>0</asrwt>
<pdfrwt beam="1">  1        2 0.20781555E+00 0.88854712E+03</pdfrwt>
<pdfrwt beam="2">  1       -2 0.11201527E+00 0.88854712E+03</pdfrwt>
<totfact> 0.97613651E+00</totfact>
</mgrwt>
</event>
<event>
12    1  0.1335216E-007  0.1245251E+04  0.7818608E-02  0.9074145E-01
         -2   -1    0    0    0  501 -0.00000000000E+00  0.00000000000E+00  0.70509156418E+03  0.70509156418E+03  0.00000000000E+00 0.  1.
          2   -1    0    0  501    0  0.00000000000E+00 -0.00000000000E+00 -0.31870047670E+04  0.31870047670E+04  0.00000000000E+00 0. -1.
         23    2    1    2    0    0 -0.80469751385E+03  0.87605369078E+03 -0.22396600182E+04  0.25380918024E+04  0.10404250329E+03 0.  0.
    5000000    2    1    2    0    0  0.80469751385E+03 -0.87605369078E+03 -0.24225318462E+03  0.13540045288E+04  0.59969450599E+03 0.  0.
         23    2    4    4    0    0  0.42416515188E+03 -0.10396455584E+03  0.26721160962E+02  0.44741343126E+03  0.93488251054E+02 0.  0.
         23    2    4    4    0    0  0.38053236197E+03 -0.77208913493E+03 -0.26897434558E+03  0.90659109750E+03  0.92917752316E+02 0.  0.
          1    1    3    3  502    0 -0.54943688601E+03  0.58403014458E+03 -0.14049566984E+04  0.16176759335E+04  0.00000000000E+00 0. -1.
         -1    1    3    3    0  502 -0.25526062784E+03  0.29202354620E+03 -0.83470331982E+03  0.92041586893E+03  0.00000000000E+00 0.  1.
         13    1    5    5    0    0  0.35299849240E+03 -0.72617390447E+02 -0.11899202882E+02  0.36058676079E+03  0.00000000000E+00 0. -1.
        -13    1    5    5    0    0  0.71166659480E+02 -0.31347165398E+02  0.38620363844E+02  0.86826670462E+02  0.00000000000E+00 0.  1.
          3    1    6    6  503    0  0.30997798278E+03 -0.67335912161E+03 -0.25736498480E+03  0.78468821316E+03  0.00000000000E+00 0. -1.
         -3    1    6    6    0  503  0.70554379190E+02 -0.98730013320E+02 -0.11609360783E+02  0.12190288434E+03  0.00000000000E+00 0.  1.
<mgrwt>
<rscale>  0 0.12452508E+04</rscale>
<asrwt>0</asrwt>
<pdfrwt beam="1">  1        2 0.49030843E+00 0.12452508E+04</pdfrwt>
<pdfrwt beam="2">  1       -2 0.10847562E+00 0.12452508E+04</pdfrwt>
<totfact> 0.88658736E-01</totfact>
</mgrwt>
</event>
<event>
12    1  0.1335216E-007  0.3485664E+03  0.7818608E-02  0.1063205E+00
          2   -1    0    0  501    0  0.00000000000E+00  0.00000000000E+00  0.93187138333E+03  0.93187138333E+03  0.00000000000E+00 0.  1.
         -2   -1    0    0    0  501 -0.00000000000E+00 -0.00000000000E+00 -0.29872605105E+03  0.29872605105E+03  0.00000000000E+00 0. -1.
         23    2    1    2    0    0 -0.11601707949E+03  0.11582329359E+03 -0.14262183833E+03  0.23554243748E+03  0.90907937010E+02 0.  0.
    5000000    2    1    2    0    0  0.11601707949E+03 -0.11582329359E+03  0.77576717061E+03  0.99505499691E+03  0.60120274932E+03 0.  0.
         23    2    4    4    0    0  0.18931941192E+03 -0.27674990234E+03  0.70191558733E+03  0.78344085332E+03  0.93068419670E+02 0.  0.
         23    2    4    4    0    0 -0.73302332431E+02  0.16092660874E+03  0.73851583280E+02  0.21161414358E+03  0.89754576873E+02 0.  0.
          3    1    3    3  502    0 -0.10098085743E+03  0.64070596762E+02 -0.13622448961E+03  0.18127130635E+03  0.00000000000E+00 0. -1.
         -3    1    3    3    0  502 -0.15036222060E+02  0.51752696830E+02 -0.63973487229E+01  0.54271131126E+02  0.00000000000E+00 0.  1.
         11    1    5    5    0    0  0.95523286416E+02 -0.14165382752E+03  0.25244913782E+03  0.30482957908E+03  0.00000000000E+00 0.  1.
        -11    1    5    5    0    0  0.93796125507E+02 -0.13509607482E+03  0.44946644951E+03  0.47861127424E+03  0.00000000000E+00 0. -1.
          3    1    6    6  503    0 -0.83822444388E+02  0.12209064038E+03  0.83808014428E+02  0.17016494920E+03  0.00000000000E+00 0. -1.
         -3    1    6    6    0  503  0.10520111958E+02  0.38835968361E+02 -0.99564311482E+01  0.41449194387E+02  0.00000000000E+00 0.  1.
<mgrwt>
<rscale>  0 0.34856641E+03</rscale>
<asrwt>0</asrwt>
<pdfrwt beam="1">  1        2 0.14336483E+00 0.34856641E+03</pdfrwt>
<pdfrwt beam="2">  1       -2 0.45957854E-01 0.34856641E+03</pdfrwt>
<totfact> 0.13164535E+02</totfact>
</mgrwt>
</event>
<event>
12    1  0.1335216E-007  0.1250092E+04  0.7818608E-02  0.9070107E-01
         -2   -1    0    0    0  501 -0.00000000000E+00  0.00000000000E+00  0.10137227278E+04  0.10137227278E+04  0.00000000000E+00 0.  1.
          2   -1    0    0  501    0  0.00000000000E+00 -0.00000000000E+00 -0.18715742819E+04  0.18715742819E+04  0.00000000000E+00 0. -1.
         23    2    1    2    0    0  0.88913889641E+03 -0.85073705518E+03  0.62822742502E+02  0.12354526342E+04  0.89861005496E+02 0.  0.
    5000000    2    1    2    0    0 -0.88913889641E+03  0.85073705518E+03 -0.92067429668E+03  0.16498443755E+04  0.60001982342E+03 0.  0.
         23    2    4    4    0    0 -0.78135136768E+03  0.79202067588E+03 -0.54030323759E+03  0.12400086624E+04  0.88809816790E+02 0.  0.
         23    2    4    4    0    0 -0.10778752872E+03  0.58716379296E+02 -0.38037105909E+03  0.40983571302E+03  0.90649900866E+02 0.  0.
          3    1    3    3  502    0  0.36054961699E+03 -0.39066751244E+03 -0.27755249975E+01  0.53162471267E+03  0.00000000000E+00 0. -1.
         -3    1    3    3    0  502  0.52858927942E+03 -0.46006954274E+03  0.65598267500E+02  0.70382792156E+03  0.00000000000E+00 0.  1.
         11    1    5    5    0    0 -0.31478488832E+03  0.38126268852E+03 -0.24631331191E+03  0.55237759839E+03  0.00000000000E+00 0. -1.
        -11    1    5    5    0    0 -0.46656647936E+03  0.41075798736E+03 -0.29398992568E+03  0.68763106405E+03  0.00000000000E+00 0.  1.
          4    1    6    6  503    0 -0.51212160029E+02  0.76855426629E+02 -0.25175440195E+03  0.26815987925E+03  0.00000000000E+00 0. -1.
         -4    1    6    6    0  503 -0.56575368692E+02 -0.18139047333E+02 -0.12861665714E+03  0.14167583377E+03  0.00000000000E+00 0.  1.
<mgrwt>
<rscale>  0 0.12500922E+04</rscale>
<asrwt>0</asrwt>
<pdfrwt beam="1">  1        2 0.28793450E+00 0.12500922E+04</pdfrwt>
<pdfrwt beam="2">  1       -2 0.15595735E+00 0.12500922E+04</pdfrwt>
<totfact> 0.20559587E+00</totfact>
</mgrwt>
</event>
<event>
12    1  0.1335216E-007  0.6689907E+03  0.7818608E-02  0.9771783E-01
          1   -1    0    0  501    0  0.00000000000E+00  0.00000000000E+00  0.64241584778E+03  0.64241584778E+03  0.00000000000E+00 0. -1.
         -1   -1    0    0    0  501 -0.00000000000E+00 -0.00000000000E+00 -0.34856695402E+04  0.34856695402E+04  0.00000000000E+00 0.  1.
         23    2    1    2    0    0  0.10842906987E+03 -0.53291639574E+03  0.46561568172E+03  0.72154649616E+03  0.89858972903E+02 0.  0.
    5000000    2    1    2    0    0 -0.10842906987E+03  0.53291639574E+03 -0.33088693741E+04  0.34065388918E+04  0.60011160482E+03 0.  0.
         23    2    4    4    0    0  0.23403727863E+03  0.22472651215E+03 -0.12347118946E+04  0.12798370734E+04  0.90520819489E+02 0.  0.
         23    2    4    4    0    0 -0.34246634851E+03  0.30818988359E+03 -0.20741574795E+04  0.21267018184E+04  0.92017227889E+02 0.  0.
          3    1    3    3  502    0  0.37547352981E+02 -0.82180925954E+02  0.44825194584E+02  0.10086033103E+03  0.00000000000E+00 0. -1.
         -3    1    3    3    0  502  0.70881716892E+02 -0.45073546979E+03  0.42079048714E+03  0.62068616513E+03  0.00000000000E+00 0.  1.
         13    1    5    5    0    0  0.81031945129E+02  0.11258512222E+03 -0.66694170600E+03  0.68121422847E+03  0.00000000000E+00 0. -1.
        -13    1    5    5    0    0  0.15300533350E+03  0.11214138993E+03 -0.56777018860E+03  0.59862284494E+03  0.00000000000E+00 0.  1.
          2    1    6    6  503    0 -0.19872680702E+03  0.20835721794E+03 -0.14587022685E+04  0.14868481370E+04  0.00000000000E+00 0. -1.
         -2    1    6    6    0  503 -0.14373954148E+03  0.99832665655E+02 -0.61545521099E+03  0.63985368144E+03  0.00000000000E+00 0.  1.
<mgrwt>
<rscale>  0 0.66899074E+03</rscale>
<asrwt>0</asrwt>
<pdfrwt beam="1">  1        1 0.98833206E-01 0.66899074E+03</pdfrwt>
<pdfrwt beam="2">  1       -1 0.53625686E+00 0.66899074E+03</pdfrwt>
<totfact> 0.29860439E-02</totfact>
</mgrwt>
</event>
<event>
12    1  0.1335216E-007  0.1912177E+03  0.7818608E-02  0.1157368E+00
         -2   -1    0    0    0  501 -0.00000000000E+00  0.00000000000E+00  0.62188249150E+02  0.62188249150E+02  0.00000000000E+00 0.  1.
          2   -1    0    0  501    0  0.00000000000E+00 -0.00000000000E+00 -0.24198760316E+04  0.24198760316E+04  0.00000000000E+00 0. -1.
         23    2    1    2    0    0 -0.85028004155E+02 -0.10199187959E+03 -0.56161605811E+03  0.58379613427E+03  0.88165892888E+02 0.  0.
    5000000    2    1    2    0    0  0.85028004155E+02  0.10199187959E+03 -0.17960717244E+04  0.18982681465E+04  0.59993017259E+03 0.  0.
         23    2    4    4    0    0  0.55700600515E+02  0.13088291938E+03 -0.17899308950E+04  0.17978600333E+04  0.90637713524E+02 0.  0.
         23    2    4    4    0    0  0.29327403640E+02 -0.28891039795E+02 -0.61408294195E+01  0.10040811322E+03  0.91374452831E+02 0.  0.
          3    1    3    3  502    0 -0.68025132686E+02 -0.45438784744E+02 -0.45143605744E+03  0.45878820363E+03  0.00000000000E+00 0. -1.
         -3    1    3    3    0  502 -0.17002871469E+02 -0.56553094841E+02 -0.11018000067E+03  0.12500793064E+03  0.00000000000E+00 0.  1.
         13    1    5    5    0    0  0.59809983207E+01  0.16188162717E+01 -0.62170884019E+01  0.87775335505E+01  0.00000000000E+00 0.  1.
        -13    1    5    5    0    0  0.49719602195E+02  0.12926410311E+03 -0.17837138066E+04  0.17890824998E+04  0.00000000000E+00 0. -1.
          3    1    6    6  503    0  0.37986901816E+02  0.22912102098E+02  0.99747461819E+01  0.45469381934E+02  0.00000000000E+00 0. -1.
         -3    1    6    6    0  503 -0.86594981759E+01 -0.51803141893E+02 -0.16115575601E+02  0.54938731288E+02  0.00000000000E+00 0.  1.
<mgrwt>
<rscale>  0 0.19121768E+03</rscale>
<asrwt>0</asrwt>
<pdfrwt beam="1">  1        2 0.37228863E+00 0.19121768E+03</pdfrwt>
<pdfrwt beam="2">  1       -2 0.95674226E-02 0.19121768E+03</pdfrwt>
<totfact> 0.32375027E+02</totfact>
</mgrwt>
</event>
<event>
12    1  0.1335216E-007  0.2279919E+04  0.7818608E-02  0.8485881E-01
          2   -1    0    0  501    0  0.00000000000E+00  0.00000000000E+00  0.34346824950E+04  0.34346824950E+04  0.00000000000E+00 0. -1.
         -2   -1    0    0    0  501 -0.00000000000E+00 -0.00000000000E+00 -0.15824174368E+04  0.15824174368E+04  0.00000000000E+00 0.  1.
         23    2    1    2    0    0  0.48389107596E+02  0.22748483911E+04  0.12062320673E+04  0.25767978876E+04  0.87263080086E+02 0.  0.
    5000000    2    1    2    0    0 -0.48389107596E+02 -0.22748483911E+04  0.64603299085E+03  0.24403020442E+04  0.60036549985E+03 0.  0.
         23    2    4    4    0    0 -0.30480934176E+02 -0.56865045792E+03  0.42801776325E+03  0.71777545671E+03  0.87806434601E+02 0.  0.
         23    2    4    4    0    0 -0.17908173420E+02 -0.17061979332E+04  0.21801522760E+03  0.17225265875E+04  0.90194873745E+02 0.  0.
          4    1    3    3  502    0  0.37075867274E+02  0.16397344310E+04  0.82486131991E+03  0.18358921050E+04  0.00000000000E+00 0. -1.
         -4    1    3    3    0  502  0.11313240321E+02  0.63511396015E+03  0.38137074741E+03  0.74090578265E+03  0.00000000000E+00 0.  1.
         11    1    5    5    0    0 -0.51076977908E+02 -0.52602590841E+03  0.38566067158E+03  0.65425244943E+03  0.00000000000E+00 0.  1.
        -11    1    5    5    0    0  0.20596043732E+02 -0.42624549513E+02  0.42357091674E+02  0.63523007278E+02  0.00000000000E+00 0. -1.
          3    1    6    6  503    0  0.33099299277E+02 -0.37557111659E+03  0.43032114956E+02  0.37947462385E+03  0.00000000000E+00 0.  1.
         -3    1    6    6    0  503 -0.51007472697E+02 -0.13306268166E+04  0.17498311264E+03  0.13430519637E+04  0.00000000000E+00 0. -1.
<mgrwt>
<rscale>  0 0.22799194E+04</rscale>
<asrwt>0</asrwt>
<pdfrwt beam="1">  1        2 0.52841269E+00 0.22799194E+04</pdfrwt>
<pdfrwt beam="2">  1       -2 0.24344884E+00 0.22799194E+04</pdfrwt>
<totfact> 0.55024257E-02</totfact>
</mgrwt>
</event>
<event>
12    1  0.1335216E-007  0.1703271E+04  0.7818608E-02  0.8759501E-01
         -2   -1    0    0    0  501 -0.00000000000E+00  0.00000000000E+00  0.31784168807E+04  0.31784168807E+04  0.00000000000E+00 0.  1.
          2   -1    0    0  501    0  0.00000000000E+00 -0.00000000000E+00 -0.11820478905E+04  0.11820478905E+04  0.00000000000E+00 0. -1.
         23    2    1    2    0    0 -0.21740497142E+03 -0.16399079613E+04  0.20046736316E+04  0.26007362329E+04  0.92463726458E+02 0.  0.
    5000000    2    1    2    0    0  0.21740497142E+03  0.16399079613E+04 -0.83046413846E+01  0.17597285383E+04  0.60001043199E+03 0.  0.
         23    2    4    4    0    0  0.40100317249E+03  0.97726542870E+03 -0.74210728232E+02  0.10628447614E+04  0.90997209189E+02 0.  0.
         23    2    4    4    0    0 -0.18359820106E+03  0.66264253259E+03  0.65906086848E+02  0.69688377699E+03  0.92195232609E+02 0.  0.
          3    1    3    3  502    0 -0.58000276366E+02 -0.44679595879E+03  0.61201218517E+03  0.75996682536E+03  0.00000000000E+00 0.  1.
         -3    1    3    3    0  502 -0.15940469506E+03 -0.11931120025E+04  0.13926614464E+04  0.18407694075E+04  0.00000000000E+00 0. -1.
         11    1    5    5    0    0  0.17432368642E+03  0.52403753398E+03 -0.64217004891E+02  0.55599272332E+03  0.00000000000E+00 0.  1.
        -11    1    5    5    0    0  0.22667948606E+03  0.45322789472E+03 -0.99937233417E+01  0.50685203803E+03  0.00000000000E+00 0. -1.
          2    1    6    6  503    0 -0.10700098065E+03  0.52447788652E+03  0.39737324393E+02  0.53675443012E+03  0.00000000000E+00 0.  1.
         -2    1    6    6    0  503 -0.76597220414E+02  0.13816464607E+03  0.26168762455E+02  0.16012934686E+03  0.00000000000E+00 0. -1.
<mgrwt>
<rscale>  0 0.17032708E+04</rscale>
<asrwt>0</asrwt>
<pdfrwt beam="1">  1        2 0.18185352E+00 0.17032708E+04</pdfrwt>
<pdfrwt beam="2">  1       -2 0.48898721E+00 0.17032708E+04</pdfrwt>
<totfact> 0.34496198E-02</totfact>
</mgrwt>
</event>
<event>
12    1  0.1335216E-007  0.6126047E+03  0.7818608E-02  0.9879595E-01
          1   -1    0    0  501    0  0.00000000000E+00  0.00000000000E+00  0.11017387990E+04  0.11017387990E+04  0.00000000000E+00 0. -1.
         -1   -1    0    0    0  501 -0.00000000000E+00 -0.00000000000E+00 -0.80221394681E+03  0.80221394681E+03  0.00000000000E+00 0.  1.
         23    2    1    2    0    0 -0.14406451159E+03 -0.49377420619E+03  0.80944050299E+03  0.96340069460E+03  0.91539173456E+02 0.  0.
    5000000    2    1    2    0    0  0.14406451159E+03  0.49377420619E+03 -0.50991565080E+03  0.94055205121E+03  0.60004719808E+03 0.  0.
         23    2    4    4    0    0  0.12836454852E+03  0.57180210657E+03 -0.23178583615E+03  0.63678018551E+03  0.91264584709E+02 0.  0.
         23    2    4    4    0    0  0.15699963064E+02 -0.78027900386E+02 -0.27812981464E+03  0.30377186570E+03  0.92662346819E+02 0.  0.
          2    1    3    3  502    0 -0.15206234699E+03 -0.47213907563E+03  0.74559884904E+03  0.89551990922E+03  0.00000000000E+00 0. -1.
         -2    1    3    3    0  502  0.79978354002E+01 -0.21635130554E+02  0.63841653948E+02  0.67880785381E+02  0.00000000000E+00 0.  1.
         13    1    5    5    0    0  0.50172278448E+02  0.16523476641E+03 -0.26649542793E+02  0.17472831392E+03  0.00000000000E+00 0. -1.
        -13    1    5    5    0    0  0.78192270074E+02  0.40656734017E+03 -0.20513629336E+03  0.46205187159E+03  0.00000000000E+00 0.  1.
          1    1    6    6  503    0  0.26604143398E+00 -0.95845501384E+02 -0.24526303095E+03  0.26332562591E+03  0.00000000000E+00 0. -1.
         -1    1    6    6    0  503  0.15433921630E+02  0.17817600998E+02 -0.32866783696E+02  0.40446239785E+02  0.00000000000E+00 0.  1.
<mgrwt>
<rscale>  0 0.61260467E+03</rscale>
<asrwt>0</asrwt>
<pdfrwt beam="1">  1        1 0.16949828E+00 0.61260467E+03</pdfrwt>
<pdfrwt beam="2">  1       -1 0.12341753E+00 0.61260467E+03</pdfrwt>
<totfact> 0.77292737E+00</totfact>
</mgrwt>
</event>
<event>
12    1  0.1335216E-007  0.8255891E+03  0.7818608E-02  0.9523699E-01
         -2   -1    0    0    0  501 -0.00000000000E+00  0.00000000000E+00  0.64936976287E+03  0.64936976287E+03  0.00000000000E+00 0.  1.
          2   -1    0    0  501    0  0.00000000000E+00 -0.00000000000E+00 -0.15791858917E+04  0.15791858917E+04  0.00000000000E+00 0. -1.
         23    2    1    2    0    0  0.75432236069E+03 -0.20087283076E+02 -0.10060012323E+04  0.12614705124E+04  0.99315917566E+02 0.  0.
    5000000    2    1    2    0    0 -0.75432236069E+03  0.20087283076E+02  0.76185103418E+02  0.96708514221E+03  0.60003648184E+03 0.  0.
         23    2    4    4    0    0 -0.68534679225E+03 -0.13929088307E+03  0.20260986128E+03  0.73388603586E+03  0.91846513229E+02 0.  0.
         23    2    4    4    0    0 -0.68975568434E+02  0.15937816614E+03 -0.12642475786E+03  0.23319910635E+03  0.90772104298E+02 0.  0.
          2    1    3    3  502    0  0.45515980064E+03  0.27883115756E+02 -0.55798767309E+03  0.72062344923E+03  0.00000000000E+00 0. -1.
         -2    1    3    3    0  502  0.29916256005E+03 -0.47970398832E+02 -0.44801355918E+03  0.54084706314E+03  0.00000000000E+00 0.  1.
         11    1    5    5    0    0 -0.40810220325E+03 -0.12010781751E+03  0.14974329149E+03  0.45099484418E+03  0.00000000000E+00 0. -1.
        -11    1    5    5    0    0 -0.27724458900E+03 -0.19183065561E+02  0.52866569786E+02  0.28289119169E+03  0.00000000000E+00 0.  1.
          2    1    6    6  503    0 -0.43726057699E+02  0.21560947067E+02 -0.62307426110E+02  0.79114208009E+02  0.00000000000E+00 0. -1.
         -2    1    6    6    0  503 -0.25249510734E+02  0.13781721908E+03 -0.64117331749E+02  0.15408489834E+03  0.00000000000E+00 0.  1.
<mgrwt>
<rscale>  0 0.82558911E+03</rscale>
<asrwt>0</asrwt>
<pdfrwt beam="1">  1        2 0.24295168E+00 0.82558911E+03</pdfrwt>
<pdfrwt beam="2">  1       -2 0.99903040E-01 0.82558911E+03</pdfrwt>
<totfact> 0.96359239E+00</totfact>
</mgrwt>
</event>
<event>
12    1  0.1335216E-007  0.1063262E+04  0.7818608E-02  0.9241758E-01
          1   -1    0    0  501    0  0.00000000000E+00  0.00000000000E+00  0.21151765763E+04  0.21151765763E+04  0.00000000000E+00 0. -1.
         -1   -1    0    0    0  501 -0.00000000000E+00 -0.00000000000E+00 -0.65723931414E+03  0.65723931414E+03  0.00000000000E+00 0.  1.
         23    2    1    2    0    0 -0.32735593394E+03 -0.97852034475E+03  0.11328142826E+04  0.15353698486E+04  0.97099950935E+02 0.  0.
    5000000    2    1    2    0    0  0.32735593394E+03  0.97852034475E+03  0.32512297956E+03  0.12370460419E+04  0.59992831677E+03 0.  0.
         23    2    4    4    0    0  0.17300706588E+03  0.87776170537E+03  0.43964356644E+03  0.10017450529E+04  0.99043572129E+02 0.  0.
         23    2    4    4    0    0  0.15434886806E+03  0.10075863938E+03 -0.11452058689E+03  0.23530098899E+03  0.90970952044E+02 0.  0.
          1    1    3    3  502    0 -0.98639228862E+02 -0.22979244402E+03  0.22262371604E+03  0.33480678569E+03  0.00000000000E+00 0. -1.
         -1    1    3    3    0  502 -0.22871670508E+03 -0.74872790072E+03  0.91019056653E+03  0.12005630629E+04  0.00000000000E+00 0.  1.
         13    1    5    5    0    0  0.12633150270E+02  0.79281905052E+02  0.98931967532E+01  0.80889383088E+02  0.00000000000E+00 0.  1.
        -13    1    5    5    0    0  0.16037391561E+03  0.79847980031E+03  0.42975036969E+03  0.92085566978E+03  0.00000000000E+00 0. -1.
          3    1    6    6  503    0  0.62907332266E+02  0.14548035717E+00 -0.65393324547E+02  0.90739409920E+02  0.00000000000E+00 0. -1.
         -3    1    6    6    0  503  0.91441535794E+02  0.10061315902E+03 -0.49127262341E+02  0.14456157907E+03  0.00000000000E+00 0.  1.
<mgrwt>
<rscale>  0 0.10632622E+04</rscale>
<asrwt>0</asrwt>
<pdfrwt beam="1">  1        1 0.32541178E+00 0.10632622E+04</pdfrwt>
<pdfrwt beam="2">  1       -1 0.10111374E+00 0.10632622E+04</pdfrwt>
<totfact> 0.23211799E+00</totfact>
</mgrwt>
</event>
<event>
12    1  0.1335216E-007  0.4505514E+03  0.7818608E-02  0.1027558E+00
          1   -1    0    0  501    0  0.00000000000E+00  0.00000000000E+00  0.98339703289E+03  0.98339703289E+03  0.00000000000E+00 0. -1.
         -1   -1    0    0    0  501 -0.00000000000E+00 -0.00000000000E+00 -0.22705106535E+03  0.22705106535E+03  0.00000000000E+00 0.  1.
         23    2    1    2    0    0  0.19782175052E+03  0.17791285639E+03  0.16025636937E+03  0.32392944996E+03  0.91987799068E+02 0.  0.
    5000000    2    1    2    0    0 -0.19782175052E+03 -0.17791285639E+03  0.59608959818E+03  0.88651864828E+03  0.59983837426E+03 0.  0.
         23    2    4    4    0    0 -0.22650465712E+03 -0.35648221390E+03  0.29846042714E+03  0.52574970648E+03  0.94605490150E+02 0.  0.
         23    2    4    4    0    0  0.28682906593E+02  0.17856935751E+03  0.29762917103E+03  0.36076894180E+03  0.94134910356E+02 0.  0.
          4    1    3    3  502    0  0.15541118812E+03  0.18078556814E+03  0.12818032875E+03  0.27067740157E+03  0.00000000000E+00 0. -1.
         -4    1    3    3    0  502  0.42410562407E+02 -0.28727117463E+01  0.32076040615E+02  0.53252048392E+02  0.00000000000E+00 0.  1.
         13    1    5    5    0    0 -0.10284294640E+03 -0.12150766780E+03  0.16233428750E+03  0.22736139922E+03  0.00000000000E+00 0. -1.
        -13    1    5    5    0    0 -0.12366171072E+03 -0.23497454610E+03  0.13612613965E+03  0.29838830725E+03  0.00000000000E+00 0.  1.
          2    1    6    6  503    0  0.36030408638E+02  0.30449345870E+02  0.12258169586E+03  0.13134544213E+03  0.00000000000E+00 0. -1.
         -2    1    6    6    0  503 -0.73475020450E+01  0.14812001164E+03  0.17504747518E+03  0.22942349967E+03  0.00000000000E+00 0.  1.
<mgrwt>
<rscale>  0 0.45055141E+03</rscale>
<asrwt>0</asrwt>
<pdfrwt beam="1">  1        1 0.15129185E+00 0.45055141E+03</pdfrwt>
<pdfrwt beam="2">  1       -1 0.34930934E-01 0.45055141E+03</pdfrwt>
<totfact> 0.12710338E+02</totfact>
</mgrwt>
</event>
<event>
12    1  0.1335216E-007  0.8380708E+03  0.7818608E-02  0.9506489E-01
          1   -1    0    0  501    0  0.00000000000E+00  0.00000000000E+00  0.14069037911E+04  0.14069037911E+04  0.00000000000E+00 0. -1.
         -1   -1    0    0    0  501 -0.00000000000E+00 -0.00000000000E+00 -0.58351979950E+03  0.58351979950E+03  0.00000000000E+00 0.  1.
         23    2    1    2    0    0 -0.23720835455E+03 -0.69414037513E+03  0.72853174138E+03  0.10379705959E+04  0.92335236921E+02 0.  0.
    5000000    2    1    2    0    0  0.23720835455E+03  0.69414037513E+03  0.94852250175E+02  0.95245299463E+03  0.60005924188E+03 0.  0.
         23    2    4    4    0    0  0.39126721995E+03  0.64373809470E+03  0.46271161572E+02  0.76026301142E+03  0.91488000104E+02 0.  0.
         23    2    4    4    0    0 -0.15405886540E+03  0.50402280423E+02  0.48581088603E+02  0.19218998321E+03  0.91117197028E+02 0.  0.
          1    1    3    3  502    0  0.37868070044E+01 -0.72683592955E+02  0.73307657939E+02  0.10330177784E+03  0.00000000000E+00 0. -1.
         -1    1    3    3    0  502 -0.24099516155E+03 -0.62145678217E+03  0.65522408345E+03  0.93466881810E+03  0.00000000000E+00 0.  1.
         11    1    5    5    0    0  0.26816432242E+03  0.36431387874E+03  0.48100922349E+02  0.45491801986E+03  0.00000000000E+00 0. -1.
        -11    1    5    5    0    0  0.12310289752E+03  0.27942421597E+03 -0.18297607772E+01  0.30534499156E+03  0.00000000000E+00 0.  1.
          1    1    6    6  503    0 -0.10782918012E+03 -0.37592792747E+01  0.54232110512E+02  0.12075755080E+03  0.00000000000E+00 0. -1.
         -1    1    6    6    0  503 -0.46229685283E+02  0.54161559698E+02 -0.56510219082E+01  0.71432432402E+02  0.00000000000E+00 0.  1.
<mgrwt>
<rscale>  0 0.83807077E+03</rscale>
<asrwt>0</asrwt>
<pdfrwt beam="1">  1        1 0.21644674E+00 0.83807077E+03</pdfrwt>
<pdfrwt beam="2">  1       -1 0.89772278E-01 0.83807077E+03</pdfrwt>
<totfact> 0.94568162E+00</totfact>
</mgrwt>
</event>
<event>
12    1  0.1335216E-007  0.5291934E+03  0.7818608E-02  0.1006428E+00
          2   -1    0    0  501    0  0.00000000000E+00  0.00000000000E+00  0.88654607583E+03  0.88654607583E+03  0.00000000000E+00 0. -1.
         -2   -1    0    0    0  501 -0.00000000000E+00 -0.00000000000E+00 -0.43147745864E+03  0.43147745864E+03  0.00000000000E+00 0.  1.
         23    2    1    2    0    0  0.30083402768E+03 -0.23203751021E+03 -0.11456857362E+03  0.40747785585E+03  0.92572817798E+02 0.  0.
    5000000    2    1    2    0    0 -0.30083402768E+03  0.23203751021E+03  0.56963719082E+03  0.91054567862E+03  0.60022028068E+03 0.  0.
         23    2    4    4    0    0  0.12520762680E+03  0.20104615656E+03  0.31720359389E+03  0.40611649765E+03  0.90642058731E+02 0.  0.
         23    2    4    4    0    0 -0.42604165448E+03  0.30991353646E+02  0.25243359693E+03  0.50442918097E+03  0.90852200854E+02 0.  0.
          2    1    3    3  502    0  0.20911138908E+03 -0.11524843932E+03 -0.97844660799E+02  0.25803750397E+03  0.00000000000E+00 0. -1.
         -2    1    3    3    0  502  0.91722638597E+02 -0.11678907089E+03 -0.16723912824E+02  0.14944035188E+03  0.00000000000E+00 0.  1.
         11    1    5    5    0    0  0.87686939299E+02  0.11220328228E+03  0.11855102251E+03  0.18529144831E+03  0.00000000000E+00 0.  1.
        -11    1    5    5    0    0  0.37520687503E+02  0.88842874278E+02  0.19865257138E+03  0.22082504934E+03  0.00000000000E+00 0. -1.
          4    1    6    6  503    0 -0.52939327491E+02  0.26369634563E+02  0.61350509917E+02  0.85216284179E+02  0.00000000000E+00 0. -1.
         -4    1    6    6    0  503 -0.37310232699E+03  0.46217190827E+01  0.19108308702E+03  0.41921289679E+03  0.00000000000E+00 0.  1.
<mgrwt>
<rscale>  0 0.52919344E+03</rscale>
<asrwt>0</asrwt>
<pdfrwt beam="1">  1        2 0.13639170E+00 0.52919344E+03</pdfrwt>
<pdfrwt beam="2">  1       -2 0.66381148E-01 0.52919344E+03</pdfrwt>
<totfact> 0.64654015E+01</totfact>
</mgrwt>
</event>
<event>
12    1  0.1335216E-007  0.6900400E+03  0.7818608E-02  0.9734418E-01
         -1   -1    0    0    0  501 -0.00000000000E+00  0.00000000000E+00  0.43808216431E+03  0.43808216431E+03  0.00000000000E+00 0.  1.
          1   -1    0    0  501    0  0.00000000000E+00 -0.00000000000E+00 -0.11079786265E+04  0.11079786265E+04  0.00000000000E+00 0. -1.
         23    2    1    2    0    0 -0.54079482299E+03  0.15770310622E+03 -0.28035076378E+03  0.63547301152E+03  0.88882435472E+02 0.  0.
    5000000    2    1    2    0    0  0.54079482299E+03 -0.15770310622E+03 -0.38954569844E+03  0.91058777931E+03  0.60007911342E+03 0.  0.
         23    2    4    4    0    0  0.62999165893E+03 -0.21673396528E+03 -0.26452012425E+03  0.72251177233E+03  0.90494546794E+02 0.  0.
         23    2    4    4    0    0 -0.89196835936E+02  0.59030859060E+02 -0.12502557419E+03  0.18807600698E+03  0.91106928038E+02 0.  0.
          3    1    3    3  502    0 -0.27064961066E+03  0.12205465289E+03 -0.16402802894E+03  0.33919573158E+03  0.00000000000E+00 0. -1.
         -3    1    3    3    0  502 -0.27014521233E+03  0.35648453327E+02 -0.11632273484E+03  0.29627727994E+03  0.00000000000E+00 0.  1.
         13    1    5    5    0    0  0.98134619168E+02 -0.65804511768E+02 -0.64280290009E+02  0.13450870950E+03  0.00000000000E+00 0.  1.
        -13    1    5    5    0    0  0.53185703976E+03 -0.15092945351E+03 -0.20023983424E+03  0.58800306283E+03  0.00000000000E+00 0. -1.
          4    1    6    6  503    0 -0.19986451573E+02  0.67090102500E+02 -0.52503087903E+02  0.87504938942E+02  0.00000000000E+00 0. -1.
         -4    1    6    6    0  503 -0.69210384363E+02 -0.80592434396E+01 -0.72522486287E+02  0.10057106803E+03  0.00000000000E+00 0.  1.
<mgrwt>
<rscale>  0 0.69004004E+03</rscale>
<asrwt>0</asrwt>
<pdfrwt beam="1">  1        1 0.17045825E+00 0.69004004E+03</pdfrwt>
<pdfrwt beam="2">  1       -1 0.67397255E-01 0.69004004E+03</pdfrwt>
<totfact> 0.28874766E+01</totfact>
</mgrwt>
</event>
<event>
12    1  0.1335216E-007  0.1001291E+04  0.7818608E-02  0.9307130E-01
          1   -1    0    0  501    0  0.00000000000E+00  0.00000000000E+00  0.97942891735E+03  0.97942891735E+03  0.00000000000E+00 0. -1.
         -1   -1    0    0    0  501 -0.00000000000E+00 -0.00000000000E+00 -0.14493163341E+04  0.14493163341E+04  0.00000000000E+00 0.  1.
         23    2    1    2    0    0  0.92587667674E+03  0.23305429522E+02  0.40940006729E+03  0.10177348581E+04  0.10190712797E+03 0.  0.
    5000000    2    1    2    0    0 -0.92587667674E+03 -0.23305429522E+02 -0.87928748403E+03  0.14110103933E+04  0.60001090570E+03 0.  0.
         23    2    4    4    0    0  0.33761841635E+02  0.86406100517E+02 -0.14756401587E+03  0.19579132678E+03  0.89180876353E+02 0.  0.
         23    2    4    4    0    0 -0.95963851837E+03 -0.10971153004E+03 -0.73172346817E+03  0.12152190666E+04  0.91626634173E+02 0.  0.
          2    1    3    3  502    0  0.69478048504E+03 -0.23595171751E+01  0.34893908838E+03  0.77748567647E+03  0.00000000000E+00 0. -1.
         -2    1    3    3    0  502  0.23109619170E+03  0.25664946698E+02  0.60460978912E+02  0.24024918164E+03  0.00000000000E+00 0.  1.
         11    1    5    5    0    0  0.41619838720E+02  0.90749058259E+02 -0.80831423551E+02  0.12845746994E+03  0.00000000000E+00 0. -1.
        -11    1    5    5    0    0 -0.78579970844E+01 -0.43429577422E+01 -0.66732592315E+02  0.67333856842E+02  0.00000000000E+00 0.  1.
          4    1    6    6  503    0 -0.75152223542E+03 -0.99711810600E+02 -0.52832232715E+03  0.92404144759E+03  0.00000000000E+00 0. -1.
         -4    1    6    6    0  503 -0.20811628295E+03 -0.99997194389E+01 -0.20340114101E+03  0.29117761896E+03  0.00000000000E+00 0.  1.
<mgrwt>
<rscale>  0 0.10012911E+04</rscale>
<asrwt>0</asrwt>
<pdfrwt beam="1">  1        1 0.15068137E+00 0.10012911E+04</pdfrwt>
<pdfrwt beam="2">  1       -1 0.22297174E+00 0.10012911E+04</pdfrwt>
<totfact> 0.16602541E+00</totfact>
</mgrwt>
</event>
<event>
12    1  0.1335216E-007  0.7382399E+03  0.7818608E-02  0.9653983E-01
         -1   -1    0    0    0  501 -0.00000000000E+00  0.00000000000E+00  0.29927127713E+03  0.29927127713E+03  0.00000000000E+00 0.  1.
          1   -1    0    0  501    0  0.00000000000E+00 -0.00000000000E+00 -0.19841853942E+04  0.19841853942E+04  0.00000000000E+00 0. -1.
         23    2    1    2    0    0 -0.33823674129E+02  0.62234375236E+03 -0.44359066972E+03  0.77054021425E+03  0.92215793072E+02 0.  0.
    5000000    2    1    2    0    0  0.33823674129E+02 -0.62234375236E+03 -0.12413234473E+04  0.15129164570E+04  0.59964699455E+03 0.  0.
         23    2    4    4    0    0  0.12529307394E+03  0.63490384347E+02 -0.24493437385E+03  0.29667441295E+03  0.91068526551E+02 0.  0.
         23    2    4    4    0    0 -0.91469399807E+02 -0.68583413670E+03 -0.99638907348E+03  0.12162420441E+04  0.87854481334E+02 0.  0.
          2    1    3    3  502    0 -0.14414244610E+02  0.12987572830E+03 -0.50369417699E+02  0.14004482671E+03  0.00000000000E+00 0.  1.
         -2    1    3    3    0  502 -0.19409429518E+02  0.49246802405E+03 -0.39322125202E+03  0.63049538754E+03  0.00000000000E+00 0. -1.
         11    1    5    5    0    0  0.46739509839E+02  0.61410752101E+02 -0.67152774266E+02  0.10230032916E+03  0.00000000000E+00 0. -1.
        -11    1    5    5    0    0  0.78553564097E+02  0.20796322456E+01 -0.17778159958E+03  0.19437408380E+03  0.00000000000E+00 0.  1.
          3    1    6    6  503    0 -0.48084087442E+02 -0.11403188182E+03 -0.16438233542E+03  0.20575932964E+03  0.00000000000E+00 0. -1.
         -3    1    6    6    0  503 -0.43385312365E+02 -0.57180225489E+03 -0.83200673806E+03  0.10104827144E+04  0.00000000000E+00 0.  1.
<mgrwt>
<rscale>  0 0.73823993E+03</rscale>
<asrwt>0</asrwt>
<pdfrwt beam="1">  1        1 0.30525928E+00 0.73823993E+03</pdfrwt>
<pdfrwt beam="2">  1       -1 0.46041736E-01 0.73823993E+03</pdfrwt>
<totfact> 0.14971890E+01</totfact>
</mgrwt>
</event>
<event>
12    1  0.1335216E-007  0.6084482E+03  0.7818608E-02  0.9888032E-01
         -2   -1    0    0    0  501 -0.00000000000E+00  0.00000000000E+00  0.18333313432E+03  0.18333313432E+03  0.00000000000E+00 0.  1.
          2   -1    0    0  501    0  0.00000000000E+00 -0.00000000000E+00 -0.25112474647E+04  0.25112474647E+04  0.00000000000E+00 0. -1.
         23    2    1    2    0    0 -0.50644751657E+03 -0.43446208504E+02 -0.12975878822E+04  0.13984739238E+04  0.11669765883E+03 0.  0.
    5000000    2    1    2    0    0  0.50644751657E+03  0.43446208504E+02 -0.10303264482E+04  0.12961066752E+04  0.59995271777E+03 0.  0.
         23    2    4    4    0    0  0.20777469968E+03 -0.21575360399E+03 -0.19957431328E+03  0.37143835115E+03  0.91742022623E+02 0.  0.
         23    2    4    4    0    0  0.29867281689E+03  0.25919981250E+03 -0.83075213493E+03  0.92466832407E+03  0.92045670690E+02 0.  0.
          2    1    3    3  502    0 -0.31850136741E+03 -0.20715272406E+01 -0.93839048898E+03  0.99097130235E+03  0.00000000000E+00 0. -1.
         -2    1    3    3    0  502 -0.18794614916E+03 -0.41374681263E+02 -0.35919739320E+03  0.40750262149E+03  0.00000000000E+00 0.  1.
         13    1    5    5    0    0  0.15482676876E+03 -0.14692191689E+03 -0.90039920721E+02  0.23165613592E+03  0.00000000000E+00 0.  1.
        -13    1    5    5    0    0  0.52947930922E+02 -0.68831687105E+02 -0.10953439256E+03  0.13978221522E+03  0.00000000000E+00 0. -1.
          3    1    6    6  503    0  0.12181273784E+03  0.49888806812E+02 -0.25128656161E+03  0.28367617487E+03  0.00000000000E+00 0. -1.
         -3    1    6    6    0  503  0.17686007904E+03  0.20931100568E+03 -0.57946557332E+03  0.64099214919E+03  0.00000000000E+00 0.  1.
<mgrwt>
<rscale>  0 0.60844820E+03</rscale>
<asrwt>0</asrwt>
<pdfrwt beam="1">  1        2 0.38634573E+00 0.60844820E+03</pdfrwt>
<pdfrwt beam="2">  1       -2 0.28205100E-01 0.60844820E+03</pdfrwt>
<totfact> 0.41976168E+01</totfact>
</mgrwt>
</event>
<event>
12    1  0.1335216E-007  0.1499483E+04  0.7818608E-02  0.8884796E-01
         -1   -1    0    0    0  501 -0.00000000000E+00  0.00000000000E+00  0.19857932722E+04  0.19857932722E+04  0.00000000000E+00 0.  1.
          1   -1    0    0  501    0  0.00000000000E+00 -0.00000000000E+00 -0.16438386701E+04  0.16438386701E+04  0.00000000000E+00 0. -1.
         23    2    1    2    0    0 -0.85664569992E+03 -0.12203503537E+04  0.10974267783E+04  0.18537433777E+04  0.94457057800E+02 0.  0.
    5000000    2    1    2    0    0  0.85664569992E+03  0.12203503537E+04 -0.75547217610E+03  0.17758885646E+04  0.59995428519E+03 0.  0.
         23    2    4    4    0    0  0.12750695383E+03  0.18557413099E+03  0.79924438575E+02  0.25648236446E+03  0.93271142545E+02 0.  0.
         23    2    4    4    0    0  0.72913874609E+03  0.10347762227E+04 -0.83539661467E+03  0.15194062002E+04  0.91118358742E+02 0.  0.
          2    1    3    3  502    0 -0.28200312255E+03 -0.35338534887E+03  0.37439937972E+03  0.58701095514E+03  0.00000000000E+00 0. -1.
         -2    1    3    3    0  502 -0.57464257737E+03 -0.86696500479E+03  0.72302739854E+03  0.12667324225E+04  0.00000000000E+00 0.  1.
         11    1    5    5    0    0  0.52764070127E+02  0.14331171129E+03  0.75866090506E+02  0.17052260078E+03  0.00000000000E+00 0.  1.
        -11    1    5    5    0    0  0.74742883702E+02  0.42262419701E+02  0.40583480696E+01  0.85959763681E+02  0.00000000000E+00 0. -1.
          3    1    6    6  503    0  0.48855653356E+03  0.62937584844E+03 -0.49583226541E+03  0.93843011487E+03  0.00000000000E+00 0. -1.
         -3    1    6    6    0  503  0.24058221254E+03  0.40540037423E+03 -0.33956434926E+03  0.58097608531E+03  0.00000000000E+00 0.  1.
<mgrwt>
<rscale>  0 0.14994835E+04</rscale>
<asrwt>0</asrwt>
<pdfrwt beam="1">  1        1 0.25289826E+00 0.14994835E+04</pdfrwt>
<pdfrwt beam="2">  1       -1 0.30550666E+00 0.14994835E+04</pdfrwt>
<totfact> 0.14962596E-01</totfact>
</mgrwt>
</event>
<event>
12    1  0.1335216E-007  0.1028219E+04  0.7818608E-02  0.9278125E-01
          2   -1    0    0  501    0  0.00000000000E+00  0.00000000000E+00  0.14752483557E+04  0.14752483557E+04  0.00000000000E+00 0.  1.
         -2   -1    0    0    0  501 -0.00000000000E+00 -0.00000000000E+00 -0.76378340551E+03  0.76378340551E+03  0.00000000000E+00 0. -1.
         23    2    1    2    0    0 -0.94584886082E+03  0.23263658119E+03  0.29954909652E+03  0.10231261353E+04  0.91145933233E+02 0.  0.
    5000000    2    1    2    0    0  0.94584886082E+03 -0.23263658119E+03  0.41191585364E+03  0.12159056258E+04  0.60000164503E+03 0.  0.
         23    2    4    4    0    0  0.98440655075E+03 -0.27446017611E+03  0.32032682439E+03  0.10747417655E+04  0.89866248353E+02 0.  0.
         23    2    4    4    0    0 -0.38557689931E+02  0.41823594920E+02  0.91589029249E+02  0.14116386037E+03  0.91119573363E+02 0.  0.
          2    1    3    3  502    0 -0.90162504788E+03  0.22029206403E+03  0.26371792395E+03  0.96488520760E+03  0.00000000000E+00 0. -1.
         -2    1    3    3    0  502 -0.44223812945E+02  0.12344517163E+02  0.35831172566E+02  0.58240927730E+02  0.00000000000E+00 0.  1.
         13    1    5    5    0    0  0.45227258337E+03 -0.15851398561E+03  0.18369213590E+03  0.51324455584E+03  0.00000000000E+00 0.  1.
        -13    1    5    5    0    0  0.53213396738E+03 -0.11594619051E+03  0.13663468849E+03  0.56149720964E+03  0.00000000000E+00 0. -1.
          3    1    6    6  503    0 -0.79087957473E+01  0.18101869306E+02 -0.16876798953E+02  0.25981783339E+02  0.00000000000E+00 0. -1.
         -3    1    6    6    0  503 -0.30648894184E+02  0.23721725614E+02  0.10846582820E+03  0.11518207703E+03  0.00000000000E+00 0.  1.
<mgrwt>
<rscale>  0 0.10282188E+04</rscale>
<asrwt>0</asrwt>
<pdfrwt beam="1">  1        2 0.22696129E+00 0.10282188E+04</pdfrwt>
<pdfrwt beam="2">  1       -2 0.11750514E+00 0.10282188E+04</pdfrwt>
<totfact> 0.72677675E+00</totfact>
</mgrwt>
</event>
<event>
12    1  0.1335216E-007  0.1473383E+04  0.7818608E-02  0.8902349E-01
          1   -1    0    0  501    0  0.00000000000E+00  0.00000000000E+00  0.19871135629E+04  0.19871135629E+04  0.00000000000E+00 0. -1.
         -1   -1    0    0    0  501 -0.00000000000E+00 -0.00000000000E+00 -0.11737030179E+04  0.11737030179E+04  0.00000000000E+00 0.  1.
         23    2    1    2    0    0 -0.24505704436E+03 -0.14085312193E+04  0.51996742866E+02  0.14334383352E+04  0.89602728960E+02 0.  0.
    5000000    2    1    2    0    0  0.24505704436E+03  0.14085312193E+04  0.76141380212E+03  0.17273782455E+04  0.60005955912E+03 0.  0.
         23    2    4    4    0    0 -0.97534511185E+01  0.88744709666E+01  0.14803587974E+03  0.17553416003E+03  0.93400929357E+02 0.  0.
         23    2    4    4    0    0  0.25481049548E+03  0.13996567483E+04  0.61337792238E+03  0.15518440855E+04  0.89555504677E+02 0.  0.
          1    1    3    3  502    0 -0.66123305005E+02 -0.63787948501E+03  0.17598334099E+02  0.64153895456E+03  0.00000000000E+00 0. -1.
         -1    1    3    3    0  502 -0.17893373936E+03 -0.77065173425E+03  0.34398408767E+02  0.79189938067E+03  0.00000000000E+00 0.  1.
         11    1    5    5    0    0 -0.18672372527E+02  0.47671228972E+02  0.10555422337E+03  0.11731537682E+03  0.00000000000E+00 0. -1.
        -11    1    5    5    0    0  0.89189214081E+01 -0.38796758005E+02  0.42481656366E+02  0.58218783209E+02  0.00000000000E+00 0.  1.
          4    1    6    6  503    0  0.29860637913E+02  0.25631094349E+03  0.14480050248E+03  0.29589549332E+03  0.00000000000E+00 0. -1.
         -4    1    6    6    0  503  0.22494985757E+03  0.11433458048E+04  0.46857741990E+03  0.12559485922E+04  0.00000000000E+00 0.  1.
<mgrwt>
<rscale>  0 0.14733826E+04</rscale>
<asrwt>0</asrwt>
<pdfrwt beam="1">  1        1 0.30570978E+00 0.14733826E+04</pdfrwt>
<pdfrwt beam="2">  1       -1 0.18056970E+00 0.14733826E+04</pdfrwt>
<totfact> 0.59528942E-01</totfact>
</mgrwt>
</event>
<event>
12    1  0.1335216E-007  0.4849424E+03  0.7818608E-02  0.1017786E+00
          2   -1    0    0  501    0  0.00000000000E+00  0.00000000000E+00  0.65420698714E+03  0.65420698714E+03  0.00000000000E+00 0. -1.
         -2   -1    0    0    0  501 -0.00000000000E+00 -0.00000000000E+00 -0.57885368466E+03  0.57885368466E+03  0.00000000000E+00 0.  1.
         23    2    1    2    0    0  0.11187567209E+03  0.32052492791E+03 -0.28730675281E+03  0.45392349853E+03  0.90823878411E+02 0.  0.
    5000000    2    1    2    0    0 -0.11187567209E+03 -0.32052492791E+03  0.36266005528E+03  0.77913717328E+03  0.60023330770E+03 0.  0.
         23    2    4    4    0    0 -0.22079059777E+03  0.57293792116E+02  0.26998823787E+03  0.36511814878E+03  0.91578094008E+02 0.  0.
         23    2    4    4    0    0  0.10891492568E+03 -0.37781872002E+03  0.92671817412E+02  0.41401902449E+03  0.90632448191E+02 0.  0.
          3    1    3    3  502    0  0.76041219573E+02  0.17945064872E+03 -0.10746973850E+03  0.22256357989E+03  0.00000000000E+00 0. -1.
         -3    1    3    3    0  502  0.35834452514E+02  0.14107427919E+03 -0.17983701431E+03  0.23135991864E+03  0.00000000000E+00 0.  1.
         13    1    5    5    0    0 -0.43496227239E+02  0.38572766801E+01  0.81532993442E+01  0.44421578739E+02  0.00000000000E+00 0. -1.
        -13    1    5    5    0    0 -0.17729437053E+03  0.53436515436E+02  0.26183493853E+03  0.32069657004E+03  0.00000000000E+00 0.  1.
          4    1    6    6  503    0  0.36875350665E+02 -0.25922717750E+03  0.36693513995E+02  0.26439541412E+03  0.00000000000E+00 0. -1.
         -4    1    6    6    0  503  0.72039575018E+02 -0.11859154252E+03  0.55978303417E+02  0.14962361037E+03  0.00000000000E+00 0.  1.
<mgrwt>
<rscale>  0 0.48494237E+03</rscale>
<asrwt>0</asrwt>
<pdfrwt beam="1">  1        2 0.10064723E+00 0.48494237E+03</pdfrwt>
<pdfrwt beam="2">  1       -2 0.89054412E-01 0.48494237E+03</pdfrwt>
<totfact> 0.50096472E+01</totfact>
</mgrwt>
</event>
<event>
12    1  0.1335216E-007  0.4549998E+03  0.7818608E-02  0.1026241E+00
          2   -1    0    0  501    0  0.00000000000E+00  0.00000000000E+00  0.24280084774E+04  0.24280084774E+04  0.00000000000E+00 0. -1.
         -2   -1    0    0    0  501 -0.00000000000E+00 -0.00000000000E+00 -0.16548732537E+03  0.16548732537E+03  0.00000000000E+00 0.  1.
         23    2    1    2    0    0  0.26141553223E+03  0.16357045199E+03  0.16540453001E+04  0.16850468230E+04  0.91779996509E+02 0.  0.
    5000000    2    1    2    0    0 -0.26141553223E+03 -0.16357045199E+03  0.60847585195E+03  0.90844897976E+03  0.59995275911E+03 0.  0.
         23    2    4    4    0    0 -0.28060776347E+03 -0.30683106606E+03  0.20922169826E+03  0.47427905867E+03  0.90999376088E+02 0.  0.
         23    2    4    4    0    0  0.19192231237E+02  0.14326061406E+03  0.39925415369E+03  0.43416992109E+03  0.90596334704E+02 0.  0.
          1    1    3    3  502    0  0.57137036719E+02 -0.36263912669E+01  0.26013679297E+03  0.26636242741E+03  0.00000000000E+00 0. -1.
         -1    1    3    3    0  502  0.20427849551E+03  0.16719684326E+03  0.13939085071E+04  0.14186843956E+04  0.00000000000E+00 0.  1.
         11    1    5    5    0    0 -0.21250726133E+03 -0.18098630776E+03  0.16618292607E+03  0.32485711418E+03  0.00000000000E+00 0. -1.
        -11    1    5    5    0    0 -0.68100502135E+02 -0.12584475830E+03  0.43038772191E+02  0.14942194449E+03  0.00000000000E+00 0.  1.
          1    1    6    6  503    0 -0.29864237095E+02  0.26605502024E+02  0.60269047705E+02  0.72333142518E+02  0.00000000000E+00 0. -1.
         -1    1    6    6    0  503  0.49056468332E+02  0.11665511204E+03  0.33898510599E+03  0.36183677858E+03  0.00000000000E+00 0.  1.
<mgrwt>
<rscale>  0 0.45499982E+03</rscale>
<asrwt>0</asrwt>
<pdfrwt beam="1">  1        2 0.37353974E+00 0.45499982E+03</pdfrwt>
<pdfrwt beam="2">  1       -2 0.25459590E-01 0.45499982E+03</pdfrwt>
<totfact> 0.57931983E+01</totfact>
</mgrwt>
</event>
<event>
12    1  0.1346706E-007  0.8475805E+03  0.7818608E-02  0.9493590E-01
         -2   -1    0    0    0  501 -0.00000000000E+00  0.00000000000E+00  0.68623527253E+03  0.68623527253E+03  0.00000000000E+00 0. -1.
          2   -1    0    0  501    0  0.00000000000E+00 -0.00000000000E+00 -0.14521877387E+04  0.14521877387E+04  0.00000000000E+00 0.  1.
         23    2    1    2    0    0  0.82065612357E+03 -0.16446850957E+03 -0.71893990829E+03  0.11073333432E+04  0.93734612076E+02 0.  0.
    5000000    2    1    2    0    0 -0.82065612357E+03  0.16446850957E+03 -0.47012557850E+02  0.10310896680E+04  0.60034103559E+03 0.  0.
         23    2    4    4    0    0 -0.38715063386E+03  0.13374738041E+03 -0.30329777027E+03  0.51879689303E+03  0.96885002440E+02 0.  0.
         23    2    4    4    0    0 -0.43350548971E+03  0.30721129158E+02  0.25628521243E+03  0.51229277494E+03  0.88831186894E+02 0.  0.
          3    1    3    3  502    0  0.37994685273E+03 -0.12380422175E+03 -0.34463420628E+03  0.52769293378E+03  0.00000000000E+00 0. -1.
         -3    1    3    3    0  502  0.44070927084E+03 -0.40664287815E+02 -0.37430570201E+03  0.57964040945E+03  0.00000000000E+00 0.  1.
         11    1    5    5    0    0 -0.28155769120E+03  0.13568761172E+03 -0.19995796275E+03  0.37103779904E+03  0.00000000000E+00 0.  1.
        -11    1    5    5    0    0 -0.10559294266E+03 -0.19402313118E+01 -0.10333980753E+03  0.14775909399E+03  0.00000000000E+00 0. -1.
          3    1    6    6  503    0 -0.20487393723E+03  0.21445485879E+02  0.17228138666E+03  0.26854071425E+03  0.00000000000E+00 0. -1.
         -3    1    6    6    0  503 -0.22863155248E+03  0.92756432791E+01  0.84003825760E+02  0.24375206069E+03  0.00000000000E+00 0.  1.
<mgrwt>
<rscale>  0 0.84758055E+03</rscale>
<asrwt>0</asrwt>
<pdfrwt beam="1">  1        2 0.22341350E+00 0.84758055E+03</pdfrwt>
<pdfrwt beam="2">  1       -2 0.10557466E+00 0.84758055E+03</pdfrwt>
<totfact> 0.99133632E+00</totfact>
</mgrwt>
</event>
<event>
12    1  0.1335216E-007  0.5825931E+03  0.7818608E-02  0.9942193E-01
          1   -1    0    0  501    0  0.00000000000E+00  0.00000000000E+00  0.19192061236E+04  0.19192061236E+04  0.00000000000E+00 0. -1.
         -1   -1    0    0    0  501 -0.00000000000E+00 -0.00000000000E+00 -0.21409974203E+03  0.21409974203E+03  0.00000000000E+00 0.  1.
         23    2    1    2    0    0 -0.18129871326E+03 -0.45734988124E+03  0.56899508385E+03  0.75750803623E+03  0.89581706851E+02 0.  0.
    5000000    2    1    2    0    0  0.18129871326E+03  0.45734988124E+03  0.11361112978E+04  0.13757978295E+04  0.60002720714E+03 0.  0.
         23    2    4    4    0    0  0.31423220600E+03  0.39612572420E+03  0.50099371096E+03  0.71765254210E+03  0.91504120692E+02 0.  0.
         23    2    4    4    0    0 -0.13293349273E+03  0.61224157039E+02  0.63511758681E+03  0.65814528735E+03  0.91439374942E+02 0.  0.
          2    1    3    3  502    0 -0.11446995477E+03 -0.17158153950E+03  0.22149615820E+03  0.30266176393E+03  0.00000000000E+00 0. -1.
         -2    1    3    3    0  502 -0.66828758487E+02 -0.28576834174E+03  0.34749892565E+03  0.45484627230E+03  0.00000000000E+00 0.  1.
         11    1    5    5    0    0  0.26088112938E+03  0.35827478793E+03  0.46740968509E+03  0.64412079694E+03  0.00000000000E+00 0. -1.
        -11    1    5    5    0    0  0.53351076617E+02  0.37850936269E+02  0.33584025863E+02  0.73531745157E+02  0.00000000000E+00 0.  1.
          2    1    6    6  503    0 -0.66512888988E+02  0.61250811576E+02  0.22175724135E+03  0.23948256807E+03  0.00000000000E+00 0. -1.
         -2    1    6    6    0  503 -0.66420603747E+02 -0.26654536827E-01  0.41336034546E+03  0.41866271928E+03  0.00000000000E+00 0.  1.
<mgrwt>
<rscale>  0 0.58259314E+03</rscale>
<asrwt>0</asrwt>
<pdfrwt beam="1">  1        1 0.29526247E+00 0.58259314E+03</pdfrwt>
<pdfrwt beam="2">  1       -1 0.32938423E-01 0.58259314E+03</pdfrwt>
<totfact> 0.31060335E+01</totfact>
</mgrwt>
</event>
<event>
12    1  0.1335216E-007  0.1090009E+04  0.7818608E-02  0.9214985E-01
         -2   -1    0    0    0  501 -0.00000000000E+00  0.00000000000E+00  0.10934150524E+04  0.10934150524E+04  0.00000000000E+00 0.  1.
          2   -1    0    0  501    0  0.00000000000E+00 -0.00000000000E+00 -0.40675394830E+04  0.40675394830E+04  0.00000000000E+00 0. -1.
         23    2    1    2    0    0  0.33971859454E+03  0.97950602655E+03  0.72802455476E+03  0.12698467527E+04  0.87465670667E+02 0.  0.
    5000000    2    1    2    0    0 -0.33971859454E+03 -0.97950602655E+03 -0.37021489854E+04  0.38911077826E+04  0.59997657156E+03 0.  0.
         23    2    4    4    0    0  0.10473352595E+03 -0.94983683360E+02 -0.94742168747E+03  0.96250561708E+03  0.93905257918E+02 0.  0.
         23    2    4    4    0    0 -0.44445212049E+03 -0.88452234319E+03 -0.27547272979E+04  0.29286021655E+04  0.90943361977E+02 0.  0.
          4    1    3    3  502    0  0.32410794886E+03  0.88161483226E+03  0.68058966508E+03  0.11599538642E+04  0.00000000000E+00 0. -1.
         -4    1    3    3    0  502  0.15610645680E+02  0.97891194291E+02  0.47434889680E+02  0.10989288847E+03  0.00000000000E+00 0.  1.
         11    1    5    5    0    0  0.10921256901E+03 -0.84302234635E+02 -0.63254452406E+03  0.64741549790E+03  0.00000000000E+00 0.  1.
        -11    1    5    5    0    0 -0.44790430623E+01 -0.10681448726E+02 -0.31487716341E+03  0.31509011919E+03  0.00000000000E+00 0. -1.
          4    1    6    6  503    0 -0.29019119927E+03 -0.50628052686E+03 -0.17116604259E+04  0.18084004860E+04  0.00000000000E+00 0. -1.
         -4    1    6    6    0  503 -0.15426092121E+03 -0.37824181633E+03 -0.10430668720E+04  0.11202016795E+04  0.00000000000E+00 0.  1.
<mgrwt>
<rscale>  0 0.10900090E+04</rscale>
<asrwt>0</asrwt>
<pdfrwt beam="1">  1        2 0.62577531E+00 0.10900090E+04</pdfrwt>
<pdfrwt beam="2">  1       -2 0.16821770E+00 0.10900090E+04</pdfrwt>
<totfact> 0.68118862E-02</totfact>
</mgrwt>
</event>
<event>
12    1  0.1335216E-007  0.1930477E+04  0.7818608E-02  0.8639833E-01
          2   -1    0    0  501    0  0.00000000000E+00  0.00000000000E+00  0.22252408334E+04  0.22252408334E+04  0.00000000000E+00 0. -1.
         -2   -1    0    0    0  501 -0.00000000000E+00 -0.00000000000E+00 -0.25633941028E+04  0.25633941028E+04  0.00000000000E+00 0.  1.
         23    2    1    2    0    0  0.14902559230E+04  0.11854608106E+04  0.12135363653E+04  0.22599916533E+04  0.93336560237E+02 0.  0.
    5000000    2    1    2    0    0 -0.14902559230E+04 -0.11854608106E+04 -0.15516896347E+04  0.25286432829E+04  0.60009672558E+03 0.  0.
         23    2    4    4    0    0 -0.11240924169E+04 -0.64310436333E+03 -0.78416537750E+03  0.15167248508E+04  0.91498359616E+02 0.  0.
         23    2    4    4    0    0 -0.36616350615E+03 -0.54235644731E+03 -0.76752425719E+03  0.10119184321E+04  0.81603913878E+02 0.  0.
          1    1    3    3  502    0  0.26856255582E+03  0.23788179481E+03  0.19225240167E+03  0.40703142463E+03  0.00000000000E+00 0. -1.
         -1    1    3    3    0  502  0.12216933672E+04  0.94757901583E+03  0.10212839636E+04  0.18529602287E+04  0.00000000000E+00 0.  1.
         11    1    5    5    0    0 -0.36240709815E+03 -0.15884671323E+03 -0.23790569051E+03  0.46170369359E+03  0.00000000000E+00 0. -1.
        -11    1    5    5    0    0 -0.76168531872E+03 -0.48425765009E+03 -0.54625968699E+03  0.10550211572E+04  0.00000000000E+00 0.  1.
          1    1    6    6  503    0 -0.26239828498E+03 -0.43833722809E+03 -0.56511970180E+03  0.76180880991E+03  0.00000000000E+00 0. -1.
         -1    1    6    6    0  503 -0.10376522117E+03 -0.10401921922E+03 -0.20240455539E+03  0.25010962224E+03  0.00000000000E+00 0.  1.
<mgrwt>
<rscale>  0 0.19304766E+04</rscale>
<asrwt>0</asrwt>
<pdfrwt beam="1">  1        2 0.34234474E+00 0.19304766E+04</pdfrwt>
<pdfrwt beam="2">  1       -2 0.39436832E+00 0.19304766E+04</pdfrwt>
<totfact> 0.35959206E-02</totfact>
</mgrwt>
</event>
<event>
12    1  0.1335216E-007  0.6409896E+03  0.7818608E-02  0.9823835E-01
          4   -1    0    0  501    0  0.00000000000E+00  0.00000000000E+00  0.26477641287E+03  0.26477641287E+03  0.00000000000E+00 0. -1.
         -4   -1    0    0    0  501 -0.00000000000E+00 -0.00000000000E+00 -0.19338491880E+04  0.19338491880E+04  0.00000000000E+00 0.  1.
         23    2    1    2    0    0  0.34921085745E+02  0.51215136370E+03 -0.26680534406E+03  0.58931035500E+03  0.11217442371E+03 0.  0.
    5000000    2    1    2    0    0 -0.34921085745E+02 -0.51215136370E+03 -0.14022674311E+04  0.16093152459E+04  0.60001925867E+03 0.  0.
         23    2    4    4    0    0 -0.21291490496E+03  0.14752982331E+01 -0.32771372359E+03  0.40165287068E+03  0.92702808146E+02 0.  0.
         23    2    4    4    0    0  0.17799381921E+03 -0.51362666193E+03 -0.10745537075E+04  0.12076623752E+04  0.91041719329E+02 0.  0.
          2    1    3    3  502    0  0.60729292362E+02  0.15648331247E+03 -0.10249893210E+03  0.19667512581E+03  0.00000000000E+00 0. -1.
         -2    1    3    3    0  502 -0.25808206618E+02  0.35566805123E+03 -0.16430641195E+03  0.39263522919E+03  0.00000000000E+00 0.  1.
         13    1    5    5    0    0 -0.18843392557E+03  0.51828093930E+01 -0.32631942263E+03  0.37685351452E+03  0.00000000000E+00 0. -1.
        -13    1    5    5    0    0 -0.24480979391E+02 -0.37075111599E+01 -0.13943009593E+01  0.24799356163E+02  0.00000000000E+00 0.  1.
          2    1    6    6  503    0  0.69202294562E+02 -0.24055744219E+03 -0.59028651948E+03  0.64116691715E+03  0.00000000000E+00 0. -1.
         -2    1    6    6    0  503  0.10879152465E+03 -0.27306921974E+03 -0.48426718801E+03  0.56649545805E+03  0.00000000000E+00 0.  1.
<mgrwt>
<rscale>  0 0.64098957E+03</rscale>
<asrwt>0</asrwt>
<pdfrwt beam="1">  1        4 0.40734833E-01 0.64098957E+03</pdfrwt>
<pdfrwt beam="2">  1       -4 0.29751526E+00 0.64098957E+03</pdfrwt>
<totfact> 0.38302928E-01</totfact>
</mgrwt>
</event>
<event>
12    1  0.1361054E-007  0.1018203E+04  0.7818608E-02  0.9288802E-01
          2   -1    0    0  501    0  0.00000000000E+00  0.00000000000E+00  0.15971346916E+04  0.15971346916E+04  0.00000000000E+00 0. -1.
         -2   -1    0    0    0  501 -0.00000000000E+00 -0.00000000000E+00 -0.76181033998E+03  0.76181033998E+03  0.00000000000E+00 0.  1.
         23    2    1    2    0    0  0.98428374582E+03 -0.24568844858E+03  0.49245039161E+03  0.11315280404E+04  0.93118268490E+02 0.  0.
    5000000    2    1    2    0    0 -0.98428374582E+03  0.24568844858E+03  0.34287395998E+03  0.12274169912E+04  0.59984382279E+03 0.  0.
         23    2    4    4    0    0 -0.53699525950E+03  0.15807649612E+03  0.47877610836E+03  0.74224690957E+03  0.91388322506E+02 0.  0.
         23    2    4    4    0    0 -0.44728848632E+03  0.87611952468E+02 -0.13590214838E+03  0.48517008160E+03  0.95800678130E+02 0.  0.
          4    1    3    3  502    0  0.53097053254E+03 -0.17863405311E+03  0.28426088218E+03  0.62820703633E+03  0.00000000000E+00 0. -1.
         -4    1    3    3    0  502  0.45331321328E+03 -0.67054395477E+02  0.20818950943E+03  0.50332100406E+03  0.00000000000E+00 0.  1.
         11    1    5    5    0    0 -0.38655101948E+03  0.10697653121E+03  0.28692049284E+03  0.49314200602E+03  0.00000000000E+00 0. -1.
        -11    1    5    5    0    0 -0.15044424002E+03  0.51099964908E+02  0.19185561553E+03  0.24910490356E+03  0.00000000000E+00 0.  1.
          1    1    6    6  503    0 -0.22210160194E+03  0.66305185801E+02 -0.24638977633E+02  0.23309349726E+03  0.00000000000E+00 0. -1.
         -1    1    6    6    0  503 -0.22518688439E+03  0.21306766667E+02 -0.11126317075E+03  0.25207658434E+03  0.00000000000E+00 0.  1.
<mgrwt>
<rscale>  0 0.10182032E+04</rscale>
<asrwt>0</asrwt>
<pdfrwt beam="1">  1        2 0.24571303E+00 0.10182032E+04</pdfrwt>
<pdfrwt beam="2">  1       -2 0.11720159E+00 0.10182032E+04</pdfrwt>
<totfact> 0.62561394E+00</totfact>
</mgrwt>
</event>
<event>
12    1  0.1335216E-007  0.4556460E+03  0.7818608E-02  0.1026052E+00
         -2   -1    0    0    0  501 -0.00000000000E+00  0.00000000000E+00  0.77611177775E+03  0.77611177775E+03  0.00000000000E+00 0.  1.
          2   -1    0    0  501    0  0.00000000000E+00 -0.00000000000E+00 -0.29516602460E+03  0.29516602460E+03  0.00000000000E+00 0. -1.
         23    2    1    2    0    0 -0.99073846016E+02  0.25898352848E+03  0.18942307094E+03  0.34821982803E+03  0.92129549220E+02 0.  0.
    5000000    2    1    2    0    0  0.99073846016E+02 -0.25898352848E+03  0.29152268221E+03  0.72305797432E+03  0.60078221095E+03 0.  0.
         23    2    4    4    0    0  0.90375045594E+02  0.16488594624E+03  0.15309295775E+02  0.20910220038E+03  0.90190529078E+02 0.  0.
         23    2    4    4    0    0  0.86988004226E+01 -0.42386947471E+03  0.27621338643E+03  0.51395577393E+03  0.90087191044E+02 0.  0.
          2    1    3    3  502    0 -0.45816459387E+02  0.16529887537E+03  0.16439101490E+03  0.23758634626E+03  0.00000000000E+00 0.  1.
         -2    1    3    3    0  502 -0.53257386629E+02  0.93684653110E+02  0.25032056044E+02  0.11063348177E+03  0.00000000000E+00 0. -1.
         11    1    5    5    0    0 -0.18085609356E+02  0.21091812376E+02 -0.35292723758E+01  0.28007312948E+02  0.00000000000E+00 0. -1.
        -11    1    5    5    0    0  0.10846065495E+03  0.14379413386E+03  0.18838568151E+02  0.18109488744E+03  0.00000000000E+00 0.  1.
          2    1    6    6  503    0  0.83534819450E+01 -0.15121101168E+03  0.15121366581E+03  0.21400963399E+03  0.00000000000E+00 0. -1.
         -2    1    6    6    0  503  0.34531847763E+00 -0.27265846304E+03  0.12499972063E+03  0.29994613995E+03  0.00000000000E+00 0.  1.
<mgrwt>
<rscale>  0 0.45564601E+03</rscale>
<asrwt>0</asrwt>
<pdfrwt beam="1">  1        2 0.45410158E-01 0.45564601E+03</pdfrwt>
<pdfrwt beam="2">  1       -2 0.11940181E+00 0.45564601E+03</pdfrwt>
<totfact> 0.61933058E+01</totfact>
</mgrwt>
</event>
<event>
12    1  0.1335216E-007  0.5748235E+03  0.7818608E-02  0.9959061E-01
          2   -1    0    0  501    0  0.00000000000E+00  0.00000000000E+00  0.18470456178E+04  0.18470456178E+04  0.00000000000E+00 0.  1.
         -2   -1    0    0    0  501 -0.00000000000E+00 -0.00000000000E+00 -0.34477799254E+03  0.34477799254E+03  0.00000000000E+00 0. -1.
         23    2    1    2    0    0 -0.48274411593E+03 -0.15886650897E+03  0.12711968588E+04  0.13723026149E+04  0.94829130487E+02 0.  0.
    5000000    2    1    2    0    0  0.48274411593E+03  0.15886650897E+03  0.23107076651E+03  0.81952099547E+03  0.59995042606E+03 0.  0.
         23    2    4    4    0    0  0.31383998917E+02  0.16261175707E+03 -0.13395395742E+03  0.23218818512E+03  0.92412941056E+02 0.  0.
         23    2    4    4    0    0  0.45136011702E+03 -0.37452481053E+01  0.36502472394E+03  0.58733281034E+03  0.89312926849E+02 0.  0.
          1    1    3    3  502    0 -0.20632223637E+03 -0.81125391887E+02  0.43609513664E+03  0.48921279892E+03  0.00000000000E+00 0. -1.
         -1    1    3    3    0  502 -0.27642187957E+03 -0.77741117082E+02  0.83510172213E+03  0.88308981599E+03  0.00000000000E+00 0.  1.
         13    1    5    5    0    0 -0.23545405618E+02  0.23198363567E+02 -0.30081449427E+01  0.33190346999E+02  0.00000000000E+00 0.  1.
        -13    1    5    5    0    0  0.54929404535E+02  0.13941339351E+03 -0.13094581248E+03  0.19899783812E+03  0.00000000000E+00 0. -1.
          1    1    6    6  503    0  0.43666821453E+03 -0.18530336515E+02  0.35910008360E+03  0.56566365713E+03  0.00000000000E+00 0. -1.
         -1    1    6    6    0  503  0.14691902490E+02  0.14785088410E+02  0.59246403366E+01  0.21669153218E+02  0.00000000000E+00 0.  1.
<mgrwt>
<rscale>  0 0.57482354E+03</rscale>
<asrwt>0</asrwt>
<pdfrwt beam="1">  1        2 0.28416086E+00 0.57482354E+03</pdfrwt>
<pdfrwt beam="2">  1       -2 0.53042769E-01 0.57482354E+03</pdfrwt>
<totfact> 0.28766548E+01</totfact>
</mgrwt>
</event>
<event>
12    1  0.1335216E-007  0.1022747E+04  0.7818608E-02  0.9283942E-01
          1   -1    0    0  501    0  0.00000000000E+00  0.00000000000E+00  0.22095130002E+04  0.22095130002E+04  0.00000000000E+00 0. -1.
         -1   -1    0    0    0  501 -0.00000000000E+00 -0.00000000000E+00 -0.11259962767E+04  0.11259962767E+04  0.00000000000E+00 0.  1.
         23    2    1    2    0    0  0.70247817394E+03 -0.72602947851E+03  0.17217487649E+04  0.19983567959E+04  0.91742497118E+02 0.  0.
    5000000    2    1    2    0    0 -0.70247817394E+03  0.72602947851E+03 -0.63823204133E+03  0.13371524810E+04  0.60003519085E+03 0.  0.
         23    2    4    4    0    0 -0.22397619117E+03  0.15301815605E+03  0.79863044475E+02  0.29768437246E+03  0.93048317782E+02 0.  0.
         23    2    4    4    0    0 -0.47850198276E+03  0.57301132247E+03 -0.71809508580E+03  0.10394681085E+04  0.86759859176E+02 0.  0.
          1    1    3    3  502    0  0.12079933894E+03 -0.17844336322E+03  0.35850378265E+03  0.41828157543E+03  0.00000000000E+00 0. -1.
         -1    1    3    3    0  502  0.58167883500E+03 -0.54758611529E+03  0.13632449822E+04  0.15800752204E+04  0.00000000000E+00 0.  1.
         11    1    5    5    0    0 -0.64831710532E+02  0.44544845534E+01 -0.21966861526E+01  0.65021677563E+02  0.00000000000E+00 0.  1.
        -11    1    5    5    0    0 -0.15914448064E+03  0.14856367149E+03  0.82059730628E+02  0.23266269490E+03  0.00000000000E+00 0. -1.
          3    1    6    6  503    0 -0.91488496731E+02  0.14450508165E+03 -0.12593549290E+03  0.21239494351E+03  0.00000000000E+00 0. -1.
         -3    1    6    6    0  503 -0.38701348603E+03  0.42850624082E+03 -0.59215959291E+03  0.82707316500E+03  0.00000000000E+00 0.  1.
<mgrwt>
<rscale>  0 0.10227471E+04</rscale>
<asrwt>0</asrwt>
<pdfrwt beam="1">  1        1 0.33992508E+00 0.10227471E+04</pdfrwt>
<pdfrwt beam="2">  1       -1 0.17323020E+00 0.10227471E+04</pdfrwt>
<totfact> 0.50537107E-01</totfact>
</mgrwt>
</event>
<event>
12    1  0.1335216E-007  0.1122893E+04  0.7818608E-02  0.9183161E-01
         -2   -1    0    0    0  501 -0.00000000000E+00  0.00000000000E+00  0.60500412092E+03  0.60500412092E+03  0.00000000000E+00 0.  1.
          2   -1    0    0  501    0  0.00000000000E+00 -0.00000000000E+00 -0.23380474157E+04  0.23380474157E+04  0.00000000000E+00 0. -1.
         23    2    1    2    0    0  0.36436676661E+03 -0.10482334518E+04 -0.73154976313E+03  0.13322863885E+04  0.90914546493E+02 0.  0.
    5000000    2    1    2    0    0 -0.36436676661E+03  0.10482334518E+04 -0.10014935316E+04  0.16107651481E+04  0.60001546510E+03 0.  0.
         23    2    4    4    0    0 -0.30133243273E+03  0.63977588723E+03 -0.26441749942E+03  0.76052757611E+03  0.91494038735E+02 0.  0.
         23    2    4    4    0    0 -0.63034333879E+02  0.40845756461E+03 -0.73707603219E+03  0.85023757201E+03  0.93871946237E+02 0.  0.
          4    1    3    3  502    0  0.28155140005E+03 -0.68053814571E+03 -0.49174037640E+03  0.88555742694E+03  0.00000000000E+00 0. -1.
         -4    1    3    3    0  502  0.82815366561E+02 -0.36769530613E+03 -0.23980938673E+03  0.44672896151E+03  0.00000000000E+00 0.  1.
         13    1    5    5    0    0 -0.11729697777E+02  0.84544221774E+02 -0.16037156475E+02  0.86847577014E+02  0.00000000000E+00 0. -1.
        -13    1    5    5    0    0 -0.28960273496E+03  0.55523166546E+03 -0.24838034295E+03  0.67367999910E+03  0.00000000000E+00 0.  1.
          4    1    6    6  503    0 -0.82073728490E+02  0.32181361964E+03 -0.53740683154E+03  0.63174853009E+03  0.00000000000E+00 0.  1.
         -4    1    6    6    0  503  0.19039394611E+02  0.86643944977E+02 -0.19966920065E+03  0.21848904192E+03  0.00000000000E+00 0. -1.
<mgrwt>
<rscale>  0 0.11228933E+04</rscale>
<asrwt>0</asrwt>
<pdfrwt beam="1">  1        2 0.35969960E+00 0.11228933E+04</pdfrwt>
<pdfrwt beam="2">  1       -2 0.93077557E-01 0.11228933E+04</pdfrwt>
<totfact> 0.41789699E+00</totfact>
</mgrwt>
</event>
<event>
12    1  0.1335216E-007  0.1370182E+04  0.7818608E-02  0.8975690E-01
          2   -1    0    0  501    0  0.00000000000E+00  0.00000000000E+00  0.26054295066E+04  0.26054295066E+04  0.00000000000E+00 0. -1.
         -2   -1    0    0    0  501 -0.00000000000E+00 -0.00000000000E+00 -0.73677965368E+03  0.73677965368E+03  0.00000000000E+00 0.  1.
         23    2    1    2    0    0 -0.87743331308E+03 -0.97365719188E+03  0.10693899503E+04  0.16939729787E+04  0.89733162000E+02 0.  0.
    5000000    2    1    2    0    0  0.87743331308E+03  0.97365719188E+03  0.79925990264E+03  0.16482361817E+04  0.59997380976E+03 0.  0.
         23    2    4    4    0    0  0.21082735583E+02 -0.40923288942E+02  0.11063720774E+03  0.14979832911E+03  0.89887431551E+02 0.  0.
         23    2    4    4    0    0  0.85635057750E+03  0.10145804808E+04  0.68862269490E+03  0.14984378526E+04  0.91678342055E+02 0.  0.
          4    1    3    3  502    0 -0.35747436516E+03 -0.37272278799E+03  0.47431239501E+03  0.70120071769E+03  0.00000000000E+00 0. -1.
         -4    1    3    3    0  502 -0.51995894792E+03 -0.60093440388E+03  0.59507755532E+03  0.99277226097E+03  0.00000000000E+00 0.  1.
         13    1    5    5    0    0 -0.77737264640E+01  0.26396337726E+02  0.34822871224E+02  0.44382764997E+02  0.00000000000E+00 0. -1.
        -13    1    5    5    0    0  0.28856462047E+02 -0.67319626667E+02  0.75814336517E+02  0.10541556412E+03  0.00000000000E+00 0.  1.
          4    1    6    6  503    0  0.43250341245E+03  0.47591911797E+03  0.28912222361E+03  0.70508855388E+03  0.00000000000E+00 0. -1.
         -4    1    6    6    0  503  0.42384716505E+03  0.53866136284E+03  0.39950047129E+03  0.79334929867E+03  0.00000000000E+00 0.  1.
<mgrwt>
<rscale>  0 0.13701819E+04</rscale>
<asrwt>0</asrwt>
<pdfrwt beam="1">  1        2 0.40083530E+00 0.13701819E+04</pdfrwt>
<pdfrwt beam="2">  1       -2 0.11335072E+00 0.13701819E+04</pdfrwt>
<totfact> 0.17788498E+00</totfact>
</mgrwt>
</event>
<event>
12    1  0.1335216E-007  0.5346417E+03  0.7818608E-02  0.1005113E+00
         -2   -1    0    0    0  501 -0.00000000000E+00  0.00000000000E+00  0.84727585439E+03  0.84727585439E+03  0.00000000000E+00 0.  1.
          2   -1    0    0  501    0  0.00000000000E+00 -0.00000000000E+00 -0.47922358868E+03  0.47922358868E+03  0.00000000000E+00 0. -1.
         23    2    1    2    0    0 -0.39450299835E+03 -0.23019910310E+03 -0.43190717486E+02  0.46760491116E+03  0.90358575091E+02 0.  0.
    5000000    2    1    2    0    0  0.39450299835E+03  0.23019910310E+03  0.41124298320E+03  0.85889453191E+03  0.59996231794E+03 0.  0.
         23    2    4    4    0    0  0.12309856551E+03  0.29946410572E+03 -0.20012804074E+02  0.33632959496E+03  0.88797954247E+02 0.  0.
         23    2    4    4    0    0  0.27140443284E+03 -0.69265002617E+02  0.43125578727E+03  0.52256493695E+03  0.92922292904E+02 0.  0.
          3    1    3    3  502    0 -0.21742463273E+03 -0.13719267597E+03 -0.68325650038E+02  0.26601446522E+03  0.00000000000E+00 0. -1.
         -3    1    3    3    0  502 -0.17707836562E+03 -0.93006427134E+02  0.25134932552E+02  0.20159044594E+03  0.00000000000E+00 0.  1.
         11    1    5    5    0    0  0.92457788903E+02  0.13336232000E+03 -0.37404034289E+02  0.16653231790E+03  0.00000000000E+00 0. -1.
        -11    1    5    5    0    0  0.30640776606E+02  0.16610178572E+03  0.17391230215E+02  0.16979727706E+03  0.00000000000E+00 0.  1.
          3    1    6    6  503    0  0.69089314676E+02 -0.27806266707E+02  0.19517878334E+03  0.20890495288E+03  0.00000000000E+00 0.  1.
         -3    1    6    6    0  503  0.20231511816E+03 -0.41458735910E+02  0.23607700393E+03  0.31365998407E+03  0.00000000000E+00 0. -1.
<mgrwt>
<rscale>  0 0.53464170E+03</rscale>
<asrwt>0</asrwt>
<pdfrwt beam="1">  1        2 0.73726706E-01 0.53464170E+03</pdfrwt>
<pdfrwt beam="2">  1       -2 0.13035013E+00 0.53464170E+03</pdfrwt>
<totfact> 0.28812760E+01</totfact>
</mgrwt>
</event>
<event>
12    1  0.1335216E-007  0.1432104E+04  0.7818608E-02  0.8930902E-01
         -2   -1    0    0    0  501 -0.00000000000E+00  0.00000000000E+00  0.12930992397E+04  0.12930992397E+04  0.00000000000E+00 0.  1.
          2   -1    0    0  501    0  0.00000000000E+00 -0.00000000000E+00 -0.16374808029E+04  0.16374808029E+04  0.00000000000E+00 0. -1.
         23    2    1    2    0    0  0.24975023343E+03  0.13587599048E+04 -0.33597650931E+03  0.14244004087E+04  0.86212826646E+02 0.  0.
    5000000    2    1    2    0    0 -0.24975023343E+03 -0.13587599048E+04 -0.84050539536E+01  0.15061796339E+04  0.59991898328E+03 0.  0.
         23    2    4    4    0    0 -0.40245006777E+03 -0.11613954049E+04  0.52787104450E+02  0.12336920058E+04  0.91674113853E+02 0.  0.
         23    2    4    4    0    0  0.15269983434E+03 -0.19736449992E+03 -0.61192158404E+02  0.27248762809E+03  0.90747132055E+02 0.  0.
          3    1    3    3  502    0  0.24638842545E+03  0.13479538756E+04 -0.32430012840E+03  0.14081397233E+04  0.00000000000E+00 0. -1.
         -3    1    3    3    0  502  0.33618079798E+01  0.10806029241E+02 -0.11676380907E+02  0.16260685469E+02  0.00000000000E+00 0.  1.
         13    1    5    5    0    0 -0.29395962192E+02 -0.33653109824E+02  0.18247186132E+00  0.44684311452E+02  0.00000000000E+00 0.  1.
        -13    1    5    5    0    0 -0.37305410557E+03 -0.11277422951E+04  0.52604632589E+02  0.11890076943E+04  0.00000000000E+00 0. -1.
          3    1    6    6  503    0  0.12397145833E+03 -0.14907562843E+03 -0.63805223883E+01  0.19399272290E+03  0.00000000000E+00 0. -1.
         -3    1    6    6    0  503  0.28728376005E+02 -0.48288871490E+02 -0.54811636015E+02  0.78494905187E+02  0.00000000000E+00 0.  1.
<mgrwt>
<rscale>  0 0.14321038E+04</rscale>
<asrwt>0</asrwt>
<pdfrwt beam="1">  1        2 0.25192012E+00 0.14321038E+04</pdfrwt>
<pdfrwt beam="2">  1       -2 0.19893834E+00 0.14321038E+04</pdfrwt>
<totfact> 0.13603392E+00</totfact>
</mgrwt>
</event>
<event>
12    1  0.1520388E-007  0.1391202E+04  0.7818608E-02  0.8960212E-01
         -2   -1    0    0    0  501 -0.00000000000E+00  0.00000000000E+00  0.12302190970E+04  0.12302190970E+04  0.00000000000E+00 0.  1.
          2   -1    0    0  501    0  0.00000000000E+00 -0.00000000000E+00 -0.17218734635E+04  0.17218734635E+04  0.00000000000E+00 0. -1.
         23    2    1    2    0    0  0.68874658737E+03 -0.12002596008E+04 -0.39072606270E+03  0.14403340090E+04  0.83067625993E+02 0.  0.
    5000000    2    1    2    0    0 -0.68874658737E+03  0.12002596008E+04 -0.10092830381E+03  0.15117585516E+04  0.60019365614E+03 0.  0.
         23    2    4    4    0    0 -0.24889112624E+03  0.44910755603E+03  0.23807539217E+03  0.57305673863E+03  0.89831752272E+02 0.  0.
         23    2    4    4    0    0 -0.43985546112E+03  0.75115204474E+03 -0.33900369599E+03  0.93870181294E+03  0.92387048501E+02 0.  0.
          4    1    3    3  502    0  0.14358008922E+03 -0.31997719011E+03 -0.88641994301E+02  0.36174306816E+03  0.00000000000E+00 0. -1.
         -4    1    3    3    0  502  0.54516649815E+03 -0.88028241066E+03 -0.30208406840E+03  0.10785909408E+04  0.00000000000E+00 0.  1.
         13    1    5    5    0    0 -0.66829178190E+02  0.21192462617E+03  0.10534358609E+03  0.24591758246E+03  0.00000000000E+00 0.  1.
        -13    1    5    5    0    0 -0.18206194805E+03  0.23718292987E+03  0.13273180608E+03  0.32713915616E+03  0.00000000000E+00 0. -1.
          3    1    6    6  503    0 -0.27521298637E+03  0.55078561960E+03 -0.22726784232E+03  0.65632130757E+03  0.00000000000E+00 0. -1.
         -3    1    6    6    0  503 -0.16464247476E+03  0.20036642514E+03 -0.11173585367E+03  0.28238050537E+03  0.00000000000E+00 0.  1.
<mgrwt>
<rscale>  0 0.13912016E+04</rscale>
<asrwt>0</asrwt>
<pdfrwt beam="1">  1        2 0.26490361E+00 0.13912016E+04</pdfrwt>
<pdfrwt beam="2">  1       -2 0.18926448E+00 0.13912016E+04</pdfrwt>
<totfact> 0.14218294E+00</totfact>
</mgrwt>
</event>
<event>
12    1  0.1335216E-007  0.5431138E+03  0.7818608E-02  0.1003100E+00
          2   -1    0    0  501    0  0.00000000000E+00  0.00000000000E+00  0.27809490240E+04  0.27809490240E+04  0.00000000000E+00 0. -1.
         -2   -1    0    0    0  501 -0.00000000000E+00 -0.00000000000E+00 -0.38038509195E+03  0.38038509195E+03  0.00000000000E+00 0.  1.
         23    2    1    2    0    0  0.40676900429E+03 -0.29554932612E+03  0.23195496276E+04  0.23745665512E+04  0.73792980500E+02 0.  0.
    5000000    2    1    2    0    0 -0.40676900429E+03  0.29554932612E+03  0.81014304418E+02  0.78676756477E+03  0.59969113420E+03 0.  0.
         23    2    4    4    0    0 -0.52782547178E+02  0.19556602821E+03  0.28084868415E+03  0.35813280325E+03  0.91384094357E+02 0.  0.
         23    2    4    4    0    0 -0.35398645711E+03  0.99983297910E+02 -0.19983437973E+03  0.42863476152E+03  0.92146121897E+02 0.  0.
          1    1    3    3  502    0  0.18161932283E+03 -0.16935751563E+03  0.12361752663E+04  0.12608714588E+04  0.00000000000E+00 0. -1.
         -1    1    3    3    0  502  0.22514968146E+03 -0.12619181049E+03  0.10833743613E+04  0.11136950924E+04  0.00000000000E+00 0.  1.
         13    1    5    5    0    0 -0.10044139364E+02  0.35479355168E+02  0.12621972653E+03  0.13149558450E+03  0.00000000000E+00 0. -1.
        -13    1    5    5    0    0 -0.42738407813E+02  0.16008667304E+03  0.15462895762E+03  0.22663721875E+03  0.00000000000E+00 0.  1.
          1    1    6    6  503    0 -0.16340339040E+03  0.89614843122E+02 -0.76904777874E+02  0.20160811730E+03  0.00000000000E+00 0. -1.
         -1    1    6    6    0  503 -0.19058306671E+03  0.10368454787E+02 -0.12292960186E+03  0.22702664422E+03  0.00000000000E+00 0.  1.
<mgrwt>
<rscale>  0 0.54311381E+03</rscale>
<asrwt>0</asrwt>
<pdfrwt beam="1">  1        2 0.42783830E+00 0.54311381E+03</pdfrwt>
<pdfrwt beam="2">  1       -2 0.58520785E-01 0.54311381E+03</pdfrwt>
<totfact> 0.71698334E+00</totfact>
</mgrwt>
</event>
<event>
12    1  0.1335216E-007  0.1295542E+04  0.7818608E-02  0.9033108E-01
          1   -1    0    0  501    0  0.00000000000E+00  0.00000000000E+00  0.15675631157E+04  0.15675631157E+04  0.00000000000E+00 0. -1.
         -1   -1    0    0    0  501 -0.00000000000E+00 -0.00000000000E+00 -0.11945378369E+04  0.11945378369E+04  0.00000000000E+00 0.  1.
         23    2    1    2    0    0  0.12503926588E+04  0.11156241227E+03  0.52309864755E+03  0.13629812197E+04  0.90319639022E+02 0.  0.
    5000000    2    1    2    0    0 -0.12503926588E+04 -0.11156241227E+03 -0.15007336869E+03  0.13991197329E+04  0.59923788082E+03 0.  0.
         23    2    4    4    0    0 -0.12072995020E+04 -0.38952410020E+02 -0.25384158657E+03  0.12375578064E+04  0.89578989069E+02 0.  0.
         23    2    4    4    0    0 -0.43093156839E+02 -0.72610002255E+02  0.10376821787E+03  0.16156192649E+03  0.90582451157E+02 0.  0.
          2    1    3    3  502    0  0.15515430558E+03 -0.11339337779E+02  0.82201939861E+02  0.17595055567E+03  0.00000000000E+00 0. -1.
         -2    1    3    3    0  502  0.10952383533E+04  0.12290175005E+03  0.44089670769E+03  0.11870306641E+04  0.00000000000E+00 0.  1.
         11    1    5    5    0    0 -0.11131437004E+04 -0.57312093657E+02 -0.22224428648E+03  0.11365588840E+04  0.00000000000E+00 0.  1.
        -11    1    5    5    0    0 -0.94155801584E+02  0.18359683637E+02 -0.31597300089E+02  0.10099892241E+03  0.00000000000E+00 0. -1.
          1    1    6    6  503    0 -0.45566607024E+02  0.44248919353E+01  0.48672803034E+02  0.66820184820E+02  0.00000000000E+00 0. -1.
         -1    1    6    6    0  503  0.24734501850E+01 -0.77034894191E+02  0.55095414839E+02  0.94741741672E+02  0.00000000000E+00 0.  1.
<mgrwt>
<rscale>  0 0.12955417E+04</rscale>
<asrwt>0</asrwt>
<pdfrwt beam="1">  1        1 0.24116356E+00 0.12955417E+04</pdfrwt>
<pdfrwt beam="2">  1       -1 0.18377505E+00 0.12955417E+04</pdfrwt>
<totfact> 0.11132331E+00</totfact>
</mgrwt>
</event>
<event>
12    1  0.1335216E-007  0.5187425E+03  0.7818608E-02  0.1008999E+00
          1   -1    0    0  501    0  0.00000000000E+00  0.00000000000E+00  0.10288411114E+04  0.10288411114E+04  0.00000000000E+00 0. -1.
         -1   -1    0    0    0  501 -0.00000000000E+00 -0.00000000000E+00 -0.65244642945E+03  0.65244642945E+03  0.00000000000E+00 0.  1.
         23    2    1    2    0    0  0.19791001167E+03  0.31117772639E+03  0.78193793859E+03  0.86878082919E+03  0.85751030483E+02 0.  0.
    5000000    2    1    2    0    0 -0.19791001167E+03 -0.31117772639E+03 -0.40554325664E+03  0.81250671168E+03  0.59975150970E+03 0.  0.
         23    2    4    4    0    0  0.18280830963E+03 -0.15101631086E+03 -0.26563532204E+03  0.36716297340E+03  0.89564058142E+02 0.  0.
         23    2    4    4    0    0 -0.38071832130E+03 -0.16016141553E+03 -0.13990793460E+03  0.44534373827E+03  0.90325499480E+02 0.  0.
          1    1    3    3  502    0  0.66924510566E+02  0.15312264175E+03  0.43030841600E+03  0.46161755427E+03  0.00000000000E+00 0. -1.
         -1    1    3    3    0  502  0.13098550111E+03  0.15805508464E+03  0.35162952260E+03  0.40716327492E+03  0.00000000000E+00 0.  1.
         13    1    5    5    0    0  0.10353919689E+03 -0.53180707980E+02 -0.74230292099E+02  0.13805321170E+03  0.00000000000E+00 0. -1.
        -13    1    5    5    0    0  0.79269112734E+02 -0.97835602882E+02 -0.19140502994E+03  0.22910976171E+03  0.00000000000E+00 0.  1.
          2    1    6    6  503    0 -0.32152268149E+03 -0.96140880924E+02 -0.10959684311E+03  0.35303168656E+03  0.00000000000E+00 0. -1.
         -2    1    6    6    0  503 -0.59195639811E+02 -0.64020534604E+02 -0.30311091493E+02  0.92312051711E+02  0.00000000000E+00 0.  1.
<mgrwt>
<rscale>  0 0.51874254E+03</rscale>
<asrwt>0</asrwt>
<pdfrwt beam="1">  1        1 0.15828325E+00 0.51874254E+03</pdfrwt>
<pdfrwt beam="2">  1       -1 0.10037637E+00 0.51874254E+03</pdfrwt>
<totfact> 0.14519242E+01</totfact>
</mgrwt>
</event>
<event>
12    1  0.1335216E-007  0.9378531E+03  0.7818608E-02  0.9379462E-01
         -1   -1    0    0    0  501 -0.00000000000E+00  0.00000000000E+00  0.60945601442E+03  0.60945601442E+03  0.00000000000E+00 0.  1.
          1   -1    0    0  501    0  0.00000000000E+00 -0.00000000000E+00 -0.21422478269E+04  0.21422478269E+04  0.00000000000E+00 0. -1.
         23    2    1    2    0    0 -0.90023102214E+03 -0.17895400031E+03 -0.72203266176E+02  0.92527377115E+03  0.92075037243E+02 0.  0.
    5000000    2    1    2    0    0  0.90023102214E+03  0.17895400031E+03 -0.14605885463E+04  0.18264300701E+04  0.60007288905E+03 0.  0.
         23    2    4    4    0    0  0.31991174341E+03 -0.30176048826E+02 -0.99102191572E+03  0.10457688195E+04  0.90850806185E+02 0.  0.
         23    2    4    4    0    0  0.58031927872E+03  0.20913004913E+03 -0.46956663054E+03  0.78066125059E+03  0.91833136481E+02 0.  0.
          2    1    3    3  502    0 -0.53195876725E+03 -0.60373359446E+02 -0.32742413818E+02  0.53637406560E+03  0.00000000000E+00 0. -1.
         -2    1    3    3    0  502 -0.36827225488E+03 -0.11858064086E+03 -0.39460852358E+02  0.38889970554E+03  0.00000000000E+00 0.  1.
         13    1    5    5    0    0  0.79618273363E+02  0.26022070017E+02 -0.32090758120E+03  0.33165930298E+03  0.00000000000E+00 0. -1.
        -13    1    5    5    0    0  0.24029347005E+03 -0.56198118842E+02 -0.67011433451E+03  0.71410951655E+03  0.00000000000E+00 0.  1.
          3    1    6    6  503    0  0.19016538624E+03  0.11252563138E+03 -0.18505402922E+03  0.28821846848E+03  0.00000000000E+00 0. -1.
         -3    1    6    6    0  503  0.39015389248E+03  0.96604417754E+02 -0.28451260132E+03  0.49244278211E+03  0.00000000000E+00 0.  1.
<mgrwt>
<rscale>  0 0.93785310E+03</rscale>
<asrwt>0</asrwt>
<pdfrwt beam="1">  1        1 0.32957659E+00 0.93785310E+03</pdfrwt>
<pdfrwt beam="2">  1       -1 0.93762464E-01 0.93785310E+03</pdfrwt>
<totfact> 0.26891754E+00</totfact>
</mgrwt>
</event>
<event>
12    1  0.1335216E-007  0.7715170E+03  0.7818608E-02  0.9602185E-01
         -1   -1    0    0    0  501 -0.00000000000E+00  0.00000000000E+00  0.35852112906E+03  0.35852112906E+03  0.00000000000E+00 0.  1.
          1   -1    0    0  501    0  0.00000000000E+00 -0.00000000000E+00 -0.17107078198E+04  0.17107078198E+04  0.00000000000E+00 0. -1.
         23    2    1    2    0    0  0.22691514721E+03  0.62437026002E+03 -0.60672421127E+03  0.90436280740E+03  0.91810202283E+02 0.  0.
    5000000    2    1    2    0    0 -0.22691514721E+03 -0.62437026002E+03 -0.74546247943E+03  0.11648661414E+04  0.59989175153E+03 0.  0.
         23    2    4    4    0    0 -0.37071386727E+03 -0.61536385066E+03 -0.62249092856E+03  0.95430308529E+03  0.84249524420E+02 0.  0.
         23    2    4    4    0    0  0.14379872006E+03 -0.90064093559E+01 -0.12297155087E+03  0.21056305613E+03  0.91954396217E+02 0.  0.
          1    1    3    3  502    0  0.57254091337E+02  0.26565277302E+03 -0.28185172378E+03  0.39152243995E+03  0.00000000000E+00 0.  1.
         -1    1    3    3    0  502  0.16966105588E+03  0.35871748700E+03 -0.32487248748E+03  0.51284036745E+03  0.00000000000E+00 0. -1.
         11    1    5    5    0    0 -0.11607577908E+03 -0.13133593308E+03 -0.12876107064E+03  0.21749052191E+03  0.00000000000E+00 0.  1.
        -11    1    5    5    0    0 -0.25463808819E+03 -0.48402791758E+03 -0.49372985792E+03  0.73681256338E+03  0.00000000000E+00 0. -1.
          4    1    6    6  503    0  0.47244104835E+02 -0.26453652519E+02 -0.11721553319E+01  0.54158795421E+02  0.00000000000E+00 0. -1.
         -4    1    6    6    0  503  0.96554615222E+02  0.17447243163E+02 -0.12179939553E+03  0.15640426071E+03  0.00000000000E+00 0.  1.
<mgrwt>
<rscale>  0 0.77151700E+03</rscale>
<asrwt>0</asrwt>
<pdfrwt beam="1">  1        1 0.26318581E+00 0.77151700E+03</pdfrwt>
<pdfrwt beam="2">  1       -1 0.55157099E-01 0.77151700E+03</pdfrwt>
<totfact> 0.16124463E+01</totfact>
</mgrwt>
</event>
<event>
12    1  0.1335216E-007  0.1402803E+04  0.7818608E-02  0.8951792E-01
         -1   -1    0    0    0  501 -0.00000000000E+00  0.00000000000E+00  0.80142363714E+03  0.80142363714E+03  0.00000000000E+00 0.  1.
          1   -1    0    0  501    0  0.00000000000E+00 -0.00000000000E+00 -0.43881164501E+04  0.43881164501E+04  0.00000000000E+00 0. -1.
         23    2    1    2    0    0 -0.85368972343E+02  0.13816366724E+04 -0.10056773904E+03  0.13909584471E+04  0.91890018470E+02 0.  0.
    5000000    2    1    2    0    0  0.85368972343E+02 -0.13816366724E+04 -0.34861250739E+04  0.37985816401E+04  0.59995557336E+03 0.  0.
         23    2    4    4    0    0 -0.87875375110E+02 -0.89588394436E+03 -0.15697962293E+04  0.18118684874E+04  0.90978517701E+02 0.  0.
         23    2    4    4    0    0  0.17324434745E+03 -0.48575272801E+03 -0.19163288446E+04  0.19867131527E+04  0.93507187131E+02 0.  0.
          3    1    3    3  502    0 -0.26387557998E+02  0.18541615579E+03  0.14062116209E+02  0.18781160017E+03  0.00000000000E+00 0. -1.
         -3    1    3    3    0  502 -0.58981414345E+02  0.11962205166E+04 -0.11462985525E+03  0.12031468469E+04  0.00000000000E+00 0.  1.
         13    1    5    5    0    0 -0.86554447161E+02 -0.75749174245E+03 -0.13851102055E+04  0.15810805462E+04  0.00000000000E+00 0.  1.
        -13    1    5    5    0    0 -0.13209279492E+01 -0.13839220191E+03 -0.18468602380E+03  0.23078794116E+03  0.00000000000E+00 0. -1.
          1    1    6    6  503    0  0.15423706986E+03 -0.34641496931E+03 -0.12776163077E+04  0.13327024553E+04  0.00000000000E+00 0. -1.
         -1    1    6    6    0  503  0.19007277588E+02 -0.13933775870E+03 -0.63871253686E+03  0.65401069742E+03  0.00000000000E+00 0.  1.
<mgrwt>
<rscale>  0 0.14028026E+04</rscale>
<asrwt>0</asrwt>
<pdfrwt beam="1">  1        1 0.67509483E+00 0.14028026E+04</pdfrwt>
<pdfrwt beam="2">  1       -1 0.12329595E+00 0.14028026E+04</pdfrwt>
<totfact> 0.23882370E-02</totfact>
</mgrwt>
</event>
<event>
12    1  0.1335216E-007  0.7559244E+03  0.7818608E-02  0.9626101E-01
         -2   -1    0    0    0  501 -0.00000000000E+00  0.00000000000E+00  0.16464177773E+04  0.16464177773E+04  0.00000000000E+00 0.  1.
          2   -1    0    0  501    0  0.00000000000E+00 -0.00000000000E+00 -0.39363901378E+03  0.39363901378E+03  0.00000000000E+00 0. -1.
         23    2    1    2    0    0 -0.36102684968E+03  0.56462353907E+03  0.74879219612E+03  0.10090945043E+04  0.91879478650E+02 0.  0.
    5000000    2    1    2    0    0  0.36102684968E+03 -0.56462353907E+03  0.50398656737E+03  0.10309622867E+04  0.59978383567E+03 0.  0.
         23    2    4    4    0    0  0.19442832719E+03 -0.60886623690E+03  0.21182253804E+03  0.67954324436E+03  0.91595657515E+02 0.  0.
         23    2    4    4    0    0  0.16659852249E+03  0.44242697833E+02  0.29216402932E+03  0.35141904238E+03  0.91777117584E+02 0.  0.
          2    1    3    3  502    0 -0.78300215608E+02  0.19363076803E+03  0.20498691063E+03  0.29264899047E+03  0.00000000000E+00 0.  1.
         -2    1    3    3    0  502 -0.28272663407E+03  0.37099277104E+03  0.54380528549E+03  0.71644551384E+03  0.00000000000E+00 0. -1.
         13    1    5    5    0    0  0.74921703933E+01 -0.14544605823E+03  0.57134366274E+02  0.15644495608E+03  0.00000000000E+00 0. -1.
        -13    1    5    5    0    0  0.18693615680E+03 -0.46342017867E+03  0.15468817177E+03  0.52309828828E+03  0.00000000000E+00 0.  1.
          3    1    6    6  503    0  0.64585989511E+01  0.29707321731E+02  0.77187014711E+02  0.82958264837E+02  0.00000000000E+00 0. -1.
         -3    1    6    6    0  503  0.16013992353E+03  0.14535376102E+02  0.21497701461E+03  0.26846077755E+03  0.00000000000E+00 0.  1.
<mgrwt>
<rscale>  0 0.75592441E+03</rscale>
<asrwt>0</asrwt>
<pdfrwt beam="1">  1        2 0.60559849E-01 0.75592441E+03</pdfrwt>
<pdfrwt beam="2">  1       -2 0.25329504E+00 0.75592441E+03</pdfrwt>
<totfact> 0.51067675E+00</totfact>
</mgrwt>
</event>
<event>
12    1  0.2053979E-007  0.1477657E+04  0.7818608E-02  0.8899448E-01
          1   -1    0    0  501    0  0.00000000000E+00  0.00000000000E+00  0.25524461575E+04  0.25524461575E+04  0.00000000000E+00 0. -1.
         -1   -1    0    0    0  501 -0.00000000000E+00 -0.00000000000E+00 -0.90094792246E+03  0.90094792246E+03  0.00000000000E+00 0.  1.
         23    2    1    2    0    0  0.14422635556E+04 -0.17325147646E+03  0.90002406949E+03  0.17113154954E+04  0.91745087455E+02 0.  0.
    5000000    2    1    2    0    0 -0.14422635556E+04  0.17325147646E+03  0.75147416558E+03  0.17420785846E+04  0.59998677933E+03 0.  0.
         23    2    4    4    0    0 -0.13146820329E+04  0.74962592071E+02  0.46169986039E+03  0.13982998341E+04  0.89818857261E+02 0.  0.
         23    2    4    4    0    0 -0.12758152271E+03  0.98288884391E+02  0.28977430519E+03  0.34377875048E+03  0.90977643403E+02 0.  0.
          1    1    3    3  502    0  0.10087192465E+04 -0.10982608216E+03  0.67564626190E+03  0.12190464133E+04  0.00000000000E+00 0. -1.
         -1    1    3    3    0  502  0.43354430918E+03 -0.63425394306E+02  0.22437780759E+03  0.49226908211E+03  0.00000000000E+00 0.  1.
         11    1    5    5    0    0 -0.49175494237E+03  0.26312961662E+01  0.13510046374E+03  0.50998233535E+03  0.00000000000E+00 0.  1.
        -11    1    5    5    0    0 -0.82292709055E+03  0.72331295905E+02  0.32659939666E+03  0.88831749878E+03  0.00000000000E+00 0. -1.
          3    1    6    6  503    0  0.13787974491E+02  0.29539404179E+01  0.16888413230E+02  0.22001193285E+02  0.00000000000E+00 0. -1.
         -3    1    6    6    0  503 -0.14136949721E+03  0.95334943973E+02  0.27288589196E+03  0.32177755719E+03  0.00000000000E+00 0.  1.
<mgrwt>
<rscale>  0 0.14776567E+04</rscale>
<asrwt>0</asrwt>
<pdfrwt beam="1">  1        1 0.39268402E+00 0.14776567E+04</pdfrwt>
<pdfrwt beam="2">  1       -1 0.13860737E+00 0.14776567E+04</pdfrwt>
<totfact> 0.51117283E-01</totfact>
</mgrwt>
</event>
<event>
12    1  0.1335216E-007  0.8064659E+03  0.7818608E-02  0.9550705E-01
         -1   -1    0    0    0  501 -0.00000000000E+00  0.00000000000E+00  0.72449828827E+03  0.72449828827E+03  0.00000000000E+00 0. -1.
          1   -1    0    0  501    0  0.00000000000E+00 -0.00000000000E+00 -0.96606841593E+03  0.96606841593E+03  0.00000000000E+00 0.  1.
         23    2    1    2    0    0 -0.34905809648E+03  0.62672275369E+03 -0.21460907610E+03  0.75504880208E+03  0.97049849434E+02 0.  0.
    5000000    2    1    2    0    0  0.34905809648E+03 -0.62672275369E+03 -0.26961051558E+02  0.93551790212E+03  0.59986988771E+03 0.  0.
         23    2    4    4    0    0  0.45844543968E+03 -0.63734354443E+03 -0.19524226488E+01  0.79032520948E+03  0.90725464933E+02 0.  0.
         23    2    4    4    0    0 -0.10938734320E+03  0.10620790748E+02 -0.25008628909E+02  0.14519269264E+03  0.91526468453E+02 0.  0.
          4    1    3    3  502    0 -0.17724620463E+03  0.31151021584E+03 -0.56720813061E+02  0.36286647994E+03  0.00000000000E+00 0.  1.
         -4    1    3    3    0  502 -0.17181189185E+03  0.31521253785E+03 -0.15788826304E+03  0.39218232214E+03  0.00000000000E+00 0. -1.
         11    1    5    5    0    0  0.19988473038E+03 -0.26230529174E+03 -0.44672765336E+02  0.33279667588E+03  0.00000000000E+00 0. -1.
        -11    1    5    5    0    0  0.25856070931E+03 -0.37503825269E+03  0.42720342687E+02  0.45752853360E+03  0.00000000000E+00 0.  1.
          3    1    6    6  503    0 -0.13094491470E+02 -0.14253499044E+01 -0.44329162824E+02  0.46244697057E+02  0.00000000000E+00 0. -1.
         -3    1    6    6    0  503 -0.96292851734E+02  0.12046140652E+02  0.19320533915E+02  0.98947995585E+02  0.00000000000E+00 0.  1.
<mgrwt>
<rscale>  0 0.80646593E+03</rscale>
<asrwt>0</asrwt>
<pdfrwt beam="1">  1        1 0.14862591E+00 0.80646593E+03</pdfrwt>
<pdfrwt beam="2">  1       -1 0.11146128E+00 0.80646593E+03</pdfrwt>
<totfact> 0.12187556E+01</totfact>
</mgrwt>
</event>
<event>
12    1  0.1335216E-007  0.5202905E+03  0.7818608E-02  0.1008614E+00
          1   -1    0    0  501    0  0.00000000000E+00  0.00000000000E+00  0.38243054051E+03  0.38243054051E+03  0.00000000000E+00 0. -1.
         -1   -1    0    0    0  501 -0.00000000000E+00 -0.00000000000E+00 -0.90105489481E+03  0.90105489481E+03  0.00000000000E+00 0.  1.
         23    2    1    2    0    0  0.27406292501E+03  0.25434929688E+03  0.33768005820E+02  0.38631050474E+03  0.91057543155E+02 0.  0.
    5000000    2    1    2    0    0 -0.27406292501E+03 -0.25434929688E+03 -0.55239236012E+03  0.89717493058E+03  0.59998457052E+03 0.  0.
         23    2    4    4    0    0 -0.43163548721E+03 -0.22384542509E+03 -0.28120046959E+03  0.56919592727E+03  0.92164697049E+02 0.  0.
         23    2    4    4    0    0  0.15757256219E+03 -0.30503871792E+02 -0.27119189053E+03  0.32797900331E+03  0.90915271380E+02 0.  0.
          3    1    3    3  502    0  0.52158734833E+02  0.10354671998E+03  0.35914699002E+00  0.11594216587E+03  0.00000000000E+00 0. -1.
         -3    1    3    3    0  502  0.22190419018E+03  0.15080257689E+03  0.33408858830E+02  0.27036833887E+03  0.00000000000E+00 0.  1.
         13    1    5    5    0    0 -0.32318116791E+03 -0.12469331797E+03 -0.17659457266E+03  0.38881889606E+03  0.00000000000E+00 0. -1.
        -13    1    5    5    0    0 -0.10845431930E+03 -0.99152107111E+02 -0.10460589692E+03  0.18037703122E+03  0.00000000000E+00 0.  1.
          2    1    6    6  503    0  0.17565080081E+02  0.55453197203E+01  0.23624504700E+01  0.18570508374E+02  0.00000000000E+00 0. -1.
         -2    1    6    6    0  503  0.14000748211E+03 -0.36049191513E+02 -0.27355434100E+03  0.30940849493E+03  0.00000000000E+00 0.  1.
<mgrwt>
<rscale>  0 0.52029045E+03</rscale>
<asrwt>0</asrwt>
<pdfrwt beam="1">  1        1 0.58835468E-01 0.52029045E+03</pdfrwt>
<pdfrwt beam="2">  1       -1 0.13862383E+00 0.52029045E+03</pdfrwt>
<totfact> 0.28787850E+01</totfact>
</mgrwt>
</event>
<event>
12    1  0.1335216E-007  0.1013597E+04  0.7818608E-02  0.9293756E-01
         -1   -1    0    0    0  501 -0.00000000000E+00  0.00000000000E+00  0.74049942756E+03  0.74049942756E+03  0.00000000000E+00 0.  1.
          1   -1    0    0  501    0  0.00000000000E+00 -0.00000000000E+00 -0.19157809900E+04  0.19157809900E+04  0.00000000000E+00 0. -1.
         23    2    1    2    0    0 -0.26714794429E+03  0.94711626573E+03  0.29717073235E+02  0.98876039167E+03  0.91470010065E+02 0.  0.
    5000000    2    1    2    0    0  0.26714794429E+03 -0.94711626573E+03 -0.12049986357E+04  0.16675200259E+04  0.60017004243E+03 0.  0.
         23    2    4    4    0    0 -0.68891989266E+02 -0.29610533350E+03 -0.88262363650E+02  0.32880368797E+03  0.88865885858E+02 0.  0.
         23    2    4    4    0    0  0.33603993356E+03 -0.65101093222E+03 -0.11167362720E+04  0.13387163379E+04  0.91233005818E+02 0.  0.
          3    1    3    3  502    0 -0.15689010706E+03  0.45431292804E+03 -0.21924355053E+02  0.48113970905E+03  0.00000000000E+00 0. -1.
         -3    1    3    3    0  502 -0.11025783723E+03  0.49280333769E+03  0.51641428288E+02  0.50762068262E+03  0.00000000000E+00 0.  1.
         13    1    5    5    0    0 -0.32292327551E+01 -0.48719935346E+02 -0.50214641507E+02  0.70039776313E+02  0.00000000000E+00 0. -1.
        -13    1    5    5    0    0 -0.65662756511E+02 -0.24738539816E+03 -0.38047722143E+02  0.25876391165E+03  0.00000000000E+00 0.  1.
          3    1    6    6  503    0  0.12446107410E+03 -0.32628228384E+03 -0.57191195497E+03  0.67009997161E+03  0.00000000000E+00 0. -1.
         -3    1    6    6    0  503  0.21157885946E+03 -0.32472864839E+03 -0.54482431707E+03  0.66861636633E+03  0.00000000000E+00 0.  1.
<mgrwt>
<rscale>  0 0.10135973E+04</rscale>
<asrwt>0</asrwt>
<pdfrwt beam="1">  1        1 0.29473553E+00 0.10135973E+04</pdfrwt>
<pdfrwt beam="2">  1       -1 0.11392299E+00 0.10135973E+04</pdfrwt>
<totfact> 0.24056330E+00</totfact>
</mgrwt>
</event>
<event>
12    1  0.1335216E-007  0.9669671E+03  0.7818608E-02  0.9345536E-01
          1   -1    0    0  501    0  0.00000000000E+00  0.00000000000E+00  0.15237122147E+04  0.15237122147E+04  0.00000000000E+00 0. -1.
         -1   -1    0    0    0  501 -0.00000000000E+00 -0.00000000000E+00 -0.77041542599E+03  0.77041542599E+03  0.00000000000E+00 0.  1.
         23    2    1    2    0    0 -0.29221263726E+03 -0.84453001272E+03 -0.12229115540E+03  0.90657471970E+03  0.91123147207E+02 0.  0.
    5000000    2    1    2    0    0  0.29221263726E+03  0.84453001272E+03  0.87558794409E+03  0.13875529210E+04  0.60002474354E+03 0.  0.
         23    2    4    4    0    0  0.41777823403E+03  0.76317639709E+03  0.83255078374E+03  0.12075739174E+04  0.90094909155E+02 0.  0.
         23    2    4    4    0    0 -0.12556559677E+03  0.81353615633E+02  0.43037160354E+02  0.17997900353E+03  0.90305673526E+02 0.  0.
          1    1    3    3  502    0 -0.10859047204E+03 -0.19802365702E+03 -0.42046193444E+02  0.22972405564E+03  0.00000000000E+00 0. -1.
         -1    1    3    3    0  502 -0.18362216522E+03 -0.64650635570E+03 -0.80244961960E+02  0.67685066406E+03  0.00000000000E+00 0.  1.
         13    1    5    5    0    0  0.30941454467E+03  0.60452477991E+03  0.60254316385E+03  0.90787985674E+03  0.00000000000E+00 0. -1.
        -13    1    5    5    0    0  0.10836368936E+03  0.15865161718E+03  0.23000761989E+03  0.29969406069E+03  0.00000000000E+00 0.  1.
          1    1    6    6  503    0 -0.38809518480E+02 -0.86576869491E+01  0.37786885401E+02  0.54854197435E+02  0.00000000000E+00 0. -1.
         -1    1    6    6    0  503 -0.86756078291E+02  0.90011302582E+02  0.52502749533E+01  0.12512480609E+03  0.00000000000E+00 0.  1.
<mgrwt>
<rscale>  0 0.96696706E+03</rscale>
<asrwt>0</asrwt>
<pdfrwt beam="1">  1        1 0.23441726E+00 0.96696706E+03</pdfrwt>
<pdfrwt beam="2">  1       -1 0.11852545E+00 0.96696706E+03</pdfrwt>
<totfact> 0.40592787E+00</totfact>
</mgrwt>
</event>
<event>
12    1  0.1335216E-007  0.1225941E+04  0.7818608E-02  0.9090448E-01
          3   -1    0    0  501    0  0.00000000000E+00  0.00000000000E+00  0.13724207287E+04  0.13724207287E+04  0.00000000000E+00 0. -1.
         -3   -1    0    0    0  501 -0.00000000000E+00 -0.00000000000E+00 -0.17379743110E+04  0.17379743110E+04  0.00000000000E+00 0.  1.
         23    2    1    2    0    0 -0.10439204033E+03  0.12155924950E+04 -0.10280475879E+04  0.15979495709E+04  0.89432523495E+02 0.  0.
    5000000    2    1    2    0    0  0.10439204033E+03 -0.12155924950E+04  0.66249400555E+03  0.15124454688E+04  0.60002514688E+03 0.  0.
         23    2    4    4    0    0  0.12900245073E+03 -0.10357904147E+04  0.75335996068E+03  0.12901148917E+04  0.85684233564E+02 0.  0.
         23    2    4    4    0    0 -0.24610410398E+02 -0.17980208026E+03 -0.90865955128E+02  0.22233057716E+03  0.90773362665E+02 0.  0.
          2    1    3    3  502    0 -0.32778134315E+02  0.84294767094E+03 -0.69285081559E+03  0.10916397916E+04  0.00000000000E+00 0. -1.
         -2    1    3    3    0  502 -0.71613906014E+02  0.37264482403E+03 -0.33519677231E+03  0.50630977927E+03  0.00000000000E+00 0.  1.
         13    1    5    5    0    0  0.19683242541E+02 -0.47896100517E+03  0.32556138777E+03  0.57946638532E+03  0.00000000000E+00 0.  1.
        -13    1    5    5    0    0  0.10931920819E+03 -0.55682940954E+03  0.42779857291E+03  0.71064850636E+03  0.00000000000E+00 0. -1.
          1    1    6    6  503    0 -0.19119687611E+02 -0.88446256485E+02 -0.94368448016E+02  0.13074290314E+03  0.00000000000E+00 0. -1.
         -1    1    6    6    0  503 -0.54907227864E+01 -0.91355823779E+02  0.35024928874E+01  0.91587674015E+02  0.00000000000E+00 0.  1.
<mgrwt>
<rscale>  0 0.12259413E+04</rscale>
<asrwt>0</asrwt>
<pdfrwt beam="1">  1        3 0.21114165E+00 0.12259413E+04</pdfrwt>
<pdfrwt beam="2">  1       -3 0.26738066E+00 0.12259413E+04</pdfrwt>
<totfact> 0.17991480E-02</totfact>
</mgrwt>
</event>
<event>
12    1  0.1335216E-007  0.6347815E+03  0.7818608E-02  0.9835762E-01
          2   -1    0    0  501    0  0.00000000000E+00  0.00000000000E+00  0.35391592927E+03  0.35391592927E+03  0.00000000000E+00 0. -1.
         -2   -1    0    0    0  501 -0.00000000000E+00 -0.00000000000E+00 -0.16732138689E+04  0.16732138689E+04  0.00000000000E+00 0.  1.
         23    2    1    2    0    0 -0.53703645616E+03  0.93326749337E+02 -0.97906720922E+02  0.56121315621E+03  0.90864972945E+02 0.  0.
    5000000    2    1    2    0    0  0.53703645616E+03 -0.93326749337E+02 -0.12213912187E+04  0.14659166420E+04  0.59999754556E+03 0.  0.
         23    2    4    4    0    0 -0.65869214209E+02 -0.13420980276E+02 -0.51886568017E+03  0.53233656660E+03  0.98192413085E+02 0.  0.
         23    2    4    4    0    0  0.60290567037E+03 -0.79905769061E+02 -0.70252553858E+03  0.93358007541E+03  0.90274279537E+02 0.  0.
          1    1    3    3  502    0 -0.19642224481E+03 -0.99638493683E+01 -0.34326813545E+02  0.19964795686E+03  0.00000000000E+00 0. -1.
         -1    1    3    3    0  502 -0.34061421136E+03  0.10329059871E+03 -0.63579907377E+02  0.36156519935E+03  0.00000000000E+00 0.  1.
         11    1    5    5    0    0 -0.38480474439E+02  0.31352012802E+02 -0.11750002945E+03  0.12755372413E+03  0.00000000000E+00 0.  1.
        -11    1    5    5    0    0 -0.27388739769E+02 -0.44772993078E+02 -0.40136565072E+03  0.40478284246E+03  0.00000000000E+00 0. -1.
          3    1    6    6  503    0  0.65620583984E+02 -0.38211011576E+02 -0.85465171689E+02  0.11432601637E+03  0.00000000000E+00 0. -1.
         -3    1    6    6    0  503  0.53728508639E+03 -0.41694757485E+02 -0.61706036689E+03  0.81925405903E+03  0.00000000000E+00 0.  1.
<mgrwt>
<rscale>  0 0.63478151E+03</rscale>
<asrwt>0</asrwt>
<pdfrwt beam="1">  1        2 0.54448604E-01 0.63478151E+03</pdfrwt>
<pdfrwt beam="2">  1       -2 0.25741752E+00 0.63478151E+03</pdfrwt>
<totfact> 0.55217361E+00</totfact>
</mgrwt>
</event>
<event>
12    1  0.1335216E-007  0.8946060E+03  0.7818608E-02  0.9432349E-01
         -1   -1    0    0    0  501 -0.00000000000E+00  0.00000000000E+00  0.11838399732E+04  0.11838399732E+04  0.00000000000E+00 0.  1.
          1   -1    0    0  501    0  0.00000000000E+00 -0.00000000000E+00 -0.82422677449E+03  0.82422677449E+03  0.00000000000E+00 0. -1.
         23    2    1    2    0    0 -0.78914320104E+03 -0.11570258119E+03 -0.24482386064E+03  0.84141945609E+03  0.10915080987E+03 0.  0.
    5000000    2    1    2    0    0  0.78914320104E+03  0.11570258119E+03  0.60443705930E+03  0.11666472916E+04  0.59965628922E+03 0.  0.
         23    2    4    4    0    0 -0.21363113348E+02 -0.11538817498E+03  0.11734389973E+03  0.18890065692E+03  0.90238871015E+02 0.  0.
         23    2    4    4    0    0  0.81050631439E+03  0.23109075617E+03  0.48709315957E+03  0.97774663464E+03  0.91680489767E+02 0.  0.
          3    1    3    3  502    0 -0.34845201125E+03 -0.63169629040E+00 -0.12790107117E+03  0.37118443824E+03  0.00000000000E+00 0. -1.
         -3    1    3    3    0  502 -0.44069118979E+03 -0.11507088490E+03 -0.11692278947E+03  0.47023501784E+03  0.00000000000E+00 0.  1.
         13    1    5    5    0    0  0.28596009794E+02 -0.28234629932E+02  0.62892698078E+02  0.74635230120E+02  0.00000000000E+00 0. -1.
        -13    1    5    5    0    0 -0.49959123142E+02 -0.87153545048E+02  0.54451201657E+02  0.11426542680E+03  0.00000000000E+00 0.  1.
          3    1    6    6  503    0  0.54505562956E+03  0.12800406112E+03  0.36198568059E+03  0.66671156576E+03  0.00000000000E+00 0. -1.
         -3    1    6    6    0  503  0.26545068484E+03  0.10308669505E+03  0.12510747898E+03  0.31103506888E+03  0.00000000000E+00 0.  1.
<mgrwt>
<rscale>  0 0.89460600E+03</rscale>
<asrwt>0</asrwt>
<pdfrwt beam="1">  1        1 0.12680412E+00 0.89460600E+03</pdfrwt>
<pdfrwt beam="2">  1       -1 0.18212923E+00 0.89460600E+03</pdfrwt>
<totfact> 0.43005965E+00</totfact>
</mgrwt>
</event>
<event>
12    1  0.1335216E-007  0.2877967E+03  0.7818608E-02  0.1091505E+00
          2   -1    0    0  501    0  0.00000000000E+00  0.00000000000E+00  0.79829642056E+03  0.79829642056E+03  0.00000000000E+00 0.  1.
         -2   -1    0    0    0  501 -0.00000000000E+00 -0.00000000000E+00 -0.72999709589E+03  0.72999709589E+03  0.00000000000E+00 0. -1.
         23    2    1    2    0    0 -0.24024249144E+03  0.11568055384E+02  0.62428127777E+03  0.67548525391E+03  0.93289548542E+02 0.  0.
    5000000    2    1    2    0    0  0.24024249144E+03 -0.11568055384E+02 -0.55598195311E+03  0.85280826255E+03  0.60026304724E+03 0.  0.
         23    2    4    4    0    0  0.86761613199E+01 -0.49691761312E+02 -0.58952202965E+03  0.59851335861E+03  0.90207926877E+02 0.  0.
         23    2    4    4    0    0  0.23156633012E+03  0.38123705928E+02  0.33540076545E+02  0.25429490394E+03  0.92003147955E+02 0.  0.
          1    1    3    3  502    0 -0.20763624847E+03 -0.36839006063E+01  0.42552361716E+03  0.47349417268E+03  0.00000000000E+00 0. -1.
         -1    1    3    3    0  502 -0.32606242975E+02  0.15251955991E+02  0.19875766061E+03  0.20199108123E+03  0.00000000000E+00 0.  1.
         11    1    5    5    0    0  0.11405782799E+02 -0.72933335911E+02 -0.34137259724E+03  0.34926295755E+03  0.00000000000E+00 0. -1.
        -11    1    5    5    0    0 -0.27296214787E+01  0.23241574599E+02 -0.24814943241E+03  0.24925040106E+03  0.00000000000E+00 0.  1.
          1    1    6    6  503    0  0.63062293902E+02  0.11855272588E+02  0.52227003163E+02  0.82734879341E+02  0.00000000000E+00 0. -1.
         -1    1    6    6    0  503  0.16850403622E+03  0.26268433340E+02 -0.18686926618E+02  0.17156002460E+03  0.00000000000E+00 0.  1.
<mgrwt>
<rscale>  0 0.28779668E+03</rscale>
<asrwt>0</asrwt>
<pdfrwt beam="1">  1        2 0.12281483E+00 0.28779668E+03</pdfrwt>
<pdfrwt beam="2">  1       -2 0.11230725E+00 0.28779668E+03</pdfrwt>
<totfact> 0.23445652E+01</totfact>
</mgrwt>
</event>
<event>
12    1  0.1335216E-007  0.8593506E+03  0.7818608E-02  0.9477872E-01
          1   -1    0    0  501    0  0.00000000000E+00  0.00000000000E+00  0.18972319672E+04  0.18972319672E+04  0.00000000000E+00 0. -1.
         -1   -1    0    0    0  501 -0.00000000000E+00 -0.00000000000E+00 -0.41953782470E+03  0.41953782470E+03  0.00000000000E+00 0.  1.
         23    2    1    2    0    0  0.65680502621E+03  0.39137941678E+03  0.40703627101E+03  0.87079033174E+03  0.89591213867E+02 0.  0.
    5000000    2    1    2    0    0 -0.65680502621E+03 -0.39137941678E+03  0.10706578715E+04  0.14459794602E+04  0.59998135899E+03 0.  0.
         23    2    4    4    0    0  0.83662861791E+02 -0.15781895484E+02  0.74036454026E+02  0.14564322509E+03  0.92097827453E+02 0.  0.
         23    2    4    4    0    0 -0.74046788800E+03 -0.37559752129E+03  0.99662141749E+03  0.13003362351E+04  0.90850885321E+02 0.  0.
          3    1    3    3  502    0  0.57231432670E+03  0.36987571149E+03  0.37573696029E+03  0.77815807766E+03  0.00000000000E+00 0. -1.
         -3    1    3    3    0  502  0.84490699506E+02  0.21503705283E+02  0.31299310723E+02  0.92632254079E+02  0.00000000000E+00 0.  1.
         11    1    5    5    0    0  0.74725254799E+02 -0.46358116465E+02  0.33533691770E+02  0.94114011447E+02  0.00000000000E+00 0. -1.
        -11    1    5    5    0    0  0.89376069919E+01  0.30576220981E+02  0.40502762256E+02  0.51529213642E+02  0.00000000000E+00 0.  1.
          1    1    6    6  503    0 -0.45093182553E+03 -0.22652895999E+03  0.53544750270E+03  0.73577096242E+03  0.00000000000E+00 0. -1.
         -1    1    6    6    0  503 -0.28953606247E+03 -0.14906856130E+03  0.46117391479E+03  0.56456527269E+03  0.00000000000E+00 0.  1.
<mgrwt>
<rscale>  0 0.85935059E+03</rscale>
<asrwt>0</asrwt>
<pdfrwt beam="1">  1        1 0.29188184E+00 0.85935059E+03</pdfrwt>
<pdfrwt beam="2">  1       -1 0.64544282E-01 0.85935059E+03</pdfrwt>
<totfact> 0.87573491E+00</totfact>
</mgrwt>
</event>
<event>
12    1  0.1335216E-007  0.1463758E+04  0.7818608E-02  0.8908918E-01
          1   -1    0    0  501    0  0.00000000000E+00  0.00000000000E+00  0.16899553168E+04  0.16899553168E+04  0.00000000000E+00 0. -1.
         -1   -1    0    0    0  501 -0.00000000000E+00 -0.00000000000E+00 -0.12924165431E+04  0.12924165431E+04  0.00000000000E+00 0.  1.
         23    2    1    2    0    0  0.11504812470E+04  0.80743908361E+03  0.22951851079E+02  0.14088664074E+04  0.93876477591E+02 0.  0.
    5000000    2    1    2    0    0 -0.11504812470E+04 -0.80743908361E+03  0.37458692269E+03  0.15735054525E+04  0.60003255980E+03 0.  0.
         23    2    4    4    0    0 -0.44291390581E+03 -0.65508208327E+03  0.14987226412E+03  0.80989452292E+03  0.90344778013E+02 0.  0.
         23    2    4    4    0    0 -0.70756734120E+03 -0.15235700034E+03  0.22471465857E+03  0.76361092955E+03  0.93492117654E+02 0.  0.
          4    1    3    3  502    0  0.15390561021E+03  0.14418548093E+03 -0.12145364336E+02  0.21124369728E+03  0.00000000000E+00 0. -1.
         -4    1    3    3    0  502  0.99657563680E+03  0.66325360268E+03  0.35097215415E+02  0.11976227101E+04  0.00000000000E+00 0.  1.
         11    1    5    5    0    0 -0.37706251254E+03 -0.51210316030E+03  0.93979133633E+02  0.64285135351E+03  0.00000000000E+00 0. -1.
        -11    1    5    5    0    0 -0.65851393273E+02 -0.14297892298E+03  0.55893130483E+02  0.16704316941E+03  0.00000000000E+00 0.  1.
          3    1    6    6  503    0 -0.32010058525E+03 -0.98811175310E+02  0.65761550301E+02  0.34139802949E+03  0.00000000000E+00 0. -1.
         -3    1    6    6    0  503 -0.38746675595E+03 -0.53545825030E+02  0.15895310827E+03  0.42221290006E+03  0.00000000000E+00 0.  1.
<mgrwt>
<rscale>  0 0.14637579E+04</rscale>
<asrwt>0</asrwt>
<pdfrwt beam="1">  1        1 0.25999313E+00 0.14637579E+04</pdfrwt>
<pdfrwt beam="2">  1       -1 0.19883331E+00 0.14637579E+04</pdfrwt>
<totfact> 0.70546189E-01</totfact>
</mgrwt>
</event>
<event>
12    1  0.1335216E-007  0.7164733E+03  0.7818608E-02  0.9689468E-01
         -1   -1    0    0    0  501 -0.00000000000E+00  0.00000000000E+00  0.51706789046E+03  0.51706789046E+03  0.00000000000E+00 0.  1.
          1   -1    0    0  501    0  0.00000000000E+00 -0.00000000000E+00 -0.12810302140E+04  0.12810302140E+04  0.00000000000E+00 0. -1.
         23    2    1    2    0    0 -0.46417057918E+03  0.38721729173E+03  0.54701686712E+02  0.61663368635E+03  0.10887272856E+03 0.  0.
    5000000    2    1    2    0    0  0.46417057918E+03 -0.38721729173E+03 -0.81866401030E+03  0.11814644182E+04  0.60021317216E+03 0.  0.
         23    2    4    4    0    0  0.13574521406E+03  0.13977910610E+03 -0.29092687914E+03  0.36152174556E+03  0.89969783057E+02 0.  0.
         23    2    4    4    0    0  0.32842536511E+03 -0.52699639783E+03 -0.52773713116E+03  0.81994267260E+03  0.90615026197E+02 0.  0.
          1    1    3    3  502    0 -0.10880276109E+03  0.63897648440E+02  0.51230432266E+02  0.13618189118E+03  0.00000000000E+00 0. -1.
         -1    1    3    3    0  502 -0.35536781809E+03  0.32331964329E+03  0.34712544463E+01  0.48045179517E+03  0.00000000000E+00 0.  1.
         13    1    5    5    0    0  0.27701434460E+02  0.73085423041E+02 -0.16559385823E+03  0.18311246385E+03  0.00000000000E+00 0.  1.
        -13    1    5    5    0    0  0.10804377960E+03  0.66693683057E+02 -0.12533302091E+03  0.17840928171E+03  0.00000000000E+00 0. -1.
          1    1    6    6  503    0  0.17732321197E+03 -0.30079494749E+03 -0.35364453849E+03  0.49697643963E+03  0.00000000000E+00 0. -1.
         -1    1    6    6    0  503  0.15110215314E+03 -0.22620145034E+03 -0.17409259267E+03  0.32296623297E+03  0.00000000000E+00 0.  1.
<mgrwt>
<rscale>  0 0.71647333E+03</rscale>
<asrwt>0</asrwt>
<pdfrwt beam="1">  1        1 0.19708157E+00 0.71647333E+03</pdfrwt>
<pdfrwt beam="2">  1       -1 0.79548907E-01 0.71647333E+03</pdfrwt>
<totfact> 0.15298885E+01</totfact>
</mgrwt>
</event>
<event>
12    1  0.1335216E-007  0.3905246E+03  0.7818608E-02  0.1047111E+00
         -2   -1    0    0    0  501 -0.00000000000E+00  0.00000000000E+00  0.13985396760E+03  0.13985396760E+03  0.00000000000E+00 0.  1.
          2   -1    0    0  501    0  0.00000000000E+00 -0.00000000000E+00 -0.13907502073E+04  0.13907502073E+04  0.00000000000E+00 0. -1.
         23    2    1    2    0    0 -0.15451812416E+00  0.15295854955E+03 -0.62533392055E+03  0.65051596970E+03  0.93446096145E+02 0.  0.
    5000000    2    1    2    0    0  0.15451812416E+00 -0.15295854955E+03 -0.62556231913E+03  0.88008820518E+03  0.59985889343E+03 0.  0.
         23    2    4    4    0    0 -0.88593256896E+02  0.20286342698E+03 -0.26354571374E+03  0.35610169335E+03  0.91376898627E+02 0.  0.
         23    2    4    4    0    0  0.88747775020E+02 -0.35582197654E+03 -0.36201660539E+03  0.52398651183E+03  0.94975762417E+02 0.  0.
          2    1    3    3  502    0  0.38573492043E+02  0.78173702166E+02 -0.22238195565E+03  0.23885722974E+03  0.00000000000E+00 0.  1.
         -2    1    3    3    0  502 -0.38728010167E+02  0.74784847388E+02 -0.40295196490E+03  0.41165873996E+03  0.00000000000E+00 0. -1.
         13    1    5    5    0    0 -0.89218018839E+02  0.97077556298E+02 -0.16794229914E+03  0.21351468957E+03  0.00000000000E+00 0. -1.
        -13    1    5    5    0    0  0.62476194239E+00  0.10578587068E+03 -0.95603414602E+02  0.14258700378E+03  0.00000000000E+00 0.  1.
          1    1    6    6  503    0  0.30243969942E+02 -0.24356950778E+03 -0.18986408934E+03  0.31030497138E+03  0.00000000000E+00 0. -1.
         -1    1    6    6    0  503  0.58503805078E+02 -0.11225246875E+03 -0.17215251604E+03  0.21368154045E+03  0.00000000000E+00 0.  1.
<mgrwt>
<rscale>  0 0.39052463E+03</rscale>
<asrwt>0</asrwt>
<pdfrwt beam="1">  1        2 0.21396156E+00 0.39052463E+03</pdfrwt>
<pdfrwt beam="2">  1       -2 0.21515996E-01 0.39052463E+03</pdfrwt>
<totfact> 0.28683349E+02</totfact>
</mgrwt>
</event>
<event>
12    1  0.1335216E-007  0.6159087E+03  0.7818608E-02  0.9872939E-01
         -2   -1    0    0    0  501 -0.00000000000E+00  0.00000000000E+00  0.80071954064E+03  0.80071954064E+03  0.00000000000E+00 0. -1.
          2   -1    0    0  501    0  0.00000000000E+00 -0.00000000000E+00 -0.79713656452E+03  0.79713656452E+03  0.00000000000E+00 0.  1.
         23    2    1    2    0    0  0.12303164664E+02 -0.59783727071E+03 -0.32813670291E+03  0.68814173581E+03  0.91129482933E+02 0.  0.
    5000000    2    1    2    0    0 -0.12303164664E+02  0.59783727071E+03  0.33171967903E+03  0.90971436934E+03  0.59998459831E+03 0.  0.
         23    2    4    4    0    0  0.92879640353E+02  0.35529143351E+03 -0.10381065247E+03  0.39236113631E+03  0.91170057616E+02 0.  0.
         23    2    4    4    0    0 -0.10518280502E+03  0.24254583720E+03  0.43553033150E+03  0.51735323303E+03  0.89865412977E+02 0.  0.
          1    1    3    3  502    0  0.26631402099E+02 -0.18949252050E+03 -0.64759474053E+02  0.20201593102E+03  0.00000000000E+00 0. -1.
         -1    1    3    3    0  502 -0.14328237435E+02 -0.40834475021E+03 -0.26337722885E+03  0.48612580480E+03  0.00000000000E+00 0.  1.
         13    1    5    5    0    0  0.59670218410E+02  0.25063401016E+03 -0.28489289778E+02  0.25920953232E+03  0.00000000000E+00 0. -1.
        -13    1    5    5    0    0  0.33209421942E+02  0.10465742335E+03 -0.75321362691E+02  0.13315160399E+03  0.00000000000E+00 0.  1.
          4    1    6    6  503    0 -0.95894916392E+02  0.22476675909E+03  0.33394105065E+03  0.41380255714E+03  0.00000000000E+00 0. -1.
         -4    1    6    6    0  503 -0.92878886241E+01  0.17779078110E+02  0.10158928085E+03  0.10355067589E+03  0.00000000000E+00 0.  1.
<mgrwt>
<rscale>  0 0.61590868E+03</rscale>
<asrwt>0</asrwt>
<pdfrwt beam="1">  1        2 0.12263639E+00 0.61590868E+03</pdfrwt>
<pdfrwt beam="2">  1       -2 0.12318762E+00 0.61590868E+03</pdfrwt>
<totfact> 0.17729113E+01</totfact>
</mgrwt>
</event>
<event>
12    1  0.1335216E-007  0.7587723E+03  0.7818608E-02  0.9621688E-01
         -2   -1    0    0    0  501 -0.00000000000E+00  0.00000000000E+00  0.29318447584E+03  0.29318447584E+03  0.00000000000E+00 0.  1.
          2   -1    0    0  501    0  0.00000000000E+00 -0.00000000000E+00 -0.24030447505E+04  0.24030447505E+04  0.00000000000E+00 0. -1.
         23    2    1    2    0    0 -0.67968860229E+02  0.72555094823E+03 -0.95127583704E+03  0.12018215163E+04  0.91680392394E+02 0.  0.
    5000000    2    1    2    0    0  0.67968860229E+02 -0.72555094823E+03 -0.11585844377E+04  0.14944077101E+04  0.59991046040E+03 0.  0.
         23    2    4    4    0    0  0.52885533373E+02 -0.68740547063E+03 -0.12003086197E+04  0.13872420871E+04  0.91524122499E+02 0.  0.
         23    2    4    4    0    0  0.15083326856E+02 -0.38145477595E+02  0.41724182081E+02  0.10716562300E+03  0.89782955917E+02 0.  0.
          2    1    3    3  502    0 -0.50611515154E+02  0.54046542914E+03 -0.77053209391E+03  0.94254130589E+03  0.00000000000E+00 0. -1.
         -2    1    3    3    0  502 -0.17357345075E+02  0.18508551908E+03 -0.18074374313E+03  0.25928021036E+03  0.00000000000E+00 0.  1.
         11    1    5    5    0    0  0.76982598224E+02 -0.44670766948E+03 -0.80163465804E+03  0.92091920784E+03  0.00000000000E+00 0. -1.
        -11    1    5    5    0    0 -0.24097064851E+02 -0.24069780115E+03 -0.39867396170E+03  0.46632287929E+03  0.00000000000E+00 0.  1.
          2    1    6    6  503    0  0.28983302475E+02 -0.60623123125E+02  0.13571929873E+02  0.68552112734E+02  0.00000000000E+00 0.  1.
         -2    1    6    6    0  503 -0.13899975620E+02  0.22477645531E+02  0.28152252208E+02  0.38613510268E+02  0.00000000000E+00 0. -1.
<mgrwt>
<rscale>  0 0.75877229E+03</rscale>
<asrwt>0</asrwt>
<pdfrwt beam="1">  1        2 0.36969920E+00 0.75877229E+03</pdfrwt>
<pdfrwt beam="2">  1       -2 0.45105303E-01 0.75877229E+03</pdfrwt>
<totfact> 0.19235165E+01</totfact>
</mgrwt>
</event>
<event>
12    1  0.1335216E-007  0.8059523E+03  0.7818608E-02  0.9551441E-01
         -3   -1    0    0    0  501 -0.00000000000E+00  0.00000000000E+00  0.15620372916E+04  0.15620372916E+04  0.00000000000E+00 0.  1.
          3   -1    0    0  501    0  0.00000000000E+00 -0.00000000000E+00 -0.52643115365E+03  0.52643115365E+03  0.00000000000E+00 0. -1.
         23    2    1    2    0    0 -0.51706821493E+03 -0.57413118478E+03  0.72144365702E+03  0.10609234220E+04  0.89952214170E+02 0.  0.
    5000000    2    1    2    0    0  0.51706821493E+03  0.57413118478E+03  0.31416248088E+03  0.10275450232E+04  0.60013711278E+03 0.  0.
         23    2    4    4    0    0  0.24873543553E+03  0.91297781381E+02  0.37281518783E+03  0.46470177412E+03  0.82170388942E+02 0.  0.
         23    2    4    4    0    0  0.26833277941E+03  0.48283340340E+03 -0.58652706950E+02  0.56284324911E+03  0.90674180973E+02 0.  0.
          3    1    3    3  502    0 -0.20906579816E+03 -0.18489398112E+03  0.22018616679E+03  0.35549436038E+03  0.00000000000E+00 0. -1.
         -3    1    3    3    0  502 -0.30800241677E+03 -0.38923720365E+03  0.50125749023E+03  0.70542906161E+03  0.00000000000E+00 0.  1.
         11    1    5    5    0    0  0.18306645381E+03  0.10379806921E+03  0.28862435356E+03  0.35719936052E+03  0.00000000000E+00 0.  1.
        -11    1    5    5    0    0  0.65668981713E+02 -0.12500287833E+02  0.84190834272E+02  0.10750241360E+03  0.00000000000E+00 0. -1.
          1    1    6    6  503    0  0.60099275754E+02  0.47568069522E+02 -0.17216769100E+02  0.78556103025E+02  0.00000000000E+00 0. -1.
         -1    1    6    6    0  503  0.20823350365E+03  0.43526533387E+03 -0.41435937850E+02  0.48428714608E+03  0.00000000000E+00 0.  1.
<mgrwt>
<rscale>  0 0.80595228E+03</rscale>
<asrwt>0</asrwt>
<pdfrwt beam="1">  1        3 0.80989409E-01 0.80595228E+03</pdfrwt>
<pdfrwt beam="2">  1       -3 0.24031343E+00 0.80595228E+03</pdfrwt>
<totfact> 0.30713842E-01</totfact>
</mgrwt>
</event>
<event>
12    1  0.1335216E-007  0.7847842E+03  0.7818608E-02  0.9582306E-01
          1   -1    0    0  501    0  0.00000000000E+00  0.00000000000E+00  0.89453467181E+03  0.89453467181E+03  0.00000000000E+00 0. -1.
         -1   -1    0    0    0  501 -0.00000000000E+00 -0.00000000000E+00 -0.80370353652E+03  0.80370353652E+03  0.00000000000E+00 0.  1.
         23    2    1    2    0    0 -0.48196185332E+03 -0.53569661004E+03  0.20288184972E+03  0.75430645936E+03  0.92515423698E+02 0.  0.
    5000000    2    1    2    0    0  0.48196185332E+03  0.53569661004E+03 -0.11205071443E+03  0.94393174898E+03  0.59932770507E+03 0.  0.
         23    2    4    4    0    0  0.32161051616E+03  0.58379845568E+03 -0.23757815879E+03  0.71366602817E+03  0.92853956714E+02 0.  0.
         23    2    4    4    0    0  0.16035133716E+03 -0.48101845641E+02  0.12552744436E+03  0.23026572080E+03  0.96118801525E+02 0.  0.
          4    1    3    3  502    0 -0.26716472221E+03 -0.22815311171E+03  0.10276939707E+03  0.36604969629E+03  0.00000000000E+00 0. -1.
         -4    1    3    3    0  502 -0.21479713111E+03 -0.30754349833E+03  0.10011245265E+03  0.38825676307E+03  0.00000000000E+00 0.  1.
         13    1    5    5    0    0  0.19486673605E+03  0.41887686487E+03 -0.19447041269E+03  0.50124805651E+03  0.00000000000E+00 0.  1.
        -13    1    5    5    0    0  0.12674378012E+03  0.16492159080E+03 -0.43107746098E+02  0.21241797166E+03  0.00000000000E+00 0. -1.
          2    1    6    6  503    0  0.14763301630E+03 -0.56293757239E+02  0.70177235870E+02  0.17288533495E+03  0.00000000000E+00 0. -1.
         -2    1    6    6    0  503  0.12718320862E+02  0.81919115984E+01  0.55350208490E+02  0.57380385857E+02  0.00000000000E+00 0.  1.
<mgrwt>
<rscale>  0 0.78478421E+03</rscale>
<asrwt>0</asrwt>
<pdfrwt beam="1">  1        1 0.13762072E+00 0.78478421E+03</pdfrwt>
<pdfrwt beam="2">  1       -1 0.12364670E+00 0.78478421E+03</pdfrwt>
<totfact> 0.10853427E+01</totfact>
</mgrwt>
</event>
<event>
12    1  0.1335216E-007  0.5987491E+03  0.7818608E-02  0.9908005E-01
         -2   -1    0    0    0  501 -0.00000000000E+00  0.00000000000E+00  0.42666113861E+03  0.42666113861E+03  0.00000000000E+00 0.  1.
          2   -1    0    0  501    0  0.00000000000E+00 -0.00000000000E+00 -0.85938424424E+03  0.85938424424E+03  0.00000000000E+00 0. -1.
         23    2    1    2    0    0  0.18314930222E+03 -0.41218537311E+03 -0.17512186217E+03  0.49245180987E+03  0.91655167496E+02 0.  0.
    5000000    2    1    2    0    0 -0.18314930222E+03  0.41218537311E+03 -0.25760124346E+03  0.79359357298E+03  0.59999325808E+03 0.  0.
         23    2    4    4    0    0  0.11713810943E+03  0.39915636286E+03 -0.83020156860E+02  0.43417203123E+03  0.92551972227E+02 0.  0.
         23    2    4    4    0    0 -0.30028741165E+03  0.13029010252E+02 -0.17458108660E+03  0.35942154176E+03  0.91449462415E+02 0.  0.
          4    1    3    3  502    0  0.96282969373E+01 -0.11604194239E+03 -0.33661625619E+02  0.12120866939E+03  0.00000000000E+00 0. -1.
         -4    1    3    3    0  502  0.17352100528E+03 -0.29614343072E+03 -0.14146023655E+03  0.37124314049E+03  0.00000000000E+00 0.  1.
         13    1    5    5    0    0 -0.14512232628E+02  0.72891744645E+02 -0.15817357372E+02  0.75986841805E+02  0.00000000000E+00 0. -1.
        -13    1    5    5    0    0  0.13165034206E+03  0.32626461821E+03 -0.67202799487E+02  0.35818518942E+03  0.00000000000E+00 0.  1.
          1    1    6    6  503    0 -0.25683910310E+03  0.40872589174E+02 -0.12782783699E+03  0.28978759348E+03  0.00000000000E+00 0. -1.
         -1    1    6    6    0  503 -0.43448308551E+02 -0.27843578923E+02 -0.46753249609E+02  0.69633948274E+02  0.00000000000E+00 0.  1.
<mgrwt>
<rscale>  0 0.59874908E+03</rscale>
<asrwt>0</asrwt>
<pdfrwt beam="1">  1        2 0.13221296E+00 0.59874908E+03</pdfrwt>
<pdfrwt beam="2">  1       -2 0.65640176E-01 0.59874908E+03</pdfrwt>
<totfact> 0.68610163E+01</totfact>
</mgrwt>
</event>
<event>
12    1  0.1335216E-007  0.5630435E+03  0.7818608E-02  0.9985192E-01
          1   -1    0    0  501    0  0.00000000000E+00  0.00000000000E+00  0.15941402471E+04  0.15941402471E+04  0.00000000000E+00 0. -1.
         -1   -1    0    0    0  501 -0.00000000000E+00 -0.00000000000E+00 -0.24051762030E+03  0.24051762030E+03  0.00000000000E+00 0.  1.
         23    2    1    2    0    0  0.34829949354E+03 -0.31277990813E+03  0.54971257058E+03  0.72768481203E+03  0.90539865653E+02 0.  0.
    5000000    2    1    2    0    0 -0.34829949354E+03  0.31277990813E+03  0.80391005627E+03  0.11069730554E+04  0.59997846522E+03 0.  0.
         23    2    4    4    0    0 -0.33483887215E+03  0.41889943268E+03  0.38975298896E+03  0.66950190286E+03  0.93443033601E+02 0.  0.
         23    2    4    4    0    0 -0.13460621393E+02 -0.10611952455E+03  0.41415706731E+03  0.43747115256E+03  0.91719087997E+02 0.  0.
          3    1    3    3  502    0  0.10048612094E+03 -0.56114726643E+02  0.91969040412E+02  0.14732490435E+03  0.00000000000E+00 0. -1.
         -3    1    3    3    0  502  0.24781337260E+03 -0.25666518149E+03  0.45774353017E+03  0.58035990767E+03  0.00000000000E+00 0.  1.
         13    1    5    5    0    0 -0.79728273427E+02  0.15150242361E+03  0.16005462790E+03  0.23436524029E+03  0.00000000000E+00 0.  1.
        -13    1    5    5    0    0 -0.25511059872E+03  0.26739700907E+03  0.22969836106E+03  0.43513666257E+03  0.00000000000E+00 0. -1.
          1    1    6    6  503    0 -0.26234420252E+02 -0.57916406375E+02  0.94187714712E+02  0.11363925614E+03  0.00000000000E+00 0. -1.
         -1    1    6    6    0  503  0.12773798859E+02 -0.48203118176E+02  0.31996935260E+03  0.32383189642E+03  0.00000000000E+00 0.  1.
<mgrwt>
<rscale>  0 0.56304351E+03</rscale>
<asrwt>0</asrwt>
<pdfrwt beam="1">  1        1 0.24525234E+00 0.56304351E+03</pdfrwt>
<pdfrwt beam="2">  1       -1 0.37002712E-01 0.56304351E+03</pdfrwt>
<totfact> 0.41771665E+01</totfact>
</mgrwt>
</event>
<event>
12    1  0.1335216E-007  0.5293867E+03  0.7818608E-02  0.1006381E+00
          2   -1    0    0  501    0  0.00000000000E+00  0.00000000000E+00  0.44337871485E+03  0.44337871485E+03  0.00000000000E+00 0. -1.
         -2   -1    0    0    0  501 -0.00000000000E+00 -0.00000000000E+00 -0.75133095018E+03  0.75133095018E+03  0.00000000000E+00 0.  1.
         23    2    1    2    0    0  0.40391180721E+03 -0.75199920502E+02 -0.51803461011E+02  0.42371199375E+03  0.89713315782E+02 0.  0.
    5000000    2    1    2    0    0 -0.40391180721E+03  0.75199920502E+02 -0.25614877432E+03  0.77099767128E+03  0.60002119835E+03 0.  0.
         23    2    4    4    0    0 -0.25826215533E+03 -0.19435522466E+03  0.35630741267E+02  0.33837888842E+03  0.93581131547E+02 0.  0.
         23    2    4    4    0    0 -0.14564965189E+03  0.26955514516E+03 -0.29177951559E+03  0.43261878285E+03  0.90276952643E+02 0.  0.
          3    1    3    3  502    0  0.23059404452E+03 -0.26764039719E+02 -0.70938578745E+02  0.24273897327E+03  0.00000000000E+00 0.  1.
         -3    1    3    3    0  502  0.17331776270E+03 -0.48435880783E+02  0.19135117734E+02  0.18097302049E+03  0.00000000000E+00 0. -1.
         11    1    5    5    0    0 -0.13389897213E+03 -0.64544334370E+02 -0.20499078137E+02  0.15005038501E+03  0.00000000000E+00 0. -1.
        -11    1    5    5    0    0 -0.12436318320E+03 -0.12981089029E+03  0.56129819404E+02  0.18832850342E+03  0.00000000000E+00 0.  1.
          3    1    6    6  503    0 -0.11621087703E+03  0.12474842337E+03 -0.17453742461E+03  0.24398862609E+03  0.00000000000E+00 0. -1.
         -3    1    6    6    0  503 -0.29438774859E+02  0.14480672179E+03 -0.11724209098E+03  0.18863015676E+03  0.00000000000E+00 0.  1.
<mgrwt>
<rscale>  0 0.52938667E+03</rscale>
<asrwt>0</asrwt>
<pdfrwt beam="1">  1        2 0.68212111E-01 0.52938667E+03</pdfrwt>
<pdfrwt beam="2">  1       -2 0.11558938E+00 0.52938667E+03</pdfrwt>
<totfact> 0.42414870E+01</totfact>
</mgrwt>
</event>
<event>
12    1  0.1335216E-007  0.1685407E+04  0.7818608E-02  0.8769732E-01
         -2   -1    0    0    0  501 -0.00000000000E+00  0.00000000000E+00  0.19535390320E+04  0.19535390320E+04  0.00000000000E+00 0. -1.
          2   -1    0    0  501    0  0.00000000000E+00 -0.00000000000E+00 -0.18555319275E+04  0.18555319275E+04  0.00000000000E+00 0.  1.
         23    2    1    2    0    0  0.11010325234E+03 -0.16638841814E+04 -0.76636196654E+03  0.18374445247E+04  0.90875862613E+02 0.  0.
    5000000    2    1    2    0    0 -0.11010325234E+03  0.16638841814E+04  0.86436907104E+03  0.19716264348E+04  0.59961955609E+03 0.  0.
         23    2    4    4    0    0 -0.88128685669E+02  0.17585421310E+03 -0.50121610125E+02  0.22254621527E+03  0.91231971530E+02 0.  0.
         23    2    4    4    0    0 -0.21974566674E+02  0.14880299683E+04  0.91449068116E+03  0.17490802195E+04  0.90952406088E+02 0.  0.
          2    1    3    3  502    0  0.11834318477E+03 -0.11803534267E+04 -0.53418406206E+03  0.13009965155E+04  0.00000000000E+00 0. -1.
         -2    1    3    3    0  502 -0.82399324269E+01 -0.48353075469E+03 -0.23217790447E+03  0.53644800917E+03  0.00000000000E+00 0.  1.
         13    1    5    5    0    0 -0.85657445702E+02  0.85212841145E+02 -0.52740902673E+02  0.13183333840E+03  0.00000000000E+00 0.  1.
        -13    1    5    5    0    0 -0.24712399670E+01  0.90641371953E+02  0.26192925479E+01  0.90712876869E+02  0.00000000000E+00 0. -1.
          3    1    6    6  503    0  0.19027997089E+02  0.77535558035E+03  0.51569527642E+03  0.93138604176E+03  0.00000000000E+00 0. -1.
         -3    1    6    6    0  503 -0.41002563763E+02  0.71267438793E+03  0.39879540474E+03  0.81769417773E+03  0.00000000000E+00 0.  1.
<mgrwt>
<rscale>  0 0.16854065E+04</rscale>
<asrwt>0</asrwt>
<pdfrwt beam="1">  1        2 0.28546645E+00 0.16854065E+04</pdfrwt>
<pdfrwt beam="2">  1       -2 0.30054447E+00 0.16854065E+04</pdfrwt>
<totfact> 0.23314570E-01</totfact>
</mgrwt>
</event>
<event>
12    1  0.1335216E-007  0.6053857E+03  0.7818608E-02  0.9894295E-01
          2   -1    0    0  501    0  0.00000000000E+00  0.00000000000E+00  0.16240173791E+04  0.16240173791E+04  0.00000000000E+00 0. -1.
         -2   -1    0    0    0  501 -0.00000000000E+00 -0.00000000000E+00 -0.24565307199E+03  0.24565307199E+03  0.00000000000E+00 0.  1.
         23    2    1    2    0    0 -0.38801826430E+03  0.28951226941E+03  0.53014923036E+03  0.72357963215E+03  0.90187305307E+02 0.  0.
    5000000    2    1    2    0    0  0.38801826430E+03 -0.28951226941E+03  0.84821507672E+03  0.11460908189E+04  0.59973312502E+03 0.  0.
         23    2    4    4    0    0  0.44598246532E+03 -0.29089384502E+02  0.35600207198E+03  0.57878021604E+03  0.92209064391E+02 0.  0.
         23    2    4    4    0    0 -0.57964201023E+02 -0.26042288491E+03  0.49221300473E+03  0.56731060287E+03  0.91584663096E+02 0.  0.
          2    1    3    3  502    0 -0.31933630853E+03  0.26679346358E+03  0.48153808659E+03  0.63642231183E+03  0.00000000000E+00 0. -1.
         -2    1    3    3    0  502 -0.68681955770E+02  0.22718805830E+02  0.48611143767E+02  0.87157320318E+02  0.00000000000E+00 0.  1.
         13    1    5    5    0    0  0.15504797279E+03  0.31734552313E+01  0.17846304408E+03  0.23642969946E+03  0.00000000000E+00 0. -1.
        -13    1    5    5    0    0  0.29093449253E+03 -0.32262839734E+02  0.17753902790E+03  0.34235051658E+03  0.00000000000E+00 0.  1.
          1    1    6    6  503    0 -0.21503114815E+02 -0.21588775547E+03  0.32761577917E+03  0.39294020623E+03  0.00000000000E+00 0. -1.
         -1    1    6    6    0  503 -0.36461086208E+02 -0.44535129436E+02  0.16459722556E+03  0.17437039664E+03  0.00000000000E+00 0.  1.
<mgrwt>
<rscale>  0 0.60538570E+03</rscale>
<asrwt>0</asrwt>
<pdfrwt beam="1">  1        2 0.24984882E+00 0.60538570E+03</pdfrwt>
<pdfrwt beam="2">  1       -2 0.37792781E-01 0.60538570E+03</pdfrwt>
<totfact> 0.74170866E+01</totfact>
</mgrwt>
</event>
<event>
12    1  0.1335216E-007  0.7238325E+03  0.7818608E-02  0.9677322E-01
          2   -1    0    0  501    0  0.00000000000E+00  0.00000000000E+00  0.12171225765E+04  0.12171225765E+04  0.00000000000E+00 0. -1.
         -2   -1    0    0    0  501 -0.00000000000E+00 -0.00000000000E+00 -0.59586897737E+03  0.59586897737E+03  0.00000000000E+00 0.  1.
         23    2    1    2    0    0 -0.14733446904E+03  0.69210490071E+03  0.32196781467E+02  0.71405590616E+03  0.90125274098E+02 0.  0.
    5000000    2    1    2    0    0  0.14733446904E+03 -0.69210490071E+03  0.58905681770E+03  0.10989356478E+04  0.59996248555E+03 0.  0.
         23    2    4    4    0    0  0.18322214296E+03 -0.56286112243E+03  0.13184411174E+03  0.61414840666E+03  0.97017517924E+02 0.  0.
         23    2    4    4    0    0 -0.35887673926E+02 -0.12924377827E+03  0.45721270597E+03  0.48478724109E+03  0.89349489447E+02 0.  0.
          1    1    3    3  502    0 -0.21692621826E+02  0.30569588556E+03  0.27634658729E+02  0.30770800876E+03  0.00000000000E+00 0. -1.
         -1    1    3    3    0  502 -0.12564184721E+03  0.38640901515E+03  0.45621227374E+01  0.40634789740E+03  0.00000000000E+00 0.  1.
         13    1    5    5    0    0  0.55592421617E+02 -0.31465785750E+03  0.89751997803E+02  0.33189682996E+03  0.00000000000E+00 0. -1.
        -13    1    5    5    0    0  0.12762972135E+03 -0.24820326494E+03  0.42092113935E+02  0.28225157670E+03  0.00000000000E+00 0.  1.
          3    1    6    6  503    0  0.26989002883E+01 -0.24108266169E+02  0.23200697870E+03  0.23327179582E+03  0.00000000000E+00 0. -1.
         -3    1    6    6    0  503 -0.38586574214E+02 -0.10513551210E+03  0.22520572727E+03  0.25151544527E+03  0.00000000000E+00 0.  1.
<mgrwt>
<rscale>  0 0.72383249E+03</rscale>
<asrwt>0</asrwt>
<pdfrwt beam="1">  1        2 0.18724963E+00 0.72383249E+03</pdfrwt>
<pdfrwt beam="2">  1       -2 0.91672150E-01 0.72383249E+03</pdfrwt>
<totfact> 0.19156550E+01</totfact>
</mgrwt>
</event>
<event>
12    1  0.1335216E-007  0.6232141E+03  0.7818608E-02  0.9858381E-01
         -2   -1    0    0    0  501 -0.00000000000E+00  0.00000000000E+00  0.23527685518E+03  0.23527685518E+03  0.00000000000E+00 0.  1.
          2   -1    0    0  501    0  0.00000000000E+00 -0.00000000000E+00 -0.22480680386E+04  0.22480680386E+04  0.00000000000E+00 0. -1.
         23    2    1    2    0    0  0.49219151650E+03  0.27334358470E+02 -0.14214507894E+04  0.15072733243E+04  0.91383101866E+02 0.  0.
    5000000    2    1    2    0    0 -0.49219151650E+03 -0.27334358470E+02 -0.59134039397E+03  0.97607156946E+03  0.60002715863E+03 0.  0.
         23    2    4    4    0    0 -0.47811102932E+03  0.18831644433E+03 -0.50602835006E+03  0.72686461290E+03  0.90632416149E+02 0.  0.
         23    2    4    4    0    0 -0.14080487179E+02 -0.21565080280E+03 -0.85312043911E+02  0.24920695656E+03  0.90124544340E+02 0.  0.
          3    1    3    3  502    0  0.43925961637E+03 -0.45849179925E+01 -0.12297847679E+04  0.13058869045E+04  0.00000000000E+00 0. -1.
         -3    1    3    3    0  502  0.52931900131E+02  0.31919276462E+02 -0.19166602152E+03  0.20138641977E+03  0.00000000000E+00 0.  1.
         11    1    5    5    0    0 -0.43861809663E+03  0.19711603728E+03 -0.47453106539E+03  0.67558885342E+03  0.00000000000E+00 0.  1.
        -11    1    5    5    0    0 -0.39492932692E+02 -0.87995929500E+01 -0.31497284669E+02  0.51275759479E+02  0.00000000000E+00 0. -1.
          3    1    6    6  503    0  0.22296090138E+02 -0.56453739334E+02 -0.57397438973E+02  0.83538053131E+02  0.00000000000E+00 0. -1.
         -3    1    6    6    0  503 -0.36376577318E+02 -0.15919706347E+03 -0.27914604938E+02  0.16566890343E+03  0.00000000000E+00 0.  1.
<mgrwt>
<rscale>  0 0.62321414E+03</rscale>
<asrwt>0</asrwt>
<pdfrwt beam="1">  1        2 0.34585664E+00 0.62321414E+03</pdfrwt>
<pdfrwt beam="2">  1       -2 0.36196437E-01 0.62321414E+03</pdfrwt>
<totfact> 0.36796546E+01</totfact>
</mgrwt>
</event>
<event>
12    1  0.1335216E-007  0.5455195E+03  0.7818608E-02  0.1002536E+00
          2   -1    0    0  501    0  0.00000000000E+00  0.00000000000E+00  0.26338154972E+04  0.26338154972E+04  0.00000000000E+00 0. -1.
         -2   -1    0    0    0  501 -0.00000000000E+00 -0.00000000000E+00 -0.12030285639E+03  0.12030285639E+03  0.00000000000E+00 0.  1.
         23    2    1    2    0    0 -0.22221794720E+03 -0.32599154956E+03  0.80555868702E+03  0.90137432271E+03  0.88879496946E+02 0.  0.
    5000000    2    1    2    0    0  0.22221794720E+03  0.32599154956E+03  0.17079539538E+04  0.18527440309E+04  0.59991868555E+03 0.  0.
         23    2    4    4    0    0  0.30221008132E+03  0.43133050282E+03  0.15007560396E+04  0.15932319497E+04  0.93500903988E+02 0.  0.
         23    2    4    4    0    0 -0.79992134127E+02 -0.10533895327E+03  0.20719791421E+03  0.25951208126E+03  0.83189591113E+02 0.  0.
          4    1    3    3  502    0 -0.14122060851E+03 -0.27346439685E+03  0.62165020559E+03  0.69366779853E+03  0.00000000000E+00 0.  1.
         -4    1    3    3    0  502 -0.80997338683E+02 -0.52527152707E+02  0.18390848143E+03  0.20770652418E+03  0.00000000000E+00 0. -1.
         13    1    5    5    0    0  0.16963417517E+03  0.29507231874E+03  0.86119470780E+03  0.92601282465E+03  0.00000000000E+00 0. -1.
        -13    1    5    5    0    0  0.13257590615E+03  0.13625818408E+03  0.63956133182E+03  0.66721912501E+03  0.00000000000E+00 0.  1.
          3    1    6    6  503    0 -0.56897508292E+02 -0.95158142229E+01  0.76620041648E+02  0.95908852314E+02  0.00000000000E+00 0. -1.
         -3    1    6    6    0  503 -0.23094625835E+02 -0.95823139045E+02  0.13057787257E+03  0.16360322895E+03  0.00000000000E+00 0.  1.
<mgrwt>
<rscale>  0 0.54551955E+03</rscale>
<asrwt>0</asrwt>
<pdfrwt beam="1">  1        2 0.40520234E+00 0.54551955E+03</pdfrwt>
<pdfrwt beam="2">  1       -2 0.18508134E-01 0.54551955E+03</pdfrwt>
<totfact> 0.76374776E+01</totfact>
</mgrwt>
</event>
<event>
12    1  0.1335216E-007  0.1116089E+04  0.7818608E-02  0.9189651E-01
         -1   -1    0    0    0  501 -0.00000000000E+00  0.00000000000E+00  0.73236188990E+03  0.73236188990E+03  0.00000000000E+00 0.  1.
          1   -1    0    0  501    0  0.00000000000E+00 -0.00000000000E+00 -0.24266552926E+04  0.24266552926E+04  0.00000000000E+00 0. -1.
         23    2    1    2    0    0  0.10408208094E+04 -0.26762274602E+03 -0.15924113277E+04  0.19234159735E+04  0.93942956864E+02 0.  0.
    5000000    2    1    2    0    0 -0.10408208094E+04  0.26762274602E+03 -0.10188207502E+03  0.12356012090E+04  0.60116594972E+03 0.  0.
         23    2    4    4    0    0 -0.26910912938E+02 -0.54756666305E+02  0.97832751785E+02  0.14923619165E+03  0.94750745836E+02 0.  0.
         23    2    4    4    0    0 -0.10139098964E+04  0.32237941232E+03 -0.19971482680E+03  0.10863650174E+04  0.91439462660E+02 0.  0.
          3    1    3    3  502    0  0.61995450329E+03 -0.18479322173E+03 -0.10259645105E+04  0.12128871743E+04  0.00000000000E+00 0. -1.
         -3    1    3    3    0  502  0.42086630608E+03 -0.82829524286E+02 -0.56644681724E+03  0.71052879917E+03  0.00000000000E+00 0.  1.
         13    1    5    5    0    0 -0.49186868154E+02 -0.26016390072E+02  0.98203227734E+02  0.11287193845E+03  0.00000000000E+00 0. -1.
        -13    1    5    5    0    0  0.22275955215E+02 -0.28740276233E+02 -0.37047594934E+00  0.36364253205E+02  0.00000000000E+00 0.  1.
          1    1    6    6  503    0 -0.15411529195E+03  0.38163024049E+02  0.12755638702E+01  0.15877520802E+03  0.00000000000E+00 0. -1.
         -1    1    6    6    0  503 -0.85979460448E+03  0.28421638827E+03 -0.20099039067E+03  0.92758980934E+03  0.00000000000E+00 0.  1.
<mgrwt>
<rscale>  0 0.11160890E+04</rscale>
<asrwt>0</asrwt>
<pdfrwt beam="1">  1        1 0.37333157E+00 0.11160890E+04</pdfrwt>
<pdfrwt beam="2">  1       -1 0.11267106E+00 0.11160890E+04</pdfrwt>
<totfact> 0.10975281E+00</totfact>
</mgrwt>
</event>
<event>
12    1  0.1335216E-007  0.1001396E+04  0.7818608E-02  0.9307015E-01
          2   -1    0    0  501    0  0.00000000000E+00  0.00000000000E+00  0.20333164481E+04  0.20333164481E+04  0.00000000000E+00 0. -1.
         -2   -1    0    0    0  501 -0.00000000000E+00 -0.00000000000E+00 -0.54216403454E+03  0.54216403454E+03  0.00000000000E+00 0.  1.
         23    2    1    2    0    0  0.71414692457E+03  0.64035752058E+03  0.60410631546E+03  0.11378126882E+04  0.98029021438E+02 0.  0.
    5000000    2    1    2    0    0 -0.71414692457E+03 -0.64035752058E+03  0.88704609811E+03  0.14376677944E+04  0.59997860208E+03 0.  0.
         23    2    4    4    0    0 -0.27030965588E+03 -0.94920861812E+01  0.39235941492E+02  0.28781704007E+03  0.90231810821E+02 0.  0.
         23    2    4    4    0    0 -0.44383726869E+03 -0.63086543440E+03  0.84781015662E+03  0.11498507544E+04  0.91607741317E+02 0.  0.
          3    1    3    3  502    0  0.51200739219E+03  0.46304460925E+03  0.48530550054E+03  0.84385028807E+03  0.00000000000E+00 0. -1.
         -3    1    3    3    0  502  0.20213953238E+03  0.17731291133E+03  0.11880081492E+03  0.29396240015E+03  0.00000000000E+00 0.  1.
         13    1    5    5    0    0 -0.18114186072E+03  0.41254995192E+01  0.67403037712E+02  0.19331984622E+03  0.00000000000E+00 0. -1.
        -13    1    5    5    0    0 -0.89167795163E+02 -0.13617585700E+02 -0.28167096220E+02  0.94497193842E+02  0.00000000000E+00 0.  1.
          1    1    6    6  503    0 -0.24588720331E+03 -0.31845629737E+03  0.50390274276E+03  0.64482005571E+03  0.00000000000E+00 0. -1.
         -1    1    6    6    0  503 -0.19795006538E+03 -0.31240913704E+03  0.34390741385E+03  0.50503069866E+03  0.00000000000E+00 0.  1.
<mgrwt>
<rscale>  0 0.10013959E+04</rscale>
<asrwt>0</asrwt>
<pdfrwt beam="1">  1        2 0.31281791E+00 0.10013959E+04</pdfrwt>
<pdfrwt beam="2">  1       -2 0.83409852E-01 0.10013959E+04</pdfrwt>
<totfact> 0.80694562E+00</totfact>
</mgrwt>
</event>
<event>
12    1  0.1335216E-007  0.5604053E+03  0.7818608E-02  0.9991138E-01
          1   -1    0    0  501    0  0.00000000000E+00  0.00000000000E+00  0.21792163961E+04  0.21792163961E+04  0.00000000000E+00 0. -1.
         -1   -1    0    0    0  501 -0.00000000000E+00 -0.00000000000E+00 -0.17477119913E+03  0.17477119913E+03  0.00000000000E+00 0.  1.
         23    2    1    2    0    0 -0.33878076144E+03  0.23537369163E+03  0.35999330325E+03  0.55555218159E+03  0.94179982223E+02 0.  0.
    5000000    2    1    2    0    0  0.33878076144E+03 -0.23537369163E+03  0.16444518937E+04  0.17984354136E+04  0.59997893898E+03 0.  0.
         23    2    4    4    0    0 -0.14908579416E+03 -0.12338461601E+03  0.53703021042E+03  0.57963529094E+03  0.10062448069E+03 0.  0.
         23    2    4    4    0    0  0.48786655560E+03 -0.11198907562E+03  0.11074216833E+04  0.12188001227E+04  0.92388447814E+02 0.  0.
          4    1    3    3  502    0 -0.56045927513E+02  0.75654058699E+02  0.11583602227E+03  0.14927379758E+03  0.00000000000E+00 0. -1.
         -4    1    3    3    0  502 -0.28273483392E+03  0.15971963293E+03  0.24415728098E+03  0.40627838401E+03  0.00000000000E+00 0.  1.
         13    1    5    5    0    0 -0.10311450759E+03 -0.49883300366E+02  0.18928003827E+03  0.22124167379E+03  0.00000000000E+00 0.  1.
        -13    1    5    5    0    0 -0.45971286572E+02 -0.73501315646E+02  0.34775017214E+03  0.35839361715E+03  0.00000000000E+00 0. -1.
          1    1    6    6  503    0  0.79857940096E+02 -0.13971116990E+02  0.27340542303E+03  0.28517189211E+03  0.00000000000E+00 0. -1.
         -1    1    6    6    0  503  0.40800861551E+03 -0.98017958626E+02  0.83401626026E+03  0.93362823057E+03  0.00000000000E+00 0.  1.
<mgrwt>
<rscale>  0 0.56040526E+03</rscale>
<asrwt>0</asrwt>
<pdfrwt beam="1">  1        1 0.33526404E+00 0.56040526E+03</pdfrwt>
<pdfrwt beam="2">  1       -1 0.26887878E-01 0.56040526E+03</pdfrwt>
<totfact> 0.29780048E+01</totfact>
</mgrwt>
</event>
<event>
12    1  0.1335216E-007  0.9616074E+03  0.7818608E-02  0.9351685E-01
          2   -1    0    0  501    0  0.00000000000E+00  0.00000000000E+00  0.36985625257E+04  0.36985625257E+04  0.00000000000E+00 0. -1.
         -2   -1    0    0    0  501 -0.00000000000E+00 -0.00000000000E+00 -0.37858206086E+03  0.37858206086E+03  0.00000000000E+00 0.  1.
         23    2    1    2    0    0 -0.22114500594E+03 -0.86029913548E+03  0.42305631569E+03  0.98823097804E+03  0.92758307208E+02 0.  0.
    5000000    2    1    2    0    0  0.22114500594E+03  0.86029913548E+03  0.28969241491E+04  0.30889136085E+04  0.60016500972E+03 0.  0.
         23    2    4    4    0    0 -0.10230300343E+03  0.60080638922E+03  0.20632552339E+04  0.21532778008E+04  0.90271286393E+02 0.  0.
         23    2    4    4    0    0  0.32344800937E+03  0.25949274626E+03  0.83366891519E+03  0.93563580772E+03  0.91953273016E+02 0.  0.
          4    1    3    3  502    0 -0.33178466177E+02 -0.18059707072E+03  0.12772993020E+03  0.22367621161E+03  0.00000000000E+00 0. -1.
         -4    1    3    3    0  502 -0.18796653976E+03 -0.67970206476E+03  0.29532638549E+03  0.76455476643E+03  0.00000000000E+00 0.  1.
         13    1    5    5    0    0 -0.11153378922E+03  0.46755576442E+03  0.16801191298E+04  0.17475263858E+04  0.00000000000E+00 0. -1.
        -13    1    5    5    0    0  0.92307857858E+01  0.13325062480E+03  0.38313610417E+03  0.40575141495E+03  0.00000000000E+00 0.  1.
          3    1    6    6  503    0  0.18347302323E+03  0.10390868294E+03  0.48710121599E+03  0.53077957690E+03  0.00000000000E+00 0. -1.
         -3    1    6    6    0  503  0.13997498614E+03  0.15558406332E+03  0.34656769920E+03  0.40485623082E+03  0.00000000000E+00 0.  1.
<mgrwt>
<rscale>  0 0.96160739E+03</rscale>
<asrwt>0</asrwt>
<pdfrwt beam="1">  1        2 0.56900959E+00 0.96160739E+03</pdfrwt>
<pdfrwt beam="2">  1       -2 0.58243397E-01 0.96160739E+03</pdfrwt>
<totfact> 0.16948964E+00</totfact>
</mgrwt>
</event>
<event>
12    1  0.1335216E-007  0.5138565E+03  0.7818608E-02  0.1010224E+00
          2   -1    0    0  501    0  0.00000000000E+00  0.00000000000E+00  0.54637311391E+03  0.54637311391E+03  0.00000000000E+00 0. -1.
         -2   -1    0    0    0  501 -0.00000000000E+00 -0.00000000000E+00 -0.63310999109E+03  0.63310999109E+03  0.00000000000E+00 0.  1.
         23    2    1    2    0    0  0.16500924551E+03  0.36817255822E+03  0.11441980920E+03  0.42887448452E+03  0.89790573016E+02 0.  0.
    5000000    2    1    2    0    0 -0.16500924551E+03 -0.36817255822E+03 -0.20115668638E+03  0.75060862048E+03  0.60014182068E+03 0.  0.
         23    2    4    4    0    0  0.71972852239E+02  0.71231692257E+02 -0.20092902108E+03  0.24321706509E+03  0.92347299894E+02 0.  0.
         23    2    4    4    0    0 -0.23698209775E+03 -0.43940425048E+03 -0.22766530833E+00  0.50739155539E+03  0.90606449329E+02 0.  0.
          2    1    3    3  502    0  0.89063249124E+02  0.29390512804E+03  0.85696673262E+02  0.31883601810E+03  0.00000000000E+00 0. -1.
         -2    1    3    3    0  502  0.75945996384E+02  0.74267430183E+02  0.28723135942E+02  0.11003846642E+03  0.00000000000E+00 0.  1.
         11    1    5    5    0    0  0.48462263148E+02  0.70824295492E+02 -0.71589454161E+02  0.11175742359E+03  0.00000000000E+00 0. -1.
        -11    1    5    5    0    0  0.23510589091E+02  0.40739676507E+00 -0.12933956692E+03  0.13145964149E+03  0.00000000000E+00 0.  1.
          1    1    6    6  503    0 -0.19245173110E+03 -0.28155316031E+03 -0.22947439695E+02  0.34181345186E+03  0.00000000000E+00 0. -1.
         -1    1    6    6    0  503 -0.44530366646E+02 -0.15785109016E+03  0.22719774386E+02  0.16557810353E+03  0.00000000000E+00 0.  1.
<mgrwt>
<rscale>  0 0.51385649E+03</rscale>
<asrwt>0</asrwt>
<pdfrwt beam="1">  1        2 0.84057402E-01 0.51385649E+03</pdfrwt>
<pdfrwt beam="2">  1       -2 0.97401537E-01 0.51385649E+03</pdfrwt>
<totfact> 0.50323241E+01</totfact>
</mgrwt>
</event>
<event>
12    1  0.1335216E-007  0.6387173E+03  0.7818608E-02  0.9828184E-01
          2   -1    0    0  501    0  0.00000000000E+00  0.00000000000E+00  0.17408093620E+04  0.17408093620E+04  0.00000000000E+00 0. -1.
         -2   -1    0    0    0  501 -0.00000000000E+00 -0.00000000000E+00 -0.25179610221E+03  0.25179610221E+03  0.00000000000E+00 0.  1.
         23    2    1    2    0    0 -0.47142905476E+03 -0.21587671704E+03  0.52827297646E+03  0.74690911592E+03  0.99763616347E+02 0.  0.
    5000000    2    1    2    0    0  0.47142905476E+03  0.21587671704E+03  0.96074028337E+03  0.12456963483E+04  0.59990781753E+03 0.  0.
         23    2    4    4    0    0  0.58536546187E+03  0.18361187947E+03  0.63384981932E+03  0.88607480849E+03  0.83647633355E+02 0.  0.
         23    2    4    4    0    0 -0.11393640710E+03  0.32264837572E+02  0.32689046405E+03  0.35962153984E+03  0.91911652270E+02 0.  0.
          1    1    3    3  502    0 -0.11349024175E+03 -0.79202288069E+01  0.12415356863E+03  0.16839499280E+03  0.00000000000E+00 0. -1.
         -1    1    3    3    0  502 -0.35793881301E+03 -0.20795648824E+03  0.40411940784E+03  0.57851412312E+03  0.00000000000E+00 0.  1.
         11    1    5    5    0    0  0.24806793101E+03  0.77205387637E+02  0.21015684244E+03  0.33416203959E+03  0.00000000000E+00 0.  1.
        -11    1    5    5    0    0  0.33729753085E+03  0.10640649184E+03  0.42369297688E+03  0.55191276890E+03  0.00000000000E+00 0. -1.
          2    1    6    6  503    0 -0.96121789346E+02 -0.35804294611E+01  0.28868109656E+03  0.30428439555E+03  0.00000000000E+00 0. -1.
         -2    1    6    6    0  503 -0.17814617758E+02  0.35845267033E+02  0.38209367489E+02  0.55337144292E+02  0.00000000000E+00 0.  1.
<mgrwt>
<rscale>  0 0.63871728E+03</rscale>
<asrwt>0</asrwt>
<pdfrwt beam="1">  1        2 0.26781682E+00 0.63871728E+03</pdfrwt>
<pdfrwt beam="2">  1       -2 0.38737863E-01 0.63871728E+03</pdfrwt>
<totfact> 0.60831556E+01</totfact>
</mgrwt>
</event>
<event>
12    1  0.1335216E-007  0.6562529E+03  0.7818608E-02  0.9795116E-01
         -2   -1    0    0    0  501 -0.00000000000E+00  0.00000000000E+00  0.25047640352E+03  0.25047640352E+03  0.00000000000E+00 0.  1.
          2   -1    0    0  501    0  0.00000000000E+00 -0.00000000000E+00 -0.23318559342E+04  0.23318559342E+04  0.00000000000E+00 0. -1.
         23    2    1    2    0    0 -0.19581652889E+03 -0.60554735389E+03 -0.10362251978E+04  0.12194379423E+04  0.90744276384E+02 0.  0.
    5000000    2    1    2    0    0  0.19581652889E+03  0.60554735389E+03 -0.10451543329E+04  0.13628943954E+04  0.60008486301E+03 0.  0.
         23    2    4    4    0    0 -0.17569241100E+02  0.24327909714E+03 -0.85282646017E+03  0.89166580061E+03  0.90892967178E+02 0.  0.
         23    2    4    4    0    0  0.21338576999E+03  0.36226825675E+03 -0.19232787270E+03  0.47122859482E+03  0.91074701639E+02 0.  0.
          1    1    3    3  502    0 -0.28873734539E+02 -0.22687796240E+03 -0.38722134371E+03  0.44971954748E+03  0.00000000000E+00 0. -1.
         -1    1    3    3    0  502 -0.16694279435E+03 -0.37866939149E+03 -0.64900385409E+03  0.76971839478E+03  0.00000000000E+00 0.  1.
         11    1    5    5    0    0 -0.39026757170E+01  0.11105168042E+03 -0.23841972314E+03  0.26304309720E+03  0.00000000000E+00 0. -1.
        -11    1    5    5    0    0 -0.13666565383E+02  0.13222741672E+03 -0.61440673703E+03  0.62862270341E+03  0.00000000000E+00 0.  1.
          1    1    6    6  503    0  0.12645360142E+03  0.14792280120E+03 -0.12108922110E+03  0.22920355122E+03  0.00000000000E+00 0. -1.
         -1    1    6    6    0  503  0.86932168569E+02  0.21434545555E+03 -0.71238651599E+02  0.24202504360E+03  0.00000000000E+00 0.  1.
<mgrwt>
<rscale>  0 0.65625290E+03</rscale>
<asrwt>0</asrwt>
<pdfrwt beam="1">  1        2 0.35874706E+00 0.65625290E+03</pdfrwt>
<pdfrwt beam="2">  1       -2 0.38534832E-01 0.65625290E+03</pdfrwt>
<totfact> 0.29173378E+01</totfact>
</mgrwt>
</event>
<event>
12    1  0.1335216E-007  0.6057568E+03  0.7818608E-02  0.9893534E-01
          2   -1    0    0  501    0  0.00000000000E+00  0.00000000000E+00  0.42650182138E+03  0.42650182138E+03  0.00000000000E+00 0. -1.
         -2   -1    0    0    0  501 -0.00000000000E+00 -0.00000000000E+00 -0.10390453144E+04  0.10390453144E+04  0.00000000000E+00 0.  1.
         23    2    1    2    0    0  0.48941869538E+03 -0.19064073521E+03 -0.27262531566E+03  0.59871635861E+03  0.90896457695E+02 0.  0.
    5000000    2    1    2    0    0 -0.48941869538E+03  0.19064073521E+03 -0.33991817740E+03  0.86683077721E+03  0.59998056609E+03 0.  0.
         23    2    4    4    0    0 -0.53953879345E+03  0.11546026268E+03 -0.63852883003E+02  0.56284216971E+03  0.90999645282E+02 0.  0.
         23    2    4    4    0    0  0.50120098070E+02  0.75180472522E+02 -0.27606529440E+03  0.30398860750E+03  0.89626441637E+02 0.  0.
          4    1    3    3  502    0  0.30954559094E+03 -0.13716836065E+03 -0.22018049423E+03  0.40387260624E+03  0.00000000000E+00 0. -1.
         -4    1    3    3    0  502  0.17987310444E+03 -0.53472374560E+02 -0.52444821424E+02  0.19484375236E+03  0.00000000000E+00 0.  1.
         11    1    5    5    0    0 -0.14832195363E+03  0.70519304993E+02 -0.35553315429E+02  0.16803693804E+03  0.00000000000E+00 0. -1.
        -11    1    5    5    0    0 -0.39121683981E+03  0.44940957691E+02 -0.28299567574E+02  0.39480523167E+03  0.00000000000E+00 0.  1.
          1    1    6    6  503    0  0.58690815865E+02  0.91571616812E+02 -0.23496550257E+03  0.25891844328E+03  0.00000000000E+00 0. -1.
         -1    1    6    6    0  503 -0.85707177949E+01 -0.16391144290E+02 -0.41099791827E+02  0.45070164221E+02  0.00000000000E+00 0.  1.
<mgrwt>
<rscale>  0 0.60575677E+03</rscale>
<asrwt>0</asrwt>
<pdfrwt beam="1">  1        2 0.65615665E-01 0.60575677E+03</pdfrwt>
<pdfrwt beam="2">  1       -2 0.15985312E+00 0.60575677E+03</pdfrwt>
<totfact> 0.19192905E+01</totfact>
</mgrwt>
</event>
<event>
12    1  0.1335216E-007  0.6824673E+03  0.7818608E-02  0.9747694E-01
          1   -1    0    0  501    0  0.00000000000E+00  0.00000000000E+00  0.11881314651E+04  0.11881314651E+04  0.00000000000E+00 0. -1.
         -1   -1    0    0    0  501 -0.00000000000E+00 -0.00000000000E+00 -0.48648417927E+03  0.48648417927E+03  0.00000000000E+00 0.  1.
         23    2    1    2    0    0 -0.53360798831E+03  0.13711580683E+03  0.65306166915E+03  0.85851095022E+03  0.83745317924E+02 0.  0.
    5000000    2    1    2    0    0  0.53360798831E+03 -0.13711580683E+03  0.48585616713E+02  0.81610469418E+03  0.60010672388E+03 0.  0.
         23    2    4    4    0    0  0.14412763987E+03 -0.32857529328E+03  0.36526089316E+02  0.37210974210E+03  0.91635173569E+02 0.  0.
         23    2    4    4    0    0  0.38948034844E+03  0.19145948645E+03  0.12059527397E+02  0.44399495209E+03  0.92921517983E+02 0.  0.
          3    1    3    3  502    0 -0.38751622531E+03  0.10030334051E+03  0.52880230985E+03  0.66322052735E+03  0.00000000000E+00 0. -1.
         -3    1    3    3    0  502 -0.14609176300E+03  0.36812466322E+02  0.12425935930E+03  0.19529042288E+03  0.00000000000E+00 0.  1.
         11    1    5    5    0    0  0.11585573686E+03 -0.15056442037E+03  0.22872271045E+02  0.19135134499E+03  0.00000000000E+00 0. -1.
        -11    1    5    5    0    0  0.28271903010E+02 -0.17801087291E+03  0.13653818271E+02  0.18075839711E+03  0.00000000000E+00 0.  1.
          1    1    6    6  503    0  0.33531637982E+03  0.12459152476E+03  0.67540356610E+01  0.35777889767E+03  0.00000000000E+00 0. -1.
         -1    1    6    6    0  503  0.54163968619E+02  0.66867961688E+02  0.53054917358E+01  0.86216054418E+02  0.00000000000E+00 0.  1.
<mgrwt>
<rscale>  0 0.68246727E+03</rscale>
<asrwt>0</asrwt>
<pdfrwt beam="1">  1        1 0.18278946E+00 0.68246727E+03</pdfrwt>
<pdfrwt beam="2">  1       -1 0.74843720E-01 0.68246727E+03</pdfrwt>
<totfact> 0.20363059E+01</totfact>
</mgrwt>
</event>
<event>
12    1  0.1335216E-007  0.5730716E+03  0.7818608E-02  0.9962904E-01
         -2   -1    0    0    0  501 -0.00000000000E+00  0.00000000000E+00  0.22489604553E+03  0.22489604553E+03  0.00000000000E+00 0. -1.
          2   -1    0    0  501    0  0.00000000000E+00 -0.00000000000E+00 -0.22795733262E+04  0.22795733262E+04  0.00000000000E+00 0.  1.
         23    2    1    2    0    0  0.43948251685E+03 -0.28223974344E+03 -0.13164755606E+04  0.14192679840E+04  0.91703617087E+02 0.  0.
    5000000    2    1    2    0    0 -0.43948251685E+03  0.28223974344E+03 -0.73820172008E+03  0.10852013877E+04  0.59993009342E+03 0.  0.
         23    2    4    4    0    0 -0.33296843447E+03  0.35402008107E+03 -0.21177402848E+03  0.53754229485E+03  0.88911661003E+02 0.  0.
         23    2    4    4    0    0 -0.10651408238E+03 -0.71780337638E+02 -0.52642769160E+03  0.54765909287E+03  0.79414739811E+02 0.  0.
          1    1    3    3  502    0  0.21719900977E+03 -0.16705878794E+03 -0.58157328016E+03  0.64289309273E+03  0.00000000000E+00 0. -1.
         -1    1    3    3    0  502  0.22228350708E+03 -0.11518095550E+03 -0.73490228040E+03  0.77637489125E+03  0.00000000000E+00 0.  1.
         11    1    5    5    0    0 -0.32250935354E+03  0.31205913486E+03 -0.20642447197E+03  0.49396786271E+03  0.00000000000E+00 0. -1.
        -11    1    5    5    0    0 -0.10459080935E+02  0.41960946219E+02 -0.53495565042E+01  0.43574432141E+02  0.00000000000E+00 0.  1.
          2    1    6    6  503    0 -0.99588452445E+02 -0.60498663555E+02 -0.31573502338E+03  0.33655096663E+03  0.00000000000E+00 0. -1.
         -2    1    6    6    0  503 -0.69256299335E+01 -0.11281674083E+02 -0.21069266823E+03  0.21110812624E+03  0.00000000000E+00 0.  1.
<mgrwt>
<rscale>  0 0.57307164E+03</rscale>
<asrwt>0</asrwt>
<pdfrwt beam="1">  1        2 0.35070358E+00 0.57307164E+03</pdfrwt>
<pdfrwt beam="2">  1       -2 0.34599392E-01 0.57307164E+03</pdfrwt>
<totfact> 0.38852475E+01</totfact>
</mgrwt>
</event>
<event>
12    1  0.1335216E-007  0.8843616E+03  0.7818608E-02  0.9445344E-01
         -2   -1    0    0    0  501 -0.00000000000E+00  0.00000000000E+00  0.68231762762E+03  0.68231762762E+03  0.00000000000E+00 0.  1.
          2   -1    0    0  501    0  0.00000000000E+00 -0.00000000000E+00 -0.13455880904E+04  0.13455880904E+04  0.00000000000E+00 0. -1.
         23    2    1    2    0    0  0.83990872651E+03  0.15917123900E+03 -0.18573978312E+03  0.87944921692E+03  0.90274613986E+02 0.  0.
    5000000    2    1    2    0    0 -0.83990872651E+03 -0.15917123900E+03 -0.47753067964E+03  0.11484565011E+04  0.60011218343E+03 0.  0.
         23    2    4    4    0    0 -0.69543635186E+03 -0.32030309032E+02 -0.58091119360E+03  0.91135014702E+03  0.91889147603E+02 0.  0.
         23    2    4    4    0    0 -0.14447237465E+03 -0.12714092997E+03  0.10338051396E+03  0.23710635406E+03  0.92167290074E+02 0.  0.
          3    1    3    3  502    0  0.67861581065E+03  0.10889630850E+03 -0.17966959375E+03  0.71039354402E+03  0.00000000000E+00 0. -1.
         -3    1    3    3    0  502  0.16129291586E+03  0.50274930504E+02 -0.60701893784E+01  0.16905567291E+03  0.00000000000E+00 0.  1.
         11    1    5    5    0    0 -0.41074303846E+03 -0.53363124674E+02 -0.30554372027E+03  0.51469838907E+03  0.00000000000E+00 0. -1.
        -11    1    5    5    0    0 -0.28469331340E+03  0.21332815642E+02 -0.27536747333E+03  0.39665175795E+03  0.00000000000E+00 0.  1.
          1    1    6    6  503    0 -0.15613189680E+03 -0.10620725456E+03  0.97108015479E+02  0.21233727131E+03  0.00000000000E+00 0. -1.
         -1    1    6    6    0  503  0.11659522151E+02 -0.20933675410E+02  0.62724984836E+01  0.24769082748E+02  0.00000000000E+00 0.  1.
<mgrwt>
<rscale>  0 0.88436163E+03</rscale>
<asrwt>0</asrwt>
<pdfrwt beam="1">  1        2 0.20701355E+00 0.88436163E+03</pdfrwt>
<pdfrwt beam="2">  1       -2 0.10497194E+00 0.88436163E+03</pdfrwt>
<totfact> 0.11507609E+01</totfact>
</mgrwt>
</event>
<event>
12    1  0.1335216E-007  0.9749698E+03  0.7818608E-02  0.9336432E-01
         -2   -1    0    0    0  501 -0.00000000000E+00  0.00000000000E+00  0.30457105186E+03  0.30457105186E+03  0.00000000000E+00 0.  1.
          2   -1    0    0  501    0  0.00000000000E+00 -0.00000000000E+00 -0.34917154164E+04  0.34917154164E+04  0.00000000000E+00 0. -1.
         23    2    1    2    0    0 -0.35889724542E+03 -0.86991764787E+03 -0.14087439709E+04  0.16967097491E+04  0.93276203520E+02 0.  0.
    5000000    2    1    2    0    0  0.35889724542E+03  0.86991764787E+03 -0.17784003936E+04  0.20995767192E+04  0.59995874267E+03 0.  0.
         23    2    4    4    0    0  0.20182833378E+03  0.14495551365E+03 -0.14060991320E+03  0.29987749230E+03  0.91698339378E+02 0.  0.
         23    2    4    4    0    0  0.15706891163E+03  0.72496213421E+03 -0.16377904804E+04  0.17996992269E+04  0.79491574730E+02 0.  0.
          1    1    3    3  502    0 -0.92600657161E+02 -0.31205209363E+03 -0.53913265460E+03  0.62977409450E+03  0.00000000000E+00 0. -1.
         -1    1    3    3    0  502 -0.26629658826E+03 -0.55786555424E+03 -0.86961131631E+03  0.10669356546E+04  0.00000000000E+00 0.  1.
         11    1    5    5    0    0  0.86575183728E+02  0.10246942676E+02 -0.54217830578E+02  0.10266370062E+03  0.00000000000E+00 0.  1.
        -11    1    5    5    0    0  0.11525315006E+03  0.13470857098E+03 -0.86392082618E+02  0.19721379169E+03  0.00000000000E+00 0. -1.
          1    1    6    6  503    0  0.59522857954E+02  0.28942122515E+03 -0.56064526886E+03  0.63374342890E+03  0.00000000000E+00 0. -1.
         -1    1    6    6    0  503  0.97546053680E+02  0.43554090906E+03 -0.10771452115E+04  0.11659557980E+04  0.00000000000E+00 0.  1.
<mgrwt>
<rscale>  0 0.97496984E+03</rscale>
<asrwt>0</asrwt>
<pdfrwt beam="1">  1        2 0.53718700E+00 0.97496984E+03</pdfrwt>
<pdfrwt beam="2">  1       -2 0.46857084E-01 0.97496984E+03</pdfrwt>
<totfact> 0.37032455E+00</totfact>
</mgrwt>
</event>
<event>
12    1  0.1335216E-007  0.3995149E+03  0.7818608E-02  0.1043948E+00
         -2   -1    0    0    0  501 -0.00000000000E+00  0.00000000000E+00  0.33187731070E+03  0.33187731070E+03  0.00000000000E+00 0.  1.
          2   -1    0    0  501    0  0.00000000000E+00 -0.00000000000E+00 -0.10491095178E+04  0.10491095178E+04  0.00000000000E+00 0. -1.
         23    2    1    2    0    0  0.89685326245E+02  0.31691329967E+03  0.58142719440E+02  0.34676185776E+03  0.91573538327E+02 0.  0.
    5000000    2    1    2    0    0 -0.89685326245E+02 -0.31691329967E+03 -0.77537492653E+03  0.10342249707E+04  0.59994792784E+03 0.  0.
         23    2    4    4    0    0  0.28509134460E+02 -0.30339620844E+03 -0.87814538662E+02  0.33042483489E+03  0.92774717850E+02 0.  0.
         23    2    4    4    0    0 -0.11819446070E+03 -0.13517091235E+02 -0.68756038787E+03  0.70380013583E+03  0.91884176722E+02 0.  0.
          3    1    3    3  502    0  0.85596703864E+02  0.15808168383E+03  0.54454641218E+02  0.18783482751E+03  0.00000000000E+00 0. -1.
         -3    1    3    3    0  502  0.40886223801E+01  0.15883161584E+03  0.36880782222E+01  0.15892703026E+03  0.00000000000E+00 0.  1.
         13    1    5    5    0    0  0.62054236135E+02 -0.20330259915E+03 -0.66576458807E+02  0.22274447223E+03  0.00000000000E+00 0. -1.
        -13    1    5    5    0    0 -0.33545101675E+02 -0.10009360929E+03 -0.21238079855E+02  0.10768036266E+03  0.00000000000E+00 0.  1.
          4    1    6    6  503    0 -0.31984684574E+02 -0.40784751733E+02 -0.37018657604E+03  0.37379742789E+03  0.00000000000E+00 0. -1.
         -4    1    6    6    0  503 -0.86209776131E+02  0.27267660498E+02 -0.31737381183E+03  0.33000270794E+03  0.00000000000E+00 0.  1.
<mgrwt>
<rscale>  0 0.39951487E+03</rscale>
<asrwt>0</asrwt>
<pdfrwt beam="1">  1        2 0.16140146E+00 0.39951487E+03</pdfrwt>
<pdfrwt beam="2">  1       -2 0.51058048E-01 0.39951487E+03</pdfrwt>
<totfact> 0.89425651E+01</totfact>
</mgrwt>
</event>
<event>
12    1  0.1335216E-007  0.7335146E+03  0.7818608E-02  0.9661574E-01
          2   -1    0    0  501    0  0.00000000000E+00  0.00000000000E+00  0.66328353453E+03  0.66328353453E+03  0.00000000000E+00 0. -1.
         -2   -1    0    0    0  501 -0.00000000000E+00 -0.00000000000E+00 -0.95410548938E+03  0.95410548938E+03  0.00000000000E+00 0.  1.
         23    2    1    2    0    0 -0.38286276894E+03  0.53092839531E+03 -0.30884837856E+03  0.72928926462E+03  0.89479884653E+02 0.  0.
    5000000    2    1    2    0    0  0.38286276894E+03 -0.53092839531E+03  0.18026423708E+02  0.88809975929E+03  0.59993947170E+03 0.  0.
         23    2    4    4    0    0  0.19830475137E+03  0.26534143910E+02 -0.15496042642E+03  0.26890305491E+03  0.90924605995E+02 0.  0.
         23    2    4    4    0    0  0.18455801757E+03 -0.55746253922E+03  0.17298685012E+03  0.61919670438E+03  0.93026683880E+02 0.  0.
          1    1    3    3  502    0 -0.61245065091E+02  0.14516622872E+03 -0.89834511448E+02  0.18136822050E+03  0.00000000000E+00 0. -1.
         -1    1    3    3    0  502 -0.32161770385E+03  0.38576216659E+03 -0.21901386711E+03  0.54792104412E+03  0.00000000000E+00 0.  1.
         11    1    5    5    0    0  0.19240380915E+03  0.13039219935E+00 -0.14035793265E+03  0.23815875385E+03  0.00000000000E+00 0. -1.
        -11    1    5    5    0    0  0.59009422208E+01  0.26403751710E+02 -0.14602493767E+02  0.30744301060E+02  0.00000000000E+00 0.  1.
          2    1    6    6  503    0  0.14830329289E+03 -0.41279987944E+03  0.87424943611E+02  0.44725912838E+03  0.00000000000E+00 0. -1.
         -2    1    6    6    0  503  0.36254724675E+02 -0.14466265978E+03  0.85561906511E+02  0.17193757600E+03  0.00000000000E+00 0.  1.
<mgrwt>
<rscale>  0 0.73351463E+03</rscale>
<asrwt>0</asrwt>
<pdfrwt beam="1">  1        2 0.10204362E+00 0.73351463E+03</pdfrwt>
<pdfrwt beam="2">  1       -2 0.14678546E+00 0.73351463E+03</pdfrwt>
<totfact> 0.14140177E+01</totfact>
</mgrwt>
</event>
<event>
12    1  0.1335216E-007  0.7863222E+03  0.7818608E-02  0.9580029E-01
          1   -1    0    0  501    0  0.00000000000E+00  0.00000000000E+00  0.17869366059E+04  0.17869366059E+04  0.00000000000E+00 0. -1.
         -1   -1    0    0    0  501 -0.00000000000E+00 -0.00000000000E+00 -0.44042285354E+03  0.44042285354E+03  0.00000000000E+00 0.  1.
         23    2    1    2    0    0  0.52834197766E+03  0.56640376439E+03  0.73923333858E+03  0.10746798181E+04  0.92262196023E+02 0.  0.
    5000000    2    1    2    0    0 -0.52834197766E+03 -0.56640376439E+03  0.60728041380E+03  0.11526796414E+04  0.59993531737E+03 0.  0.
         23    2    4    4    0    0 -0.24961537915E+03 -0.36033051749E+03  0.65179971348E+03  0.79087712252E+03  0.92183713731E+02 0.  0.
         23    2    4    4    0    0 -0.27872659851E+03 -0.20607324689E+03 -0.44519299684E+02  0.36180251888E+03  0.93618346608E+02 0.  0.
          1    1    3    3  502    0  0.41883950017E+03  0.39672749350E+03  0.57311861113E+03  0.81319381050E+03  0.00000000000E+00 0. -1.
         -1    1    3    3    0  502  0.10950247749E+03  0.16967627089E+03  0.16611472745E+03  0.26148600757E+03  0.00000000000E+00 0.  1.
         13    1    5    5    0    0 -0.94548824095E+02 -0.69816182458E+02  0.14787776043E+03  0.18889576888E+03  0.00000000000E+00 0. -1.
        -13    1    5    5    0    0 -0.15506655506E+03 -0.29051433504E+03  0.50392195305E+03  0.60198135363E+03  0.00000000000E+00 0.  1.
          4    1    6    6  503    0 -0.23434041593E+03 -0.17986789780E+03 -0.26947101886E+01  0.29542368331E+03  0.00000000000E+00 0. -1.
         -4    1    6    6    0  503 -0.44386182579E+02 -0.26205349088E+02 -0.41824589495E+02  0.66378835567E+02  0.00000000000E+00 0.  1.
<mgrwt>
<rscale>  0 0.78632215E+03</rscale>
<asrwt>0</asrwt>
<pdfrwt beam="1">  1        1 0.27491332E+00 0.78632215E+03</pdfrwt>
<pdfrwt beam="2">  1       -1 0.67757363E-01 0.78632215E+03</pdfrwt>
<totfact> 0.95122921E+00</totfact>
</mgrwt>
</event>
<event>
12    1  0.1335216E-007  0.1591445E+04  0.7818608E-02  0.8825821E-01
         -1   -1    0    0    0  501 -0.00000000000E+00  0.00000000000E+00  0.12133114497E+04  0.12133114497E+04  0.00000000000E+00 0.  1.
          1   -1    0    0  501    0  0.00000000000E+00 -0.00000000000E+00 -0.24490556025E+04  0.24490556025E+04  0.00000000000E+00 0. -1.
         23    2    1    2    0    0  0.13140341202E+04  0.86398440571E+03 -0.12789128139E+01  0.15749579924E+04  0.85652319942E+02 0.  0.
    5000000    2    1    2    0    0 -0.13140341202E+04 -0.86398440571E+03 -0.12344652399E+04  0.20874090598E+04  0.60018116587E+03 0.  0.
         23    2    4    4    0    0 -0.83471993262E+02 -0.70289847504E+02 -0.34197416368E+03  0.37015133953E+03  0.90318598352E+02 0.  0.
         23    2    4    4    0    0 -0.12305621269E+04 -0.79369455820E+03 -0.89249107623E+03  0.17172577202E+04  0.90551402880E+02 0.  0.
          2    1    3    3  502    0  0.13083349185E+03  0.57140314209E+02 -0.44630680104E+01  0.14283674973E+03  0.00000000000E+00 0. -1.
         -2    1    3    3    0  502  0.11832006283E+04  0.80684409150E+03  0.31841551965E+01  0.14321212427E+04  0.00000000000E+00 0.  1.
         13    1    5    5    0    0 -0.98900821144E+02 -0.38318945451E+02 -0.25040420450E+03  0.27194113266E+03  0.00000000000E+00 0.  1.
        -13    1    5    5    0    0  0.15428827882E+02 -0.31970902054E+02 -0.91569959186E+02  0.98210206869E+02  0.00000000000E+00 0. -1.
          4    1    6    6  503    0 -0.48077941368E+03 -0.35619610944E+03 -0.33860712764E+03  0.68751676334E+03  0.00000000000E+00 0. -1.
         -4    1    6    6    0  503 -0.74978271326E+03 -0.43749844877E+03 -0.55388394860E+03  0.10297409569E+04  0.00000000000E+00 0.  1.
<mgrwt>
<rscale>  0 0.15914446E+04</rscale>
<asrwt>0</asrwt>
<pdfrwt beam="1">  1        1 0.37677778E+00 0.15914446E+04</pdfrwt>
<pdfrwt beam="2">  1       -1 0.18666330E+00 0.15914446E+04</pdfrwt>
<totfact> 0.25669437E-01</totfact>
</mgrwt>
</event>
<event>
12    1  0.1335216E-007  0.4222616E+03  0.7818608E-02  0.1036333E+00
         -2   -1    0    0    0  501 -0.00000000000E+00  0.00000000000E+00  0.38170682071E+03  0.38170682071E+03  0.00000000000E+00 0.  1.
          2   -1    0    0  501    0  0.00000000000E+00 -0.00000000000E+00 -0.57660246879E+03  0.57660246879E+03  0.00000000000E+00 0. -1.
         23    2    1    2    0    0  0.17547575607E+03  0.13184558085E+03 -0.21319376860E+03  0.31919751430E+03  0.90887138845E+02 0.  0.
    5000000    2    1    2    0    0 -0.17547575607E+03 -0.13184558085E+03  0.18298120518E+02  0.63911177521E+03  0.59996170031E+03 0.  0.
         23    2    4    4    0    0  0.10684491397E+03 -0.26523300240E+03  0.70721135507E+02  0.30800998803E+03  0.90023844161E+02 0.  0.
         23    2    4    4    0    0 -0.28232067004E+03  0.13338742154E+03 -0.52423014989E+02  0.33110178717E+03  0.96866175777E+02 0.  0.
          2    1    3    3  502    0  0.60694341760E+02  0.91846504888E+02 -0.66211757949E+02  0.12846626200E+03  0.00000000000E+00 0. -1.
         -2    1    3    3    0  502  0.11478141431E+03  0.39999075965E+02 -0.14698201065E+03  0.19073125230E+03  0.00000000000E+00 0.  1.
         13    1    5    5    0    0  0.66086984511E+01 -0.12245943812E+03  0.90035279040E+01  0.12296768842E+03  0.00000000000E+00 0. -1.
        -13    1    5    5    0    0  0.10023621552E+03 -0.14277356428E+03  0.61717607603E+02  0.18504229961E+03  0.00000000000E+00 0.  1.
          1    1    6    6  503    0 -0.17311697270E+03  0.55979688703E+02 -0.72292896141E+02  0.19577914755E+03  0.00000000000E+00 0. -1.
         -1    1    6    6    0  503 -0.10920369734E+03  0.77407732842E+02  0.19869881152E+02  0.13532263962E+03  0.00000000000E+00 0.  1.
<mgrwt>
<rscale>  0 0.42226157E+03</rscale>
<asrwt>0</asrwt>
<pdfrwt beam="1">  1        2 0.88708072E-01 0.42226157E+03</pdfrwt>
<pdfrwt beam="2">  1       -2 0.58724126E-01 0.42226157E+03</pdfrwt>
<totfact> 0.14551865E+02</totfact>
</mgrwt>
</event>
<event>
12    1  0.1335216E-007  0.1080944E+04  0.7818608E-02  0.9223966E-01
         -2   -1    0    0    0  501 -0.00000000000E+00  0.00000000000E+00  0.88470874162E+03  0.88470874162E+03  0.00000000000E+00 0.  1.
          2   -1    0    0  501    0  0.00000000000E+00 -0.00000000000E+00 -0.14595751944E+04  0.14595751944E+04  0.00000000000E+00 0. -1.
         23    2    1    2    0    0  0.93859303043E+03  0.46516919570E+03 -0.39702354305E+03  0.11240295414E+04  0.92062255332E+02 0.  0.
    5000000    2    1    2    0    0 -0.93859303043E+03 -0.46516919570E+03 -0.17784290969E+03  0.12202543946E+04  0.60004452295E+03 0.  0.
         23    2    4    4    0    0 -0.81926331263E+03 -0.23867931109E+03 -0.31342119074E+03  0.91372482293E+03  0.92195554526E+02 0.  0.
         23    2    4    4    0    0 -0.11932971780E+03 -0.22648988461E+03  0.13557828105E+03  0.30652957163E+03  0.10020807657E+03 0.  0.
          4    1    3    3  502    0  0.36786074330E+03  0.13267420449E+03 -0.14842903549E+03  0.41827640332E+03  0.00000000000E+00 0. -1.
         -4    1    3    3    0  502  0.57073228713E+03  0.33249499121E+03 -0.24859450757E+03  0.70575313810E+03  0.00000000000E+00 0.  1.
         13    1    5    5    0    0 -0.35543741687E+03 -0.12226730612E+03 -0.93305548462E+02  0.38728668559E+03  0.00000000000E+00 0. -1.
        -13    1    5    5    0    0 -0.46382589576E+03 -0.11641200496E+03 -0.22011564228E+03  0.52643813735E+03  0.00000000000E+00 0.  1.
          4    1    6    6  503    0 -0.40803604013E+02 -0.88487769015E+02 -0.45871235505E+00  0.97443469677E+02  0.00000000000E+00 0. -1.
         -4    1    6    6    0  503 -0.78526113783E+02 -0.13800211559E+03  0.13603699340E+03  0.20908610195E+03  0.00000000000E+00 0.  1.
<mgrwt>
<rscale>  0 0.10809443E+04</rscale>
<asrwt>0</asrwt>
<pdfrwt beam="1">  1        2 0.22455003E+00 0.10809443E+04</pdfrwt>
<pdfrwt beam="2">  1       -2 0.13610904E+00 0.10809443E+04</pdfrwt>
<totfact> 0.50893110E+00</totfact>
</mgrwt>
</event>
<event>
12    1  0.1335216E-007  0.8443519E+03  0.7818608E-02  0.9497949E-01
          1   -1    0    0  501    0  0.00000000000E+00  0.00000000000E+00  0.10304513383E+04  0.10304513383E+04  0.00000000000E+00 0. -1.
         -1   -1    0    0    0  501 -0.00000000000E+00 -0.00000000000E+00 -0.70566204659E+03  0.70566204659E+03  0.00000000000E+00 0.  1.
         23    2    1    2    0    0 -0.13358277566E+03  0.73194899357E+03  0.13548743006E+03  0.76183502495E+03  0.91880761855E+02 0.  0.
    5000000    2    1    2    0    0  0.13358277566E+03 -0.73194899357E+03  0.18930186162E+03  0.97427835990E+03  0.59982450819E+03 0.  0.
         23    2    4    4    0    0 -0.21397087938E+03 -0.29969119636E+03 -0.59019274081E+01  0.38048061783E+03  0.95563159204E+02 0.  0.
         23    2    4    4    0    0  0.34755365504E+03 -0.43225779720E+03  0.19520378903E+03  0.59379774207E+03  0.82770120608E+02 0.  0.
          1    1    3    3  502    0 -0.11663039067E+03  0.38808116770E+03  0.81501467812E+02  0.41334263028E+03  0.00000000000E+00 0. -1.
         -1    1    3    3    0  502 -0.16952384995E+02  0.34386782587E+03  0.53985962248E+02  0.34849239467E+03  0.00000000000E+00 0.  1.
         11    1    5    5    0    0 -0.98727967013E+02 -0.21109910939E+03  0.15469881755E+02  0.23355804995E+03  0.00000000000E+00 0.  1.
        -11    1    5    5    0    0 -0.11524291236E+03 -0.88592086971E+02 -0.21371809163E+02  0.14692256788E+03  0.00000000000E+00 0. -1.
          2    1    6    6  503    0  0.12046674151E+03 -0.91427326882E+02  0.54192015479E+02  0.16064858061E+03  0.00000000000E+00 0. -1.
         -2    1    6    6    0  503  0.22708691353E+03 -0.34083047032E+03  0.14101177355E+03  0.43314916147E+03  0.00000000000E+00 0.  1.
<mgrwt>
<rscale>  0 0.84435192E+03</rscale>
<asrwt>0</asrwt>
<pdfrwt beam="1">  1        1 0.15853098E+00 0.84435192E+03</pdfrwt>
<pdfrwt beam="2">  1       -1 0.10856339E+00 0.84435192E+03</pdfrwt>
<totfact> 0.11503368E+01</totfact>
</mgrwt>
</event>
<event>
12    1  0.1375178E-007  0.7388917E+03  0.7818608E-02  0.9652941E-01
         -1   -1    0    0    0  501 -0.00000000000E+00  0.00000000000E+00  0.71832639561E+03  0.71832639561E+03  0.00000000000E+00 0.  1.
          1   -1    0    0  501    0  0.00000000000E+00 -0.00000000000E+00 -0.10027038091E+04  0.10027038091E+04  0.00000000000E+00 0. -1.
         23    2    1    2    0    0  0.72521524730E+03  0.33910936235E+02 -0.26553090569E+03  0.77887034540E+03  0.95106501079E+02 0.  0.
    5000000    2    1    2    0    0 -0.72521524730E+03 -0.33910936235E+02 -0.18846507802E+02  0.94215985932E+03  0.60018572386E+03 0.  0.
         23    2    4    4    0    0 -0.35647720610E+03 -0.67060468007E+02 -0.29076592849E+03  0.47394116399E+03  0.92207900493E+02 0.  0.
         23    2    4    4    0    0 -0.36873804120E+03  0.33149531772E+02  0.27191942069E+03  0.46821869533E+03  0.90674918357E+02 0.  0.
          3    1    3    3  502    0  0.40461787658E+03  0.47030647989E+02 -0.18874046540E+03  0.44894372830E+03  0.00000000000E+00 0. -1.
         -3    1    3    3    0  502  0.32059737073E+03 -0.13119711754E+02 -0.76790440284E+02  0.32992661710E+03  0.00000000000E+00 0.  1.
         13    1    5    5    0    0 -0.15252304141E+03  0.44865093133E+01 -0.16108709505E+03  0.22188388657E+03  0.00000000000E+00 0. -1.
        -13    1    5    5    0    0 -0.20395416469E+03 -0.71546977320E+02 -0.12967883344E+03  0.25205727742E+03  0.00000000000E+00 0.  1.
          2    1    6    6  503    0 -0.10745242727E+03 -0.30936223656E+02  0.71190094281E+02  0.13255603941E+03  0.00000000000E+00 0.  1.
         -2    1    6    6    0  503 -0.26128561393E+03  0.64085755428E+02  0.20072932641E+03  0.33566265592E+03  0.00000000000E+00 0. -1.
<mgrwt>
<rscale>  0 0.73889168E+03</rscale>
<asrwt>0</asrwt>
<pdfrwt beam="1">  1        1 0.15426212E+00 0.73889168E+03</pdfrwt>
<pdfrwt beam="2">  1       -1 0.11051175E+00 0.73889168E+03</pdfrwt>
<totfact> 0.11745121E+01</totfact>
</mgrwt>
</event>
<event>
12    1  0.1335216E-007  0.1570925E+04  0.7818608E-02  0.8838611E-01
          1   -1    0    0  501    0  0.00000000000E+00  0.00000000000E+00  0.51031162840E+04  0.51031162840E+04  0.00000000000E+00 0. -1.
         -1   -1    0    0    0  501 -0.00000000000E+00 -0.00000000000E+00 -0.71039715236E+03  0.71039715236E+03  0.00000000000E+00 0.  1.
         23    2    1    2    0    0  0.12984405649E+04 -0.78167457764E+03  0.37775490120E+04  0.40712826400E+04  0.92210358632E+02 0.  0.
    5000000    2    1    2    0    0 -0.12984405649E+04  0.78167457764E+03  0.61517011961E+03  0.17422307964E+04  0.59997568766E+03 0.  0.
         23    2    4    4    0    0 -0.84678551882E+03  0.80088728360E+03  0.43582414237E+03  0.12477320979E+04  0.91796237599E+02 0.  0.
         23    2    4    4    0    0 -0.45165504612E+03 -0.19212705962E+02  0.17934597724E+03  0.49449869844E+03  0.89457109549E+02 0.  0.
          1    1    3    3  502    0  0.49120978841E+03 -0.31979397099E+03  0.13546632327E+04  0.14760310682E+04  0.00000000000E+00 0. -1.
         -1    1    3    3    0  502  0.80723077653E+03 -0.46188060666E+03  0.24228857793E+04  0.25952515718E+04  0.00000000000E+00 0.  1.
         11    1    5    5    0    0 -0.25666035225E+03  0.26734514972E+03  0.97455312609E+02  0.38320425813E+03  0.00000000000E+00 0. -1.
        -11    1    5    5    0    0 -0.59012516657E+03  0.53354213389E+03  0.33836882976E+03  0.86452783981E+03  0.00000000000E+00 0.  1.
          3    1    6    6  503    0 -0.14102936417E+03 -0.44458452878E+02  0.75298931904E+02  0.16593903922E+03  0.00000000000E+00 0. -1.
         -3    1    6    6    0  503 -0.31062568195E+03  0.25245746915E+02  0.10404704534E+03  0.32855965922E+03  0.00000000000E+00 0.  1.
<mgrwt>
<rscale>  0 0.15709254E+04</rscale>
<asrwt>0</asrwt>
<pdfrwt beam="1">  1        1 0.78509479E+00 0.15709254E+04</pdfrwt>
<pdfrwt beam="2">  1       -1 0.10929187E+00 0.15709254E+04</pdfrwt>
<totfact> 0.48069998E-03</totfact>
</mgrwt>
</event>
<event>
12    1  0.1335216E-007  0.6577940E+03  0.7818608E-02  0.9792263E-01
          2   -1    0    0  501    0  0.00000000000E+00  0.00000000000E+00  0.12554069104E+04  0.12554069104E+04  0.00000000000E+00 0. -1.
         -2   -1    0    0    0  501 -0.00000000000E+00 -0.00000000000E+00 -0.38305520476E+03  0.38305520476E+03  0.00000000000E+00 0.  1.
         23    2    1    2    0    0  0.43514628983E+02  0.54302761465E+03  0.20542657666E+03  0.58893731028E+03  0.88738739182E+02 0.  0.
    5000000    2    1    2    0    0 -0.43514628983E+02 -0.54302761465E+03  0.66692512895E+03  0.10495248048E+04  0.59995056059E+03 0.  0.
         23    2    4    4    0    0 -0.97343580557E+02 -0.62948861939E+03  0.42273013405E+03  0.76988807558E+03  0.91077923064E+02 0.  0.
         23    2    4    4    0    0  0.53828951574E+02  0.86461004734E+02  0.24419499490E+03  0.27963672927E+03  0.90512117730E+02 0.  0.
          4    1    3    3  502    0 -0.23053758124E+02  0.13035615429E+03  0.30759497851E+02  0.13590566372E+03  0.00000000000E+00 0. -1.
         -4    1    3    3    0  502  0.66568387107E+02  0.41267146037E+03  0.17466707881E+03  0.45303164656E+03  0.00000000000E+00 0.  1.
         13    1    5    5    0    0 -0.92694719693E+02 -0.33022604406E+03  0.24875542827E+03  0.42369896664E+03  0.00000000000E+00 0.  1.
        -13    1    5    5    0    0 -0.46488608635E+01 -0.29926257533E+03  0.17397470578E+03  0.34618910894E+03  0.00000000000E+00 0. -1.
          4    1    6    6  503    0  0.57864215338E+02  0.27942666078E+02  0.18691089119E+03  0.19764802364E+03  0.00000000000E+00 0. -1.
         -4    1    6    6    0  503 -0.40352637642E+01  0.58518338657E+02  0.57284103709E+02  0.81988705628E+02  0.00000000000E+00 0.  1.
<mgrwt>
<rscale>  0 0.65779399E+03</rscale>
<asrwt>0</asrwt>
<pdfrwt beam="1">  1        2 0.19313952E+00 0.65779399E+03</pdfrwt>
<pdfrwt beam="2">  1       -2 0.58931571E-01 0.65779399E+03</pdfrwt>
<totfact> 0.48570102E+01</totfact>
</mgrwt>
</event>
<event>
12    1  0.1335216E-007  0.5688491E+03  0.7818608E-02  0.9972229E-01
          2   -1    0    0  501    0  0.00000000000E+00  0.00000000000E+00  0.14949036800E+04  0.14949036800E+04  0.00000000000E+00 0. -1.
         -2   -1    0    0    0  501 -0.00000000000E+00 -0.00000000000E+00 -0.26220365727E+03  0.26220365727E+03  0.00000000000E+00 0.  1.
         23    2    1    2    0    0 -0.37613816194E+03 -0.19289631853E+03  0.78803609373E+03  0.89896467440E+03  0.91911338958E+02 0.  0.
    5000000    2    1    2    0    0  0.37613816194E+03  0.19289631853E+03  0.44466392903E+03  0.85814266290E+03  0.59999492792E+03 0.  0.
         23    2    4    4    0    0 -0.18295054668E+02  0.28849766426E+03  0.27368975855E+03  0.40853078938E+03  0.91791669687E+02 0.  0.
         23    2    4    4    0    0  0.39443321661E+03 -0.95601345731E+02  0.17097417048E+03  0.44961187352E+03  0.90562079089E+02 0.  0.
          3    1    3    3  502    0 -0.11752098750E+03 -0.20276267437E+02  0.17800912903E+03  0.21426516176E+03  0.00000000000E+00 0. -1.
         -3    1    3    3    0  502 -0.25861717443E+03 -0.17262005109E+03  0.61002696470E+03  0.68469951264E+03  0.00000000000E+00 0.  1.
         11    1    5    5    0    0 -0.45630724532E+02  0.14832226886E+03  0.18032248948E+03  0.23790304469E+03  0.00000000000E+00 0. -1.
        -11    1    5    5    0    0  0.27335669865E+02  0.14017539540E+03  0.93367269073E+02  0.17062774469E+03  0.00000000000E+00 0.  1.
          4    1    6    6  503    0  0.10753431346E+03 -0.14148154073E+01  0.11591419246E+02  0.10816649793E+03  0.00000000000E+00 0. -1.
         -4    1    6    6    0  503  0.28689890315E+03 -0.94186530324E+02  0.15938275123E+03  0.34144537559E+03  0.00000000000E+00 0.  1.
<mgrwt>
<rscale>  0 0.56884907E+03</rscale>
<asrwt>0</asrwt>
<pdfrwt beam="1">  1        2 0.22998518E+00 0.56884907E+03</pdfrwt>
<pdfrwt beam="2">  1       -2 0.40339025E-01 0.56884907E+03</pdfrwt>
<totfact> 0.77323668E+01</totfact>
</mgrwt>
</event>
<event>
12    1  0.1335216E-007  0.5500628E+03  0.7818608E-02  0.1001479E+00
          2   -1    0    0  501    0  0.00000000000E+00  0.00000000000E+00  0.41207262302E+04  0.41207262302E+04  0.00000000000E+00 0.  1.
         -2   -1    0    0    0  501 -0.00000000000E+00 -0.00000000000E+00 -0.19888252594E+03  0.19888252594E+03  0.00000000000E+00 0. -1.
         23    2    1    2    0    0  0.50048447353E+03  0.34029680550E+02  0.25439146102E+03  0.56964045801E+03  0.90180422274E+02 0.  0.
    5000000    2    1    2    0    0 -0.50048447353E+03 -0.34029680550E+02  0.36674522432E+04  0.37499682981E+04  0.60034452868E+03 0.  0.
         23    2    4    4    0    0 -0.42913844172E+03  0.95403947609E+02  0.34090727443E+04  0.34384909553E+04  0.90450860328E+02 0.  0.
         23    2    4    4    0    0 -0.71346031814E+02 -0.12943362816E+03  0.25837949896E+03  0.31147734288E+03  0.91732487661E+02 0.  0.
          3    1    3    3  502    0  0.22741712526E+03 -0.75733742230E+01  0.15827591481E+03  0.27717714565E+03  0.00000000000E+00 0. -1.
         -3    1    3    3    0  502  0.27306734827E+03  0.41603054773E+02  0.96115546207E+02  0.29246331236E+03  0.00000000000E+00 0.  1.
         13    1    5    5    0    0 -0.89451184041E+02  0.57724441607E+02  0.88735096644E+03  0.89371436327E+03  0.00000000000E+00 0. -1.
        -13    1    5    5    0    0 -0.33968725767E+03  0.37679506003E+02  0.25217217779E+04  0.25447765920E+04  0.00000000000E+00 0.  1.
          1    1    6    6  503    0 -0.45949342903E+02 -0.73129541491E+02  0.63930952894E+02  0.10745435631E+03  0.00000000000E+00 0. -1.
         -1    1    6    6    0  503 -0.25396688911E+02 -0.56304086669E+02  0.19444854607E+03  0.20402298658E+03  0.00000000000E+00 0.  1.
<mgrwt>
<rscale>  0 0.55006282E+03</rscale>
<asrwt>0</asrwt>
<pdfrwt beam="1">  1        2 0.63395782E+00 0.55006282E+03</pdfrwt>
<pdfrwt beam="2">  1       -2 0.30597315E-01 0.55006282E+03</pdfrwt>
<totfact> 0.31568538E+00</totfact>
</mgrwt>
</event>
<event>
12    1  0.1335216E-007  0.3608163E+03  0.7818608E-02  0.1058261E+00
          2   -1    0    0  501    0  0.00000000000E+00  0.00000000000E+00  0.40816284995E+04  0.40816284995E+04  0.00000000000E+00 0. -1.
         -2   -1    0    0    0  501 -0.00000000000E+00 -0.00000000000E+00 -0.50460024125E+02  0.50460024125E+02  0.00000000000E+00 0.  1.
         23    2    1    2    0    0  0.28110800923E+02 -0.22802991779E+03  0.78287759989E+03  0.82086505202E+03  0.90190003176E+02 0.  0.
    5000000    2    1    2    0    0 -0.28110800923E+02  0.22802991779E+03  0.32482908754E+04  0.33112234716E+04  0.60001617200E+03 0.  0.
         23    2    4    4    0    0  0.60141090680E+02  0.31584384045E+03  0.30045650723E+04  0.30230110145E+04  0.88374416716E+02 0.  0.
         23    2    4    4    0    0 -0.88251891604E+02 -0.87813922665E+02  0.24372580314E+03  0.28821245711E+03  0.90357467481E+02 0.  0.
          4    1    3    3  502    0 -0.31348894484E+02 -0.10735328069E+03  0.33065157965E+03  0.34905292891E+03  0.00000000000E+00 0. -1.
         -4    1    3    3    0  502  0.59459695408E+02 -0.12067663710E+03  0.45222602025E+03  0.47181212310E+03  0.00000000000E+00 0.  1.
         13    1    5    5    0    0  0.16401958385E+00  0.10556518594E+03  0.13387391444E+04  0.13428948328E+04  0.00000000000E+00 0.  1.
        -13    1    5    5    0    0  0.59977071096E+02  0.21027865451E+03  0.16658259279E+04  0.16801161816E+04  0.00000000000E+00 0. -1.
          3    1    6    6  503    0 -0.48760513878E+02  0.61148987423E+01  0.10652661075E+03  0.11731538048E+03  0.00000000000E+00 0. -1.
         -3    1    6    6    0  503 -0.39491377725E+02 -0.93928821407E+02  0.13719919240E+03  0.17089707663E+03  0.00000000000E+00 0.  1.
<mgrwt>
<rscale>  0 0.36081627E+03</rscale>
<asrwt>0</asrwt>
<pdfrwt beam="1">  1        2 0.62794258E+00 0.36081627E+03</pdfrwt>
<pdfrwt beam="2">  1       -2 0.77630839E-02 0.36081627E+03</pdfrwt>
<totfact> 0.36909324E+01</totfact>
</mgrwt>
</event>
<event>
12    1  0.1420985E-007  0.9647976E+03  0.7818608E-02  0.9348020E-01
          2   -1    0    0  501    0  0.00000000000E+00  0.00000000000E+00  0.21680109305E+04  0.21680109305E+04  0.00000000000E+00 0.  1.
         -2   -1    0    0    0  501 -0.00000000000E+00 -0.00000000000E+00 -0.43329635063E+03  0.43329635063E+03  0.00000000000E+00 0. -1.
         23    2    1    2    0    0 -0.80338529655E+03  0.34281998496E+03  0.81491566634E+03  0.11981150471E+04  0.91862103257E+02 0.  0.
    5000000    2    1    2    0    0  0.80338529655E+03 -0.34281998496E+03  0.91979891350E+03  0.14031922340E+04  0.59997077224E+03 0.  0.
         23    2    4    4    0    0 -0.44816067968E+02  0.58489682663E+02  0.88106759602E+02  0.14596938317E+03  0.90081833960E+02 0.  0.
         23    2    4    4    0    0  0.84820136451E+03 -0.40130966762E+03  0.83169215389E+03  0.12572228508E+04  0.91664899228E+02 0.  0.
          2    1    3    3  502    0 -0.25834914918E+03  0.78968679611E+02  0.20976843229E+03  0.34202796732E+03  0.00000000000E+00 0. -1.
         -2    1    3    3    0  502 -0.54503614736E+03  0.26385130535E+03  0.60514723405E+03  0.85608707977E+03  0.00000000000E+00 0.  1.
         11    1    5    5    0    0  0.94488803315E+01  0.60486348286E+02  0.55484334101E+02  0.82621976490E+02  0.00000000000E+00 0. -1.
        -11    1    5    5    0    0 -0.54264948300E+02 -0.19966656233E+01  0.32622425502E+02  0.63347406681E+02  0.00000000000E+00 0.  1.
          3    1    6    6  503    0  0.15663291747E+03 -0.77616326920E+02  0.10983480695E+03  0.20645059907E+03  0.00000000000E+00 0. -1.
         -3    1    6    6    0  503  0.69156844705E+03 -0.32369334070E+03  0.72185734694E+03  0.10507722518E+04  0.00000000000E+00 0.  1.
<mgrwt>
<rscale>  0 0.96479765E+03</rscale>
<asrwt>0</asrwt>
<pdfrwt beam="1">  1        2 0.33354014E+00 0.96479765E+03</pdfrwt>
<pdfrwt beam="2">  1       -2 0.66660978E-01 0.96479765E+03</pdfrwt>
<totfact> 0.11235672E+01</totfact>
</mgrwt>
</event>
<event>
12    1  0.1335216E-007  0.8412499E+03  0.7818608E-02  0.9502157E-01
          1   -1    0    0  501    0  0.00000000000E+00  0.00000000000E+00  0.14450064116E+04  0.14450064116E+04  0.00000000000E+00 0. -1.
         -1   -1    0    0    0  501 -0.00000000000E+00 -0.00000000000E+00 -0.50464315332E+03  0.50464315332E+03  0.00000000000E+00 0.  1.
         23    2    1    2    0    0  0.61091065976E+03 -0.42444560151E+03  0.35769394023E+03  0.83037322514E+03  0.90602622989E+02 0.  0.
    5000000    2    1    2    0    0 -0.61091065976E+03  0.42444560151E+03  0.58266931808E+03  0.11192763398E+04  0.59992506847E+03 0.  0.
         23    2    4    4    0    0 -0.10093303088E+03  0.41259638497E+03  0.30635043864E+03  0.53161658314E+03  0.91336447289E+02 0.  0.
         23    2    4    4    0    0 -0.50997762889E+03  0.11849216538E+02  0.27631887944E+03  0.58765975667E+03  0.93671129901E+02 0.  0.
          3    1    3    3  502    0  0.39424881533E+03 -0.24627597895E+03  0.18096152683E+03  0.49882969076E+03  0.00000000000E+00 0. -1.
         -3    1    3    3    0  502  0.21666184444E+03 -0.17816962256E+03  0.17673241340E+03  0.33154353438E+03  0.00000000000E+00 0.  1.
         13    1    5    5    0    0 -0.59917963301E+02  0.15510777068E+03  0.72579008660E+02  0.18142848549E+03  0.00000000000E+00 0. -1.
        -13    1    5    5    0    0 -0.41015067577E+02  0.25748861429E+03  0.23377142998E+03  0.35018809765E+03  0.00000000000E+00 0.  1.
          3    1    6    6  503    0 -0.23243416404E+03  0.37230836537E+01  0.17914882492E+03  0.29348561027E+03  0.00000000000E+00 0. -1.
         -3    1    6    6    0  503 -0.27754346485E+03  0.81261328844E+01  0.97170054519E+02  0.29417414640E+03  0.00000000000E+00 0.  1.
<mgrwt>
<rscale>  0 0.84124988E+03</rscale>
<asrwt>0</asrwt>
<pdfrwt beam="1">  1        1 0.22230868E+00 0.84124988E+03</pdfrwt>
<pdfrwt beam="2">  1       -1 0.77637408E-01 0.84124988E+03</pdfrwt>
<totfact> 0.12162389E+01</totfact>
</mgrwt>
</event>
<event>
12    1  0.1335216E-007  0.5284143E+03  0.7818608E-02  0.1006617E+00
         -2   -1    0    0    0  501 -0.00000000000E+00  0.00000000000E+00  0.61377857178E+03  0.61377857178E+03  0.00000000000E+00 0.  1.
          2   -1    0    0  501    0  0.00000000000E+00 -0.00000000000E+00 -0.59070976556E+03  0.59070976556E+03  0.00000000000E+00 0. -1.
         23    2    1    2    0    0 -0.51269284298E+01  0.39024338403E+03 -0.20984479488E+03  0.45194692359E+03  0.88910064858E+02 0.  0.
    5000000    2    1    2    0    0  0.51269284298E+01 -0.39024338403E+03  0.23291360111E+03  0.75254141374E+03  0.59979467290E+03 0.  0.
         23    2    4    4    0    0 -0.16356053685E+03 -0.43003600368E+03  0.28628418442E+03  0.54943773111E+03  0.90775395539E+02 0.  0.
         23    2    4    4    0    0  0.16868746528E+03  0.39792619653E+02 -0.53370583314E+02  0.20310368263E+03  0.91453667033E+02 0.  0.
          1    1    3    3  502    0 -0.44283355932E+02  0.27130454684E+03 -0.13815902044E+03  0.30766066969E+03  0.00000000000E+00 0. -1.
         -1    1    3    3    0  502  0.39156427502E+02  0.11893883719E+03 -0.71685774444E+02  0.14428625390E+03  0.00000000000E+00 0.  1.
         11    1    5    5    0    0 -0.38439128074E+02 -0.22826576384E+03  0.13680854734E+03  0.26888548516E+03  0.00000000000E+00 0. -1.
        -11    1    5    5    0    0 -0.12512140878E+03 -0.20177023985E+03  0.14947563708E+03  0.28055224594E+03  0.00000000000E+00 0.  1.
          3    1    6    6  503    0  0.17422471984E+03  0.30314998181E+02 -0.32901327366E+02  0.17987703983E+03  0.00000000000E+00 0. -1.
         -3    1    6    6    0  503 -0.55372545531E+01  0.94776214720E+01 -0.20469255947E+02  0.23226642801E+02  0.00000000000E+00 0.  1.
<mgrwt>
<rscale>  0 0.52841429E+03</rscale>
<asrwt>0</asrwt>
<pdfrwt beam="1">  1        2 0.90878425E-01 0.52841429E+03</pdfrwt>
<pdfrwt beam="2">  1       -2 0.94427473E-01 0.52841429E+03</pdfrwt>
<totfact> 0.49269401E+01</totfact>
</mgrwt>
</event>
<event>
12    1  0.1335216E-007  0.5170590E+03  0.7818608E-02  0.1009420E+00
         -1   -1    0    0    0  501 -0.00000000000E+00  0.00000000000E+00  0.17556854804E+03  0.17556854804E+03  0.00000000000E+00 0.  1.
          1   -1    0    0  501    0  0.00000000000E+00 -0.00000000000E+00 -0.18373957942E+04  0.18373957942E+04  0.00000000000E+00 0. -1.
         23    2    1    2    0    0 -0.59936106017E+02  0.39153702004E+03 -0.73794748121E+03  0.84225685007E+03  0.89087269601E+02 0.  0.
    5000000    2    1    2    0    0  0.59936106017E+02 -0.39153702004E+03 -0.92387976499E+03  0.11707074922E+04  0.60009052423E+03 0.  0.
         23    2    4    4    0    0  0.25083956525E+03 -0.84532420076E+02 -0.64804845234E+03  0.70614100723E+03  0.92747549658E+02 0.  0.
         23    2    4    4    0    0 -0.19090345923E+03 -0.30700459996E+03 -0.27583131265E+03  0.46456648497E+03  0.95095482417E+02 0.  0.
          3    1    3    3  502    0 -0.71939959784E+01  0.26214424515E+03 -0.42284863574E+03  0.49756640521E+03  0.00000000000E+00 0. -1.
         -3    1    3    3    0  502 -0.52742110039E+02  0.12939277488E+03 -0.31509884547E+03  0.34469044487E+03  0.00000000000E+00 0.  1.
         13    1    5    5    0    0  0.43144434191E+02  0.60557506870E+01 -0.19227229306E+03  0.19714651657E+03  0.00000000000E+00 0.  1.
        -13    1    5    5    0    0  0.20769513106E+03 -0.90588170763E+02 -0.45577615928E+03  0.50899449065E+03  0.00000000000E+00 0. -1.
          1    1    6    6  503    0 -0.14421679294E+03 -0.24616484386E+03 -0.26055030463E+03  0.38637038572E+03  0.00000000000E+00 0. -1.
         -1    1    6    6    0  503 -0.46686666292E+02 -0.60839756102E+02 -0.15281008019E+02  0.78196099251E+02  0.00000000000E+00 0.  1.
<mgrwt>
<rscale>  0 0.51705901E+03</rscale>
<asrwt>0</asrwt>
<pdfrwt beam="1">  1        1 0.28267627E+00 0.51705901E+03</pdfrwt>
<pdfrwt beam="2">  1       -1 0.27010547E-01 0.51705901E+03</pdfrwt>
<totfact> 0.50181287E+01</totfact>
</mgrwt>
</event>
<event>
12    1  0.1335216E-007  0.3730007E+03  0.7818608E-02  0.1053551E+00
          2   -1    0    0  501    0  0.00000000000E+00  0.00000000000E+00  0.15873595774E+03  0.15873595774E+03  0.00000000000E+00 0.  1.
         -2   -1    0    0    0  501 -0.00000000000E+00 -0.00000000000E+00 -0.11965781261E+04  0.11965781261E+04  0.00000000000E+00 0. -1.
         23    2    1    2    0    0 -0.12816299699E+03  0.88230823122E+02 -0.42079069426E+02  0.18234575525E+03  0.85257811538E+02 0.  0.
    5000000    2    1    2    0    0  0.12816299699E+03 -0.88230823122E+02 -0.99576309890E+03  0.11729683286E+04  0.60008342647E+03 0.  0.
         23    2    4    4    0    0 -0.45112834381E+02 -0.29092881462E+03 -0.69752032636E+03  0.76252667260E+03  0.90761102515E+02 0.  0.
         23    2    4    4    0    0  0.17327583137E+03  0.20269799150E+03 -0.29824277254E+03  0.41044165596E+03  0.91665762879E+02 0.  0.
          4    1    3    3  502    0 -0.48247306226E+02 -0.30836144514E+01  0.11504430871E+02  0.49695705708E+02  0.00000000000E+00 0. -1.
         -4    1    3    3    0  502 -0.79915690759E+02  0.91314437574E+02 -0.53583500297E+02  0.13265004954E+03  0.00000000000E+00 0.  1.
         11    1    5    5    0    0  0.17704146580E+02 -0.12957929894E+03 -0.23968014312E+03  0.27303992844E+03  0.00000000000E+00 0.  1.
        -11    1    5    5    0    0 -0.62816980961E+02 -0.16134951568E+03 -0.45784018325E+03  0.48948674416E+03  0.00000000000E+00 0. -1.
          3    1    6    6  503    0  0.13641973939E+03  0.11939588487E+03 -0.24550329441E+03  0.30518451826E+03  0.00000000000E+00 0. -1.
         -3    1    6    6    0  503  0.36856091981E+02  0.83302106625E+02 -0.52739478130E+02  0.10525713770E+03  0.00000000000E+00 0.  1.
<mgrwt>
<rscale>  0 0.37300072E+03</rscale>
<asrwt>0</asrwt>
<pdfrwt beam="1">  1        2 0.24420917E-01 0.37300072E+03</pdfrwt>
<pdfrwt beam="2">  1       -2 0.18408894E+00 0.37300072E+03</pdfrwt>
<totfact> 0.40040513E+01</totfact>
</mgrwt>
</event>
<event>
12    1  0.1335216E-007  0.4538791E+03  0.7818608E-02  0.1026572E+00
         -1   -1    0    0    0  501 -0.00000000000E+00  0.00000000000E+00  0.94135042078E+03  0.94135042078E+03  0.00000000000E+00 0.  1.
          1   -1    0    0  501    0  0.00000000000E+00 -0.00000000000E+00 -0.35391764608E+03  0.35391764608E+03  0.00000000000E+00 0. -1.
         23    2    1    2    0    0 -0.12922149228E+03  0.30750395505E+03  0.49520902651E+03  0.60266905088E+03  0.81982489080E+02 0.  0.
    5000000    2    1    2    0    0  0.12922149228E+03 -0.30750395505E+03  0.92223748189E+02  0.69259901598E+03  0.59994274791E+03 0.  0.
         23    2    4    4    0    0  0.16835630425E+03 -0.41326408747E+03  0.21415213299E+03  0.50308945455E+03  0.90037836731E+02 0.  0.
         23    2    4    4    0    0 -0.39134811975E+02  0.10576013242E+03 -0.12192838480E+03  0.18950956143E+03  0.91272141066E+02 0.  0.
          2    1    3    3  502    0 -0.70444897205E+02  0.17419997662E+03  0.20592382062E+03  0.27877004017E+03  0.00000000000E+00 0. -1.
         -2    1    3    3    0  502 -0.58776595074E+02  0.13330397843E+03  0.28928520590E+03  0.32389901072E+03  0.00000000000E+00 0.  1.
         13    1    5    5    0    0  0.15465237499E+03 -0.30600637394E+03  0.13243457621E+03  0.36755431566E+03  0.00000000000E+00 0.  1.
        -13    1    5    5    0    0  0.13703929259E+02 -0.10725771352E+03  0.81717556779E+02  0.13553513889E+03  0.00000000000E+00 0. -1.
          3    1    6    6  503    0  0.44399313412E+00 -0.52745710567E+01 -0.52374431465E+02  0.52641231949E+02  0.00000000000E+00 0. -1.
         -3    1    6    6    0  503 -0.39578805109E+02  0.11103470348E+03 -0.69553953335E+02  0.13686832948E+03  0.00000000000E+00 0.  1.
<mgrwt>
<rscale>  0 0.45387913E+03</rscale>
<asrwt>0</asrwt>
<pdfrwt beam="1">  1        1 0.54448869E-01 0.45387913E+03</pdfrwt>
<pdfrwt beam="2">  1       -1 0.14482314E+00 0.45387913E+03</pdfrwt>
<totfact> 0.28700349E+01</totfact>
</mgrwt>
</event>
<event>
12    1  0.1335216E-007  0.6499187E+03  0.7818608E-02  0.9806932E-01
         -1   -1    0    0    0  501 -0.00000000000E+00  0.00000000000E+00  0.42183479998E+03  0.42183479998E+03  0.00000000000E+00 0.  1.
          1   -1    0    0  501    0  0.00000000000E+00 -0.00000000000E+00 -0.25487757577E+04  0.25487757577E+04  0.00000000000E+00 0. -1.
         23    2    1    2    0    0  0.56459296144E+03 -0.23995970385E+03 -0.20111543090E+04  0.21046519218E+04  0.92044475602E+02 0.  0.
    5000000    2    1    2    0    0 -0.56459296144E+03  0.23995970385E+03 -0.11578664870E+03  0.86595863593E+03  0.60010993954E+03 0.  0.
         23    2    4    4    0    0 -0.51284008664E+03  0.25541599155E+03  0.13274279438E+03  0.59525404271E+03  0.92002405980E+02 0.  0.
         23    2    4    4    0    0 -0.51752874805E+02 -0.15456287699E+02 -0.24852944308E+03  0.27070459321E+03  0.92719123316E+02 0.  0.
          4    1    3    3  502    0  0.59014244156E+02 -0.11295185591E+02 -0.29374514931E+03  0.29982740864E+03  0.00000000000E+00 0. -1.
         -4    1    3    3    0  502  0.50557871729E+03 -0.22866451826E+03 -0.17174091597E+04  0.18048245131E+04  0.00000000000E+00 0.  1.
         13    1    5    5    0    0 -0.22735091426E+03  0.63024522972E+02  0.49301987361E+02  0.24102119133E+03  0.00000000000E+00 0. -1.
        -13    1    5    5    0    0 -0.28548917238E+03  0.19239146858E+03  0.83440807019E+02  0.35423285138E+03  0.00000000000E+00 0.  1.
          1    1    6    6  503    0  0.22605965301E+02 -0.19994791276E+02 -0.10130634615E+03  0.10570618296E+03  0.00000000000E+00 0. -1.
         -1    1    6    6    0  503 -0.74358840106E+02  0.45385035772E+01 -0.14722309693E+03  0.16499841025E+03  0.00000000000E+00 0.  1.
<mgrwt>
<rscale>  0 0.64991875E+03</rscale>
<asrwt>0</asrwt>
<pdfrwt beam="1">  1        1 0.39211935E+00 0.64991875E+03</pdfrwt>
<pdfrwt beam="2">  1       -1 0.64897661E-01 0.64991875E+03</pdfrwt>
<totfact> 0.32718736E+00</totfact>
</mgrwt>
</event>
<event>
12    1  0.1335216E-007  0.9043894E+03  0.7818608E-02  0.9420111E-01
          1   -1    0    0  501    0  0.00000000000E+00  0.00000000000E+00  0.17825101445E+04  0.17825101445E+04  0.00000000000E+00 0. -1.
         -1   -1    0    0    0  501 -0.00000000000E+00 -0.00000000000E+00 -0.60403310987E+03  0.60403310987E+03  0.00000000000E+00 0.  1.
         23    2    1    2    0    0 -0.14487584464E+03  0.86790131317E+03  0.94904536054E+03  0.12971487884E+04  0.87556742592E+02 0.  0.
    5000000    2    1    2    0    0  0.14487584464E+03 -0.86790131317E+03  0.22943167410E+03  0.10893944660E+04  0.59991641887E+03 0.  0.
         23    2    4    4    0    0 -0.58672148402E+02 -0.17361639407E+03  0.29205714951E+03  0.35653934982E+03  0.90762636059E+02 0.  0.
         23    2    4    4    0    0  0.20354799304E+03 -0.69428491910E+03 -0.62625475413E+02  0.73285511614E+03  0.98444587069E+02 0.  0.
          3    1    3    3  502    0 -0.86508268177E+02  0.41995465012E+03  0.52190135600E+03  0.67544549300E+03  0.00000000000E+00 0. -1.
         -3    1    3    3    0  502 -0.58367576463E+02  0.44794666305E+03  0.42714400454E+03  0.62170329542E+03  0.00000000000E+00 0.  1.
         13    1    5    5    0    0  0.50457443644E+01  0.92919742217E+01  0.19306271043E+02  0.22012097190E+02  0.00000000000E+00 0. -1.
        -13    1    5    5    0    0 -0.63717892766E+02 -0.18290836829E+03  0.27275087847E+03  0.33452725263E+03  0.00000000000E+00 0.  1.
          4    1    6    6  503    0  0.51437052917E+02 -0.21987748591E+03 -0.63811727456E+02  0.23465680426E+03  0.00000000000E+00 0. -1.
         -4    1    6    6    0  503  0.15211094012E+03 -0.47440743319E+03  0.11862520427E+01  0.49819831189E+03  0.00000000000E+00 0.  1.
<mgrwt>
<rscale>  0 0.90438941E+03</rscale>
<asrwt>0</asrwt>
<pdfrwt beam="1">  1        1 0.27423233E+00 0.90438941E+03</pdfrwt>
<pdfrwt beam="2">  1       -1 0.92928172E-01 0.90438941E+03</pdfrwt>
<totfact> 0.48118805E+00</totfact>
</mgrwt>
</event>
<event>
12    1  0.1335216E-007  0.6512399E+03  0.7818608E-02  0.9804455E-01
         -1   -1    0    0    0  501 -0.00000000000E+00  0.00000000000E+00  0.36042989287E+03  0.36042989287E+03  0.00000000000E+00 0.  1.
          1   -1    0    0  501    0  0.00000000000E+00 -0.00000000000E+00 -0.16874464182E+04  0.16874464182E+04  0.00000000000E+00 0. -1.
         23    2    1    2    0    0 -0.47789060178E+03 -0.42212288556E+03 -0.33816029853E+03  0.72724311876E+03  0.89235690730E+02 0.  0.
    5000000    2    1    2    0    0  0.47789060178E+03  0.42212288556E+03 -0.98885622677E+03  0.13206331923E+04  0.59972346423E+03 0.  0.
         23    2    4    4    0    0  0.28389464737E+03  0.33889853402E+03 -0.99609910352E+03  0.10935665251E+04  0.90696932472E+02 0.  0.
         23    2    4    4    0    0  0.19399595441E+03  0.83224351541E+02  0.72428767462E+01  0.22706666721E+03  0.83343200546E+02 0.  0.
          3    1    3    3  502    0 -0.16954608618E+03 -0.11741296210E+03 -0.71417739643E+02  0.21824796114E+03  0.00000000000E+00 0. -1.
         -3    1    3    3    0  502 -0.30834451560E+03 -0.30470992346E+03 -0.26674255889E+03  0.50899515761E+03  0.00000000000E+00 0.  1.
         11    1    5    5    0    0  0.13034115698E+02  0.44193890555E+02 -0.16154376804E+03  0.16798624088E+03  0.00000000000E+00 0.  1.
        -11    1    5    5    0    0  0.27086053167E+03  0.29470464346E+03 -0.83455533548E+03  0.92558028418E+03  0.00000000000E+00 0. -1.
          3    1    6    6  503    0  0.60295908089E+02  0.50751656967E+02 -0.30321952326E+02  0.84443756489E+02  0.00000000000E+00 0. -1.
         -3    1    6    6    0  503  0.13370004632E+03  0.32472694574E+02  0.37564829072E+02  0.14262291072E+03  0.00000000000E+00 0.  1.
<mgrwt>
<rscale>  0 0.65123987E+03</rscale>
<asrwt>0</asrwt>
<pdfrwt beam="1">  1        1 0.25960714E+00 0.65123987E+03</pdfrwt>
<pdfrwt beam="2">  1       -1 0.55450753E-01 0.65123987E+03</pdfrwt>
<totfact> 0.16843954E+01</totfact>
</mgrwt>
</event>
<event>
12    1  0.1335216E-007  0.6456765E+03  0.7818608E-02  0.9814926E-01
         -1   -1    0    0    0  501 -0.00000000000E+00  0.00000000000E+00  0.58130453307E+03  0.58130453307E+03  0.00000000000E+00 0.  1.
          1   -1    0    0  501    0  0.00000000000E+00 -0.00000000000E+00 -0.80505519607E+03  0.80505519607E+03  0.00000000000E+00 0. -1.
         23    2    1    2    0    0  0.50292923494E+03  0.21554391215E+03 -0.58786879326E+02  0.55767143615E+03  0.90247105747E+02 0.  0.
    5000000    2    1    2    0    0 -0.50292923494E+03 -0.21554391215E+03 -0.16496378367E+03  0.82868829299E+03  0.60009519545E+03 0.  0.
         23    2    4    4    0    0 -0.59360033774E+03 -0.20748912805E+03 -0.24165172162E+03  0.67987316110E+03  0.91754353540E+02 0.  0.
         23    2    4    4    0    0  0.90671102807E+02 -0.80547841017E+01  0.76687937944E+02  0.14881513189E+03  0.89323990190E+02 0.  0.
          1    1    3    3  502    0  0.95766669213E+02  0.46243860646E+02 -0.47750243765E+02  0.11657544921E+03  0.00000000000E+00 0. -1.
         -1    1    3    3    0  502  0.40716256572E+03  0.16930005150E+03 -0.11036635561E+02  0.44109598693E+03  0.00000000000E+00 0.  1.
         13    1    5    5    0    0 -0.97698191545E+02 -0.86355529190E+00 -0.47528182960E+02  0.10864902454E+03  0.00000000000E+00 0.  1.
        -13    1    5    5    0    0 -0.49590214620E+03 -0.20662557275E+03 -0.19412353866E+03  0.57122413655E+03  0.00000000000E+00 0. -1.
          3    1    6    6  503    0  0.74331810953E+02  0.19712075047E+02  0.13764408664E+02  0.78123254976E+02  0.00000000000E+00 0. -1.
         -3    1    6    6    0  503  0.16339291854E+02 -0.27766859148E+02  0.62923529280E+02  0.70691876919E+02  0.00000000000E+00 0.  1.
<mgrwt>
<rscale>  0 0.64567655E+03</rscale>
<asrwt>0</asrwt>
<pdfrwt beam="1">  1        1 0.12385465E+00 0.64567655E+03</pdfrwt>
<pdfrwt beam="2">  1       -1 0.89431466E-01 0.64567655E+03</pdfrwt>
<totfact> 0.27842460E+01</totfact>
</mgrwt>
</event>
<event>
12    1  0.1335216E-007  0.8511121E+03  0.7818608E-02  0.9488846E-01
         -2   -1    0    0    0  501 -0.00000000000E+00  0.00000000000E+00  0.56736722185E+03  0.56736722185E+03  0.00000000000E+00 0. -1.
          2   -1    0    0  501    0  0.00000000000E+00 -0.00000000000E+00 -0.14170640698E+04  0.14170640698E+04  0.00000000000E+00 0.  1.
         23    2    1    2    0    0 -0.75890373170E+03 -0.13128199681E+03 -0.58777396566E+03  0.97360812776E+03  0.96253389898E+02 0.  0.
    5000000    2    1    2    0    0  0.75890373170E+03  0.13128199681E+03 -0.26192288230E+03  0.10108231639E+04  0.59999169639E+03 0.  0.
         23    2    4    4    0    0  0.20502305120E+03 -0.19053506989E+03  0.38277948901E+02  0.29775273744E+03  0.94092650598E+02 0.  0.
         23    2    4    4    0    0  0.55388068049E+03  0.32181706670E+03 -0.30020083120E+03  0.71307042646E+03  0.89436353893E+02 0.  0.
          3    1    3    3  502    0 -0.31680528093E+03 -0.73922163885E+02 -0.19380805094E+03  0.37867087682E+03  0.00000000000E+00 0. -1.
         -3    1    3    3    0  502 -0.44209845077E+03 -0.57359832920E+02 -0.39396591472E+03  0.59493725095E+03  0.00000000000E+00 0.  1.
         11    1    5    5    0    0  0.84692711433E+02 -0.34181095881E+02  0.41761831223E+02  0.10042536150E+03  0.00000000000E+00 0. -1.
        -11    1    5    5    0    0  0.12033033977E+03 -0.15635397401E+03 -0.34838823219E+01  0.19732737594E+03  0.00000000000E+00 0.  1.
          2    1    6    6  503    0  0.42128079885E+03  0.26844430151E+03 -0.26662775233E+03  0.56624218565E+03  0.00000000000E+00 0.  1.
         -2    1    6    6    0  503  0.13259988164E+03  0.53372765192E+02 -0.33573078865E+02  0.14682824081E+03  0.00000000000E+00 0. -1.
<mgrwt>
<rscale>  0 0.85111208E+03</rscale>
<asrwt>0</asrwt>
<pdfrwt beam="1">  1        2 0.21800986E+00 0.85111208E+03</pdfrwt>
<pdfrwt beam="2">  1       -2 0.87287265E-01 0.85111208E+03</pdfrwt>
<totfact> 0.16217991E+01</totfact>
</mgrwt>
</event>
<event>
12    1  0.1335216E-007  0.4559417E+03  0.7818608E-02  0.1025965E+00
         -1   -1    0    0    0  501 -0.00000000000E+00  0.00000000000E+00  0.17465507240E+03  0.17465507240E+03  0.00000000000E+00 0.  1.
          1   -1    0    0  501    0  0.00000000000E+00 -0.00000000000E+00 -0.24415468422E+04  0.24415468422E+04  0.00000000000E+00 0. -1.
         23    2    1    2    0    0  0.63748908340E+02 -0.42701492362E+03 -0.35559746668E+03  0.56690967167E+03  0.92365303101E+02 0.  0.
    5000000    2    1    2    0    0 -0.63748908340E+02  0.42701492362E+03 -0.19112943032E+04  0.20492922429E+04  0.60012258367E+03 0.  0.
         23    2    4    4    0    0  0.45233123247E+02  0.18260446644E+03 -0.16534362511E+04  0.16665922497E+04  0.91037705027E+02 0.  0.
         23    2    4    4    0    0 -0.10898203159E+03  0.24441045718E+03 -0.25785805202E+03  0.38269999321E+03  0.91405443061E+02 0.  0.
          1    1    3    3  502    0 -0.88083235742E+01 -0.24666733687E+03 -0.18859038356E+03  0.31062629383E+03  0.00000000000E+00 0. -1.
         -1    1    3    3    0  502  0.72557231914E+02 -0.18034758675E+03 -0.16700708311E+03  0.25628337785E+03  0.00000000000E+00 0.  1.
         11    1    5    5    0    0  0.31747476169E+02  0.15495856771E+03 -0.15647211835E+04  0.15726959153E+04  0.00000000000E+00 0. -1.
        -11    1    5    5    0    0  0.13485647077E+02  0.27645898734E+02 -0.88715067616E+02  0.93896334412E+02  0.00000000000E+00 0.  1.
          3    1    6    6  503    0 -0.11182388025E+03  0.14910607709E+03 -0.15459761838E+03  0.24215207212E+03  0.00000000000E+00 0. -1.
         -3    1    6    6    0  503  0.28418486661E+01  0.95304380091E+02 -0.10326043364E+03  0.14054792109E+03  0.00000000000E+00 0.  1.
<mgrwt>
<rscale>  0 0.45594174E+03</rscale>
<asrwt>0</asrwt>
<pdfrwt beam="1">  1        1 0.37562258E+00 0.45594174E+03</pdfrwt>
<pdfrwt beam="2">  1       -1 0.26870012E-01 0.45594174E+03</pdfrwt>
<totfact> 0.20355120E+01</totfact>
</mgrwt>
</event>
<event>
12    1  0.1335216E-007  0.1214390E+04  0.7818608E-02  0.9100354E-01
         -2   -1    0    0    0  501 -0.00000000000E+00  0.00000000000E+00  0.15240242498E+04  0.15240242498E+04  0.00000000000E+00 0.  1.
          2   -1    0    0  501    0  0.00000000000E+00 -0.00000000000E+00 -0.10189655805E+04  0.10189655805E+04  0.00000000000E+00 0. -1.
         23    2    1    2    0    0 -0.10082016573E+04  0.55657091337E+03  0.46155536526E+03  0.12440295329E+04  0.91292717137E+02 0.  0.
    5000000    2    1    2    0    0  0.10082016573E+04 -0.55657091337E+03  0.43503304058E+02  0.12989602974E+04  0.59930255589E+03 0.  0.
         23    2    4    4    0    0  0.52278794076E+03  0.13649793541E+02  0.10754100610E+03  0.54184730968E+03  0.92411531477E+02 0.  0.
         23    2    4    4    0    0  0.48541371651E+03 -0.57022070691E+03 -0.64037702040E+02  0.75711298774E+03  0.91329722241E+02 0.  0.
          2    1    3    3  502    0 -0.91145847805E+03  0.47041828056E+03  0.41003498837E+03  0.11046169506E+04  0.00000000000E+00 0. -1.
         -2    1    3    3    0  502 -0.96743179217E+02  0.86152632809E+02  0.51520376884E+02  0.13941258228E+03  0.00000000000E+00 0.  1.
         13    1    5    5    0    0  0.18221854176E+03  0.83862587696E+01 -0.68547923213E+01  0.18254017223E+03  0.00000000000E+00 0. -1.
        -13    1    5    5    0    0  0.34056939899E+03  0.52635347711E+01  0.11439579842E+03  0.35930713745E+03  0.00000000000E+00 0.  1.
          3    1    6    6  503    0  0.52679389736E+02 -0.88349885476E+02 -0.35541545200E+02  0.10883024305E+03  0.00000000000E+00 0. -1.
         -3    1    6    6    0  503  0.43273432677E+03 -0.48187082143E+03 -0.28496156840E+02  0.64828274469E+03  0.00000000000E+00 0.  1.
<mgrwt>
<rscale>  0 0.12143896E+04</rscale>
<asrwt>0</asrwt>
<pdfrwt beam="1">  1        2 0.15676394E+00 0.12143896E+04</pdfrwt>
<pdfrwt beam="2">  1       -2 0.23446527E+00 0.12143896E+04</pdfrwt>
<totfact> 0.19085165E+00</totfact>
</mgrwt>
</event>
<event>
12    1  0.1335216E-007  0.4881675E+03  0.7818608E-02  0.1016914E+00
         -1   -1    0    0    0  501 -0.00000000000E+00  0.00000000000E+00  0.17416542983E+03  0.17416542983E+03  0.00000000000E+00 0.  1.
          1   -1    0    0  501    0  0.00000000000E+00 -0.00000000000E+00 -0.15654655613E+04  0.15654655613E+04  0.00000000000E+00 0. -1.
         23    2    1    2    0    0  0.33849625811E+03 -0.43956621880E+02 -0.44698599806E+03  0.57001320716E+03  0.92772153761E+02 0.  0.
    5000000    2    1    2    0    0 -0.33849625811E+03  0.43956621880E+02 -0.94431413345E+03  0.11696177840E+04  0.59980386516E+03 0.  0.
         23    2    4    4    0    0 -0.23103214255E+03  0.26625402834E+03 -0.77642465904E+03  0.85752115629E+03  0.90775678542E+02 0.  0.
         23    2    4    4    0    0 -0.10746411555E+03 -0.22229740646E+03 -0.16788947441E+03  0.31209662771E+03  0.90844682628E+02 0.  0.
          4    1    3    3  502    0  0.67730922305E+02 -0.40805073878E+02 -0.13899491218E+03  0.15991284345E+03  0.00000000000E+00 0. -1.
         -4    1    3    3    0  502  0.27076533580E+03 -0.31515480029E+01 -0.30799108588E+03  0.41010036370E+03  0.00000000000E+00 0.  1.
         11    1    5    5    0    0 -0.17726865941E+03  0.13714990062E+03 -0.48379860499E+03  0.53319355120E+03  0.00000000000E+00 0. -1.
        -11    1    5    5    0    0 -0.53763483145E+02  0.12910412772E+03 -0.29262605405E+03  0.32432760509E+03  0.00000000000E+00 0.  1.
          2    1    6    6  503    0 -0.58284339817E+02 -0.33131898152E+02 -0.33911028339E+02  0.75131516596E+02  0.00000000000E+00 0. -1.
         -2    1    6    6    0  503 -0.49179775735E+02 -0.18916550831E+03 -0.13397844607E+03  0.23696511112E+03  0.00000000000E+00 0.  1.
<mgrwt>
<rscale>  0 0.48816754E+03</rscale>
<asrwt>0</asrwt>
<pdfrwt beam="1">  1        1 0.24084086E+00 0.48816754E+03</pdfrwt>
<pdfrwt beam="2">  1       -1 0.26794682E-01 0.48816754E+03</pdfrwt>
<totfact> 0.77561427E+01</totfact>
</mgrwt>
</event>
<event>
12    1  0.1335216E-007  0.7733806E+03  0.7818608E-02  0.9599367E-01
         -2   -1    0    0    0  501 -0.00000000000E+00  0.00000000000E+00  0.20622769594E+03  0.20622769594E+03  0.00000000000E+00 0. -1.
          2   -1    0    0  501    0  0.00000000000E+00 -0.00000000000E+00 -0.36463867140E+04  0.36463867140E+04  0.00000000000E+00 0.  1.
         23    2    1    2    0    0  0.51400271308E+03  0.48481275120E+03 -0.21416250895E+04  0.22571640265E+04  0.94811527657E+02 0.  0.
    5000000    2    1    2    0    0 -0.51400271308E+03 -0.48481275120E+03 -0.12985339285E+04  0.15954503834E+04  0.60002447416E+03 0.  0.
         23    2    4    4    0    0 -0.55311020339E+03 -0.50303778495E+03 -0.84995935367E+03  0.11356567380E+04  0.91145013184E+02 0.  0.
         23    2    4    4    0    0  0.39107490306E+02  0.18225033754E+02 -0.44857457487E+03  0.45979364545E+03  0.91266091835E+02 0.  0.
          4    1    3    3  502    0  0.24918180984E+03  0.27758886489E+03 -0.12391516595E+04  0.12940803636E+04  0.00000000000E+00 0. -1.
         -4    1    3    3    0  502  0.26482090325E+03  0.20722388631E+03 -0.90247342995E+03  0.96308366284E+03  0.00000000000E+00 0.  1.
         13    1    5    5    0    0 -0.13086279785E+03 -0.16203960027E+03 -0.19834395976E+03  0.28761472544E+03  0.00000000000E+00 0.  1.
        -13    1    5    5    0    0 -0.42224740554E+03 -0.34099818469E+03 -0.65161539391E+03  0.84804201253E+03  0.00000000000E+00 0. -1.
          4    1    6    6  503    0 -0.49715367321E+01  0.37865112622E+02 -0.32327099811E+03  0.32551900275E+03  0.00000000000E+00 0. -1.
         -4    1    6    6    0  503  0.44079027038E+02 -0.19640078868E+02 -0.12530357676E+03  0.13427464270E+03  0.00000000000E+00 0.  1.
<mgrwt>
<rscale>  0 0.77338061E+03</rscale>
<asrwt>0</asrwt>
<pdfrwt beam="1">  1        2 0.56098253E+00 0.77338061E+03</pdfrwt>
<pdfrwt beam="2">  1       -2 0.31727340E-01 0.77338061E+03</pdfrwt>
<totfact> 0.63870804E+00</totfact>
</mgrwt>
</event>
<event>
12    1  0.1335216E-007  0.9432165E+03  0.7818608E-02  0.9373115E-01
          1   -1    0    0  501    0  0.00000000000E+00  0.00000000000E+00  0.38866435731E+03  0.38866435731E+03  0.00000000000E+00 0. -1.
         -1   -1    0    0    0  501 -0.00000000000E+00 -0.00000000000E+00 -0.24436225577E+04  0.24436225577E+04  0.00000000000E+00 0.  1.
         23    2    1    2    0    0 -0.84440614914E+03 -0.10667096548E+03 -0.60906929858E+03  0.10504631439E+04  0.90038694671E+02 0.  0.
    5000000    2    1    2    0    0  0.84440614914E+03  0.10667096548E+03 -0.14458889018E+04  0.17818237712E+04  0.59991732387E+03 0.  0.
         23    2    4    4    0    0  0.69100216935E+03 -0.16445849641E+03 -0.97544658130E+03  0.12102374681E+04  0.92995167764E+02 0.  0.
         23    2    4    4    0    0  0.15340397979E+03  0.27112946189E+03 -0.47044232053E+03  0.57158630303E+03  0.91383580297E+02 0.  0.
          1    1    3    3  502    0 -0.48727160166E+03 -0.75236219073E+02 -0.30019990995E+03  0.57724699079E+03  0.00000000000E+00 0.  1.
         -1    1    3    3    0  502 -0.35713454748E+03 -0.31434746405E+02 -0.30886938862E+03  0.47321615306E+03  0.00000000000E+00 0. -1.
         13    1    5    5    0    0  0.28746605329E+03 -0.64557167037E+02 -0.48313557555E+03  0.56588368414E+03  0.00000000000E+00 0.  1.
        -13    1    5    5    0    0  0.40353611605E+03 -0.99901329373E+02 -0.49231100575E+03  0.64435378400E+03  0.00000000000E+00 0. -1.
          1    1    6    6  503    0  0.36992669638E+02  0.15774163557E+03 -0.24257500515E+03  0.29170792640E+03  0.00000000000E+00 0. -1.
         -1    1    6    6    0  503  0.11641131016E+03  0.11338782632E+03 -0.22786731537E+03  0.27987837663E+03  0.00000000000E+00 0.  1.
<mgrwt>
<rscale>  0 0.94321647E+03</rscale>
<asrwt>0</asrwt>
<pdfrwt beam="1">  1        1 0.59794515E-01 0.94321647E+03</pdfrwt>
<pdfrwt beam="2">  1       -1 0.37594194E+00 0.94321647E+03</pdfrwt>
<totfact> 0.67091560E-01</totfact>
</mgrwt>
</event>
<event>
12    1  0.1335216E-007  0.1072263E+04  0.7818608E-02  0.9232656E-01
         -1   -1    0    0    0  501 -0.00000000000E+00  0.00000000000E+00  0.18272299426E+04  0.18272299426E+04  0.00000000000E+00 0.  1.
          1   -1    0    0  501    0  0.00000000000E+00 -0.00000000000E+00 -0.82136951183E+03  0.82136951183E+03  0.00000000000E+00 0. -1.
         23    2    1    2    0    0 -0.16879569526E+03  0.10354709836E+04  0.98198556316E+03  0.14398770280E+04  0.90873895729E+02 0.  0.
    5000000    2    1    2    0    0  0.16879569526E+03 -0.10354709836E+04  0.23874867608E+02  0.12087224264E+04  0.59978975486E+03 0.  0.
         23    2    4    4    0    0  0.12009447192E+03 -0.14187519114E+03  0.20465571410E+03  0.29126829213E+03  0.91662449458E+02 0.  0.
         23    2    4    4    0    0  0.48701223344E+02 -0.89359579251E+03 -0.18078084650E+03  0.91745413426E+03  0.90305727720E+02 0.  0.
          1    1    3    3  502    0 -0.10785447416E+03  0.86742155646E+03  0.80438993310E+03  0.11878955799E+04  0.00000000000E+00 0. -1.
         -1    1    3    3    0  502 -0.60941221101E+02  0.16804942719E+03  0.17759563006E+03  0.25198144818E+03  0.00000000000E+00 0.  1.
         11    1    5    5    0    0  0.12011259515E+03 -0.14742295265E+03  0.16661832645E+03  0.25282845803E+03  0.00000000000E+00 0. -1.
        -11    1    5    5    0    0 -0.18123229463E-01  0.55477615121E+01  0.38037387653E+02  0.38439834101E+02  0.00000000000E+00 0.  1.
          4    1    6    6  503    0  0.30458883480E+02 -0.21790360639E+03 -0.98713654924E+01  0.22024343149E+03  0.00000000000E+00 0. -1.
         -4    1    6    6    0  503  0.18242339864E+02 -0.67569218612E+03 -0.17090948100E+03  0.69721070276E+03  0.00000000000E+00 0.  1.
<mgrwt>
<rscale>  0 0.10722634E+04</rscale>
<asrwt>0</asrwt>
<pdfrwt beam="1">  1        1 0.12636454E+00 0.10722634E+04</pdfrwt>
<pdfrwt beam="2">  1       -1 0.28111230E+00 0.10722634E+04</pdfrwt>
<totfact> 0.92866808E-01</totfact>
</mgrwt>
</event>
<event>
12    1  0.1335216E-007  0.8387890E+03  0.7818608E-02  0.9505509E-01
         -2   -1    0    0    0  501 -0.00000000000E+00  0.00000000000E+00  0.40494302164E+03  0.40494302164E+03  0.00000000000E+00 0. -1.
          2   -1    0    0  501    0  0.00000000000E+00 -0.00000000000E+00 -0.24186550424E+04  0.24186550424E+04  0.00000000000E+00 0.  1.
         23    2    1    2    0    0 -0.23968452106E+03 -0.72201285394E+03 -0.15919514411E+04  0.17666858367E+04  0.90101187220E+02 0.  0.
    5000000    2    1    2    0    0  0.23968452106E+03  0.72201285394E+03 -0.42176057975E+03  0.10569122274E+04  0.60035842539E+03 0.  0.
         23    2    4    4    0    0 -0.63350625207E+02 -0.47201998041E+02 -0.11972913731E+03  0.17235462843E+03  0.95549575013E+02 0.  0.
         23    2    4    4    0    0  0.30303514627E+03  0.76921485198E+03 -0.30203144244E+03  0.88455759899E+03  0.87734630117E+02 0.  0.
          2    1    3    3  502    0 -0.76161395550E+02 -0.13287382654E+03 -0.36516920091E+03  0.39598555182E+03  0.00000000000E+00 0. -1.
         -2    1    3    3    0  502 -0.16352312551E+03 -0.58913902740E+03 -0.12267822401E+04  0.13707002849E+04  0.00000000000E+00 0.  1.
         11    1    5    5    0    0 -0.34846138533E+02 -0.40789525379E+02 -0.13059346091E+03  0.14118318166E+03  0.00000000000E+00 0.  1.
        -11    1    5    5    0    0 -0.28504486674E+02 -0.64124726620E+01  0.10864323598E+02  0.31171446765E+02  0.00000000000E+00 0. -1.
          1    1    6    6  503    0  0.26631561466E+03  0.59162655649E+03 -0.21576844729E+03  0.68374118773E+03  0.00000000000E+00 0. -1.
         -1    1    6    6    0  503  0.36719531606E+02  0.17758829549E+03 -0.86262995146E+02  0.20081641126E+03  0.00000000000E+00 0.  1.
<mgrwt>
<rscale>  0 0.83878902E+03</rscale>
<asrwt>0</asrwt>
<pdfrwt beam="1">  1        2 0.37210077E+00 0.83878902E+03</pdfrwt>
<pdfrwt beam="2">  1       -2 0.62298927E-01 0.83878902E+03</pdfrwt>
<totfact> 0.95710201E+00</totfact>
</mgrwt>
</event>
<event>
12    1  0.1335216E-007  0.6453155E+03  0.7818608E-02  0.9815609E-01
          1   -1    0    0  501    0  0.00000000000E+00  0.00000000000E+00  0.25589494973E+04  0.25589494973E+04  0.00000000000E+00 0. -1.
         -1   -1    0    0    0  501 -0.00000000000E+00 -0.00000000000E+00 -0.34407380752E+03  0.34407380752E+03  0.00000000000E+00 0.  1.
         23    2    1    2    0    0 -0.10250915354E+03 -0.61761746011E+03  0.18624832918E+04  0.19670532526E+04  0.92168500964E+02 0.  0.
    5000000    2    1    2    0    0  0.10250915354E+03  0.61761746011E+03  0.35239239802E+03  0.93597005230E+03  0.59991673008E+03 0.  0.
         23    2    4    4    0    0 -0.11650320311E+02  0.11555468440E+03  0.38439721709E+03  0.41157850778E+03  0.90260913495E+02 0.  0.
         23    2    4    4    0    0  0.11415947385E+03  0.50206277571E+03 -0.32004819072E+02  0.52439154453E+03  0.94142271621E+02 0.  0.
          3    1    3    3  502    0 -0.10309426027E+03 -0.44470203850E+03  0.12552532957E+04  0.13356830335E+04  0.00000000000E+00 0. -1.
         -3    1    3    3    0  502  0.58510673140E+00 -0.17291542161E+03  0.60722999610E+03  0.63137021909E+03  0.00000000000E+00 0.  1.
         13    1    5    5    0    0 -0.47209420076E+02  0.77689066834E+02  0.19435586250E+03  0.21456589136E+03  0.00000000000E+00 0.  1.
        -13    1    5    5    0    0  0.35559099765E+02  0.37865617567E+02  0.19004135459E+03  0.19701261641E+03  0.00000000000E+00 0. -1.
          3    1    6    6  503    0  0.10635446953E+02  0.17471453021E+03  0.23491289561E+02  0.17660724923E+03  0.00000000000E+00 0. -1.
         -3    1    6    6    0  503  0.10352402690E+03  0.32734824550E+03 -0.55496108633E+02  0.34778429529E+03  0.00000000000E+00 0.  1.
<mgrwt>
<rscale>  0 0.64531553E+03</rscale>
<asrwt>0</asrwt>
<pdfrwt beam="1">  1        1 0.39368453E+00 0.64531553E+03</pdfrwt>
<pdfrwt beam="2">  1       -1 0.52934433E-01 0.64531553E+03</pdfrwt>
<totfact> 0.48006495E+00</totfact>
</mgrwt>
</event>
<event>
12    1  0.1335216E-007  0.1270633E+04  0.7818608E-02  0.9053183E-01
          1   -1    0    0  501    0  0.00000000000E+00  0.00000000000E+00  0.84574017904E+03  0.84574017904E+03  0.00000000000E+00 0. -1.
         -1   -1    0    0    0  501 -0.00000000000E+00 -0.00000000000E+00 -0.19874037890E+04  0.19874037890E+04  0.00000000000E+00 0.  1.
         23    2    1    2    0    0  0.29991818168E+03 -0.11733934156E+04 -0.74558981810E+03  0.14251860502E+04  0.91913422838E+02 0.  0.
    5000000    2    1    2    0    0 -0.29991818168E+03  0.11733934156E+04 -0.39607379182E+03  0.14079579178E+04  0.59888899317E+03 0.  0.
         23    2    4    4    0    0 -0.46641489912E+02 -0.34495130477E+02 -0.62262213025E+02  0.12611010680E+03  0.93068970444E+02 0.  0.
         23    2    4    4    0    0 -0.25327669177E+03  0.12078885461E+04 -0.33381157879E+03  0.12818478110E+04  0.92519284309E+02 0.  0.
          1    1    3    3  502    0  0.14247813458E+03 -0.43648016855E+03 -0.24382905106E+03  0.51987264067E+03  0.00000000000E+00 0. -1.
         -1    1    3    3    0  502  0.15744004710E+03 -0.73691324708E+03 -0.50176076703E+03  0.90531340954E+03  0.00000000000E+00 0.  1.
         11    1    5    5    0    0 -0.38289042482E+02  0.16058072533E+02  0.47089142459E+01  0.41786197973E+02  0.00000000000E+00 0. -1.
        -11    1    5    5    0    0 -0.83524474305E+01 -0.50553203010E+02 -0.66971127271E+02  0.84323908831E+02  0.00000000000E+00 0.  1.
          3    1    6    6  503    0 -0.10186009008E+03  0.64163354050E+03 -0.14093309823E+03  0.66477907340E+03  0.00000000000E+00 0. -1.
         -3    1    6    6    0  503 -0.15141660169E+03  0.56625500561E+03 -0.19287848056E+03  0.61706873759E+03  0.00000000000E+00 0.  1.
<mgrwt>
<rscale>  0 0.12706334E+04</rscale>
<asrwt>0</asrwt>
<pdfrwt beam="1">  1        1 0.13011387E+00 0.12706334E+04</pdfrwt>
<pdfrwt beam="2">  1       -1 0.30575443E+00 0.12706334E+04</pdfrwt>
<totfact> 0.59873549E-01</totfact>
</mgrwt>
</event>
<event>
12    1  0.1335216E-007  0.1322110E+04  0.7818608E-02  0.9012214E-01
          1   -1    0    0  501    0  0.00000000000E+00  0.00000000000E+00  0.34852395959E+04  0.34852395959E+04  0.00000000000E+00 0. -1.
         -1   -1    0    0    0  501 -0.00000000000E+00 -0.00000000000E+00 -0.53404228094E+03  0.53404228094E+03  0.00000000000E+00 0.  1.
         23    2    1    2    0    0 -0.76821118873E+03  0.10163885675E+04  0.10505075971E+04  0.16536919987E+04  0.89089082415E+02 0.  0.
    5000000    2    1    2    0    0  0.76821118873E+03 -0.10163885675E+04  0.19006897178E+04  0.23655898781E+04  0.60016657449E+03 0.  0.
         23    2    4    4    0    0  0.47443031762E+03 -0.23888469498E+03  0.10020082716E+04  0.11377047690E+04  0.90562361334E+02 0.  0.
         23    2    4    4    0    0  0.29378087112E+03 -0.77750387248E+03  0.89868144623E+03  0.12278851091E+04  0.96197854816E+02 0.  0.
          1    1    3    3  502    0 -0.43219326438E+03  0.55069455811E+03  0.63184240611E+03  0.94301661718E+03  0.00000000000E+00 0. -1.
         -1    1    3    3    0  502 -0.33601792435E+03  0.46569400934E+03  0.41866519098E+03  0.71067538157E+03  0.00000000000E+00 0.  1.
         11    1    5    5    0    0  0.25540725482E+03 -0.78350071918E+02  0.50952819132E+03  0.57531780551E+03  0.00000000000E+00 0. -1.
        -11    1    5    5    0    0  0.21902306279E+03 -0.16053462306E+03  0.49248008028E+03  0.56238696349E+03  0.00000000000E+00 0.  1.
          1    1    6    6  503    0  0.16373287691E+03 -0.44607202640E+03  0.44334878689E+03  0.64988218513E+03  0.00000000000E+00 0. -1.
         -1    1    6    6    0  503  0.13004799421E+03 -0.33143184609E+03  0.45533265934E+03  0.57800292392E+03  0.00000000000E+00 0.  1.
<mgrwt>
<rscale>  0 0.13221096E+04</rscale>
<asrwt>0</asrwt>
<pdfrwt beam="1">  1        1 0.53619069E+00 0.13221096E+04</pdfrwt>
<pdfrwt beam="2">  1       -1 0.82160353E-01 0.13221096E+04</pdfrwt>
<totfact> 0.37372939E-01</totfact>
</mgrwt>
</event>
<event>
12    1  0.1335216E-007  0.9227560E+03  0.7818608E-02  0.9397574E-01
          2   -1    0    0  501    0  0.00000000000E+00  0.00000000000E+00  0.20883932592E+04  0.20883932592E+04  0.00000000000E+00 0. -1.
         -2   -1    0    0    0  501 -0.00000000000E+00 -0.00000000000E+00 -0.50288720351E+03  0.50288720351E+03  0.00000000000E+00 0.  1.
         23    2    1    2    0    0  0.70217917198E+03  0.44424275519E+03  0.12659175831E+04  0.15174290412E+04  0.98164926887E+02 0.  0.
    5000000    2    1    2    0    0 -0.70217917198E+03 -0.44424275519E+03  0.31958847260E+03  0.10738514215E+04  0.60051050658E+03 0.  0.
         23    2    4    4    0    0 -0.26646682540E+03 -0.49601583314E+03  0.11816838093E+03  0.58241381181E+03  0.90585904954E+02 0.  0.
         23    2    4    4    0    0 -0.43571234658E+03  0.51773077949E+02  0.20142009167E+03  0.49143760967E+03  0.91734237400E+02 0.  0.
          3    1    3    3  502    0  0.30636120637E+03  0.15221069643E+03  0.45999676181E+03  0.57325588157E+03  0.00000000000E+00 0. -1.
         -3    1    3    3    0  502  0.39581796561E+03  0.29203205876E+03  0.80592082125E+03  0.94417315963E+03  0.00000000000E+00 0.  1.
         13    1    5    5    0    0 -0.23909704152E+03 -0.36433657264E+03  0.92440046876E+02  0.44548142015E+03  0.00000000000E+00 0.  1.
        -13    1    5    5    0    0 -0.27369783876E+02 -0.13167926049E+03  0.25728334056E+02  0.13693239166E+03  0.00000000000E+00 0. -1.
          3    1    6    6  503    0 -0.25605254377E+03  0.53522665325E+02  0.76272260942E+02  0.27247942797E+03  0.00000000000E+00 0. -1.
         -3    1    6    6    0  503 -0.17965980281E+03 -0.17495873758E+01  0.12514783073E+03  0.21895818171E+03  0.00000000000E+00 0.  1.
<mgrwt>
<rscale>  0 0.92275597E+03</rscale>
<asrwt>0</asrwt>
<pdfrwt beam="1">  1        2 0.32129126E+00 0.92275597E+03</pdfrwt>
<pdfrwt beam="2">  1       -2 0.77367264E-01 0.92275597E+03</pdfrwt>
<totfact> 0.90022464E+00</totfact>
</mgrwt>
</event>
<event>
12    1  0.1335216E-007  0.4488888E+03  0.7818608E-02  0.1028054E+00
         -2   -1    0    0    0  501 -0.00000000000E+00  0.00000000000E+00  0.92783313912E+03  0.92783313912E+03  0.00000000000E+00 0.  1.
          2   -1    0    0  501    0  0.00000000000E+00 -0.00000000000E+00 -0.25140686796E+03  0.25140686796E+03  0.00000000000E+00 0. -1.
         23    2    1    2    0    0  0.21599050120E+03 -0.12104177693E+03  0.33877951803E+02  0.26587956434E+03  0.90781158516E+02 0.  0.
    5000000    2    1    2    0    0 -0.21599050120E+03  0.12104177693E+03  0.64254831936E+03  0.91336044274E+03  0.60004662092E+03 0.  0.
         23    2    4    4    0    0  0.18217308349E+03  0.12564856619E+03  0.27335269927E+03  0.36331664504E+03  0.91119107929E+02 0.  0.
         23    2    4    4    0    0 -0.39816358470E+03 -0.46067892582E+01  0.36919562009E+03  0.55004379770E+03  0.87677310706E+02 0.  0.
          1    1    3    3  502    0  0.11689516552E+03 -0.98317019375E+02 -0.14228020109E+02  0.15340519084E+03  0.00000000000E+00 0. -1.
         -1    1    3    3    0  502  0.99095335680E+02 -0.22724757558E+02  0.48105971912E+02  0.11247437350E+03  0.00000000000E+00 0.  1.
         13    1    5    5    0    0  0.46773537268E+02 -0.98065943969E+01  0.53081948265E+02  0.71425669852E+02  0.00000000000E+00 0.  1.
        -13    1    5    5    0    0  0.13539954622E+03  0.13545516059E+03  0.22027075100E+03  0.29189097519E+03  0.00000000000E+00 0. -1.
          3    1    6    6  503    0 -0.24945770912E+03  0.30338141953E+02  0.26456569311E+03  0.36488978812E+03  0.00000000000E+00 0. -1.
         -3    1    6    6    0  503 -0.14870587557E+03 -0.34944931211E+02  0.10462992698E+03  0.18515400959E+03  0.00000000000E+00 0.  1.
<mgrwt>
<rscale>  0 0.44888882E+03</rscale>
<asrwt>0</asrwt>
<pdfrwt beam="1">  1        2 0.38677980E-01 0.44888882E+03</pdfrwt>
<pdfrwt beam="2">  1       -2 0.14274356E+00 0.44888882E+03</pdfrwt>
<totfact> 0.47180527E+01</totfact>
</mgrwt>
</event>
<event>
12    1  0.1335216E-007  0.4261624E+03  0.7818608E-02  0.1035079E+00
          3   -1    0    0  501    0  0.00000000000E+00  0.00000000000E+00  0.21525124016E+04  0.21525124016E+04  0.00000000000E+00 0. -1.
         -3   -1    0    0    0  501 -0.00000000000E+00 -0.00000000000E+00 -0.15017500240E+03  0.15017500240E+03  0.00000000000E+00 0.  1.
         23    2    1    2    0    0 -0.19658276618E+03 -0.35221728439E+03  0.66076611983E+03  0.77864880264E+03  0.83548149882E+02 0.  0.
    5000000    2    1    2    0    0  0.19658276618E+03  0.35221728439E+03  0.13415712793E+04  0.15240386013E+04  0.60014861613E+03 0.  0.
         23    2    4    4    0    0  0.17365190088E+03  0.19429955132E+03  0.13095468303E+04  0.13385898773E+04  0.94882351237E+02 0.  0.
         23    2    4    4    0    0  0.22930865299E+02  0.15791773307E+03  0.32024449084E+02  0.18544872407E+03  0.88892232047E+02 0.  0.
          3    1    3    3  502    0 -0.72095907293E+02 -0.78153489631E+02  0.22702276640E+03  0.25068929824E+03  0.00000000000E+00 0. -1.
         -3    1    3    3    0  502 -0.12448685889E+03 -0.27406379476E+03  0.43374335344E+03  0.52795950440E+03  0.00000000000E+00 0.  1.
         13    1    5    5    0    0  0.74500989779E+02  0.41299409152E+02  0.26816572072E+03  0.28136967222E+03  0.00000000000E+00 0.  1.
        -13    1    5    5    0    0  0.99150911103E+02  0.15300014217E+03  0.10413811095E+04  0.10572202050E+04  0.00000000000E+00 0. -1.
          2    1    6    6  503    0  0.23180372598E+02  0.16689806432E+03  0.40280081760E+02  0.17324773746E+03  0.00000000000E+00 0. -1.
         -2    1    6    6    0  503 -0.24950729904E+00 -0.89803312533E+01 -0.82556326767E+01  0.12200986608E+02  0.00000000000E+00 0.  1.
<mgrwt>
<rscale>  0 0.42616239E+03</rscale>
<asrwt>0</asrwt>
<pdfrwt beam="1">  1        3 0.33115573E+00 0.42616239E+03</pdfrwt>
<pdfrwt beam="2">  1       -3 0.23103848E-01 0.42616239E+03</pdfrwt>
<totfact> 0.12774986E+00</totfact>
</mgrwt>
</event>
<event>
12    1  0.1335216E-007  0.5706679E+03  0.7818608E-02  0.9968202E-01
         -2   -1    0    0    0  501 -0.00000000000E+00  0.00000000000E+00  0.36771212391E+03  0.36771212391E+03  0.00000000000E+00 0.  1.
          2   -1    0    0  501    0  0.00000000000E+00 -0.00000000000E+00 -0.18317573203E+04  0.18317573203E+04  0.00000000000E+00 0. -1.
         23    2    1    2    0    0  0.26847015109E+03 -0.41879883328E+03 -0.13112502861E+04  0.14051700316E+04  0.87503257768E+02 0.  0.
    5000000    2    1    2    0    0 -0.26847015109E+03  0.41879883328E+03 -0.15279491026E+03  0.79429941258E+03  0.60008048414E+03 0.  0.
         23    2    4    4    0    0 -0.36222835763E+03  0.30247722060E+03 -0.29931831620E+03  0.56604966913E+03  0.90105057891E+02 0.  0.
         23    2    4    4    0    0  0.93758206542E+02  0.11632161267E+03  0.14652340594E+03  0.22824974345E+03  0.91145586987E+02 0.  0.
          3    1    3    3  502    0  0.17607091064E+03 -0.25986467751E+03 -0.70648682232E+03  0.77308100889E+03  0.00000000000E+00 0. -1.
         -3    1    3    3    0  502  0.92399240457E+02 -0.15893415576E+03 -0.60476346383E+03  0.63208902275E+03  0.00000000000E+00 0.  1.
         11    1    5    5    0    0 -0.34443805604E+03  0.27814189083E+03 -0.25050322461E+03  0.50867706005E+03  0.00000000000E+00 0. -1.
        -11    1    5    5    0    0 -0.17790301593E+02  0.24335329777E+02 -0.48815091593E+02  0.57372609086E+02  0.00000000000E+00 0.  1.
          1    1    6    6  503    0  0.77603962155E+02  0.30462347122E+02  0.46560853015E+02  0.95489489306E+02  0.00000000000E+00 0. -1.
         -1    1    6    6    0  503  0.16154244387E+02  0.85859265553E+02  0.99962552924E+02  0.13276025414E+03  0.00000000000E+00 0.  1.
<mgrwt>
<rscale>  0 0.57066792E+03</rscale>
<asrwt>0</asrwt>
<pdfrwt beam="1">  1        2 0.28180882E+00 0.57066792E+03</pdfrwt>
<pdfrwt beam="2">  1       -2 0.56571095E-01 0.57066792E+03</pdfrwt>
<totfact> 0.25685712E+01</totfact>
</mgrwt>
</event>
<event>
12    1  0.1335216E-007  0.6301008E+03  0.7818608E-02  0.9844852E-01
         -2   -1    0    0    0  501 -0.00000000000E+00  0.00000000000E+00  0.33966169601E+03  0.33966169601E+03  0.00000000000E+00 0. -1.
          2   -1    0    0  501    0  0.00000000000E+00 -0.00000000000E+00 -0.17488518719E+04  0.17488518719E+04  0.00000000000E+00 0.  1.
         23    2    1    2    0    0  0.43127535532E+02 -0.52261932364E+03 -0.79369653545E+02  0.53818405448E+03  0.91387049530E+02 0.  0.
    5000000    2    1    2    0    0 -0.43127535532E+02  0.52261932364E+03 -0.13298205224E+04  0.15503295135E+04  0.60009002392E+03 0.  0.
         23    2    4    4    0    0  0.37759793220E+02  0.59709002668E+03 -0.80787508499E+03  0.10092310360E+04  0.89122550859E+02 0.  0.
         23    2    4    4    0    0 -0.80887328752E+02 -0.74470703035E+02 -0.52194543738E+03  0.54109847749E+03  0.90949860767E+02 0.  0.
          2    1    3    3  502    0  0.42043464786E+02 -0.37567069773E+03 -0.96767418299E+02  0.39020515028E+03  0.00000000000E+00 0.  1.
         -2    1    3    3    0  502  0.10840707464E+01 -0.14694862592E+03  0.17397764755E+02  0.14797890420E+03  0.00000000000E+00 0. -1.
         11    1    5    5    0    0  0.20795669294E+02  0.34811642680E+03 -0.39613638058E+03  0.52777034635E+03  0.00000000000E+00 0. -1.
        -11    1    5    5    0    0  0.16964123926E+02  0.24897359988E+03 -0.41173870441E+03  0.48146068961E+03  0.00000000000E+00 0.  1.
          2    1    6    6  503    0  0.48519468455E+01 -0.46509041591E+02 -0.25714753214E+03  0.26136466024E+03  0.00000000000E+00 0. -1.
         -2    1    6    6    0  503 -0.85739275598E+02 -0.27961661443E+02 -0.26479790525E+03  0.27973381725E+03  0.00000000000E+00 0.  1.
<mgrwt>
<rscale>  0 0.63010078E+03</rscale>
<asrwt>0</asrwt>
<pdfrwt beam="1">  1        2 0.26905414E+00 0.63010078E+03</pdfrwt>
<pdfrwt beam="2">  1       -2 0.52255645E-01 0.63010078E+03</pdfrwt>
<totfact> 0.33237580E+01</totfact>
</mgrwt>
</event>
<event>
12    1  0.1335216E-007  0.5580433E+03  0.7818608E-02  0.9996492E-01
          1   -1    0    0  501    0  0.00000000000E+00  0.00000000000E+00  0.24574309264E+04  0.24574309264E+04  0.00000000000E+00 0. -1.
         -1   -1    0    0    0  501 -0.00000000000E+00 -0.00000000000E+00 -0.14665188729E+03  0.14665188729E+03  0.00000000000E+00 0.  1.
         23    2    1    2    0    0  0.42357026928E+03 -0.74832303700E+02  0.11182672766E+04  0.12015876750E+04  0.90992264820E+02 0.  0.
    5000000    2    1    2    0    0 -0.42357026928E+03  0.74832303700E+02  0.11925117625E+04  0.14024951386E+04  0.59991388001E+03 0.  0.
         23    2    4    4    0    0 -0.11062892206E+03 -0.20706323081E+03  0.71983438951E+03  0.76272496147E+03  0.92053672289E+02 0.  0.
         23    2    4    4    0    0 -0.31294134722E+03  0.28189553451E+03  0.47267737302E+03  0.63977017716E+03  0.92111896325E+02 0.  0.
          1    1    3    3  502    0  0.25521260870E+03 -0.88334924704E+02  0.65501887374E+03  0.70850988668E+03  0.00000000000E+00 0. -1.
         -1    1    3    3    0  502  0.16835766058E+03  0.13502621004E+02  0.46324840283E+03  0.49307778836E+03  0.00000000000E+00 0.  1.
         11    1    5    5    0    0 -0.12447933078E+03 -0.17776193988E+03  0.65875497084E+03  0.69357949989E+03  0.00000000000E+00 0. -1.
        -11    1    5    5    0    0  0.13850408728E+02 -0.29301290930E+02  0.61079418666E+02  0.69145461577E+02  0.00000000000E+00 0.  1.
          2    1    6    6  503    0 -0.14999504636E+03  0.86032605147E+02  0.15221476284E+03  0.23036809047E+03  0.00000000000E+00 0.  1.
         -2    1    6    6    0  503 -0.16294630086E+03  0.19586292936E+03  0.32046261018E+03  0.40940208669E+03  0.00000000000E+00 0. -1.
<mgrwt>
<rscale>  0 0.55804330E+03</rscale>
<asrwt>0</asrwt>
<pdfrwt beam="1">  1        1 0.37806627E+00 0.55804330E+03</pdfrwt>
<pdfrwt beam="2">  1       -1 0.22561831E-01 0.55804330E+03</pdfrwt>
<totfact> 0.26097080E+01</totfact>
</mgrwt>
</event>
<event>
12    1  0.1335216E-007  0.5369143E+03  0.7818608E-02  0.1004569E+00
          1   -1    0    0  501    0  0.00000000000E+00  0.00000000000E+00  0.47104502414E+03  0.47104502414E+03  0.00000000000E+00 0. -1.
         -1   -1    0    0    0  501 -0.00000000000E+00 -0.00000000000E+00 -0.11025917443E+04  0.11025917443E+04  0.00000000000E+00 0.  1.
         23    2    1    2    0    0  0.51650118769E+03 -0.47351274598E+02  0.48166452330E+02  0.52910866658E+03  0.92845860560E+02 0.  0.
    5000000    2    1    2    0    0 -0.51650118769E+03  0.47351274598E+02 -0.67971317253E+03  0.10445281019E+04  0.60001111544E+03 0.  0.
         23    2    4    4    0    0 -0.11431197911E+03  0.53890756832E+02  0.84158632182E+02  0.17642430288E+03  0.89841065420E+02 0.  0.
         23    2    4    4    0    0 -0.40218920858E+03 -0.65394822345E+01 -0.76387180471E+03  0.86810379902E+03  0.91132582048E+02 0.  0.
          4    1    3    3  502    0  0.12390596583E+03 -0.64954532335E+01 -0.27793209047E+02  0.12715086217E+03  0.00000000000E+00 0. -1.
         -4    1    3    3    0  502  0.39259522186E+03 -0.40855821364E+02  0.75959661378E+02  0.40195780441E+03  0.00000000000E+00 0.  1.
         11    1    5    5    0    0 -0.28956779302E+02 -0.22662938621E+02  0.50282763890E+01  0.37113170411E+02  0.00000000000E+00 0. -1.
        -11    1    5    5    0    0 -0.85355199808E+02  0.76553695454E+02  0.79130355793E+02  0.13931113247E+03  0.00000000000E+00 0.  1.
          1    1    6    6  503    0 -0.36162989967E+02 -0.10170868778E+02 -0.30246882406E+02  0.48229475535E+02  0.00000000000E+00 0. -1.
         -1    1    6    6    0  503 -0.36602621861E+03  0.36313865438E+01 -0.73362492230E+03  0.81987432348E+03  0.00000000000E+00 0.  1.
<mgrwt>
<rscale>  0 0.53691431E+03</rscale>
<asrwt>0</asrwt>
<pdfrwt beam="1">  1        1 0.72468466E-01 0.53691431E+03</pdfrwt>
<pdfrwt beam="2">  1       -1 0.16962950E+00 0.53691431E+03</pdfrwt>
<totfact> 0.12633783E+01</totfact>
</mgrwt>
</event>
<event>
12    1  0.1335216E-007  0.4335416E+03  0.7818608E-02  0.1032747E+00
          1   -1    0    0  501    0  0.00000000000E+00  0.00000000000E+00  0.15178584710E+04  0.15178584710E+04  0.00000000000E+00 0. -1.
         -1   -1    0    0    0  501 -0.00000000000E+00 -0.00000000000E+00 -0.21104609776E+03  0.21104609776E+03  0.00000000000E+00 0.  1.
         23    2    1    2    0    0 -0.38584991403E+03  0.70640131215E+02  0.59871945151E+03  0.72126644349E+03  0.88826328302E+02 0.  0.
    5000000    2    1    2    0    0  0.38584991403E+03 -0.70640131215E+02  0.70809292168E+03  0.10076381252E+04  0.60005734841E+03 0.  0.
         23    2    4    4    0    0  0.24668136925E+02  0.70486720759E+02 -0.67517110954E+02  0.13562364246E+03  0.90875284537E+02 0.  0.
         23    2    4    4    0    0  0.36118177710E+03 -0.14112685197E+03  0.77561003264E+03  0.87201448277E+03  0.92028642097E+02 0.  0.
          1    1    3    3  502    0 -0.11380735667E+03  0.34130207637E+02  0.25561639492E+03  0.28188069614E+03  0.00000000000E+00 0. -1.
         -1    1    3    3    0  502 -0.27204255736E+03  0.36509923578E+02  0.34310305658E+03  0.43938574735E+03  0.00000000000E+00 0.  1.
         13    1    5    5    0    0  0.17667541797E+02  0.15585249790E+02 -0.76057336633E+02  0.79622612993E+02  0.00000000000E+00 0.  1.
        -13    1    5    5    0    0  0.70005951282E+01  0.54901470969E+02  0.85402256782E+01  0.56001029467E+02  0.00000000000E+00 0. -1.
          4    1    6    6  503    0  0.20682785773E+03 -0.11991670258E+03  0.52577216686E+03  0.57757609865E+03  0.00000000000E+00 0. -1.
         -4    1    6    6    0  503  0.15435391937E+03 -0.21210149398E+02  0.24983786578E+03  0.29443838411E+03  0.00000000000E+00 0.  1.
<mgrwt>
<rscale>  0 0.43354156E+03</rscale>
<asrwt>0</asrwt>
<pdfrwt beam="1">  1        1 0.23351668E+00 0.43354156E+03</pdfrwt>
<pdfrwt beam="2">  1       -1 0.32468631E-01 0.43354156E+03</pdfrwt>
<totfact> 0.60517967E+01</totfact>
</mgrwt>
</event>
<event>
12    1  0.1335216E-007  0.7468926E+03  0.7818608E-02  0.9640238E-01
         -2   -1    0    0    0  501 -0.00000000000E+00  0.00000000000E+00  0.59128135089E+03  0.59128135089E+03  0.00000000000E+00 0.  1.
          2   -1    0    0  501    0  0.00000000000E+00 -0.00000000000E+00 -0.10095882617E+04  0.10095882617E+04  0.00000000000E+00 0. -1.
         23    2    1    2    0    0  0.15262428797E+03 -0.63400486045E+03 -0.20629262461E+03  0.68977885939E+03  0.89341432392E+02 0.  0.
    5000000    2    1    2    0    0 -0.15262428797E+03  0.63400486045E+03 -0.21201428621E+03  0.91109075321E+03  0.59989996390E+03 0.  0.
         23    2    4    4    0    0  0.19076938081E+03  0.21621681091E+03 -0.20472343495E+03  0.36409604028E+03  0.86669347300E+02 0.  0.
         23    2    4    4    0    0 -0.34339366878E+03  0.41778804954E+03 -0.72908512608E+01  0.54699471293E+03  0.81755693169E+02 0.  0.
          4    1    3    3  502    0  0.74532570720E+02 -0.14599781047E+03 -0.47026826048E+02  0.17053441626E+03  0.00000000000E+00 0. -1.
         -4    1    3    3    0  502  0.78091717248E+02 -0.48800704998E+03 -0.15926579856E+03  0.51924444313E+03  0.00000000000E+00 0.  1.
         13    1    5    5    0    0  0.34241115705E+02  0.29247918977E+02 -0.76061708701E+02  0.88392750266E+02  0.00000000000E+00 0. -1.
        -13    1    5    5    0    0  0.15652826510E+03  0.18696889193E+03 -0.12866172625E+03  0.27570329002E+03  0.00000000000E+00 0.  1.
          1    1    6    6  503    0 -0.17656559980E+03  0.27695247810E+03  0.23403594444E+01  0.32845633415E+03  0.00000000000E+00 0. -1.
         -1    1    6    6    0  503 -0.16682806897E+03  0.14083557144E+03 -0.96312107052E+01  0.21853837878E+03  0.00000000000E+00 0.  1.
<mgrwt>
<rscale>  0 0.74689256E+03</rscale>
<asrwt>0</asrwt>
<pdfrwt beam="1">  1        2 0.15532127E+00 0.74689256E+03</pdfrwt>
<pdfrwt beam="2">  1       -2 0.90966363E-01 0.74689256E+03</pdfrwt>
<totfact> 0.26032059E+01</totfact>
</mgrwt>
</event>
<event>
12    1  0.1335216E-007  0.8648166E+03  0.7818608E-02  0.9470664E-01
         -1   -1    0    0    0  501 -0.00000000000E+00  0.00000000000E+00  0.19414639981E+04  0.19414639981E+04  0.00000000000E+00 0.  1.
          1   -1    0    0  501    0  0.00000000000E+00 -0.00000000000E+00 -0.55819964041E+03  0.55819964041E+03  0.00000000000E+00 0. -1.
         23    2    1    2    0    0  0.58503441214E+03  0.61534939214E+03  0.11532210458E+04  0.14349090616E+04  0.90139318551E+02 0.  0.
    5000000    2    1    2    0    0 -0.58503441214E+03 -0.61534939214E+03  0.23004331183E+03  0.10647545769E+04  0.59988519390E+03 0.  0.
         23    2    4    4    0    0 -0.52725076427E+03 -0.54413213149E+03 -0.41808832221E+02  0.76427212766E+03  0.91053620076E+02 0.  0.
         23    2    4    4    0    0 -0.57783647872E+02 -0.71217260653E+02  0.27185214405E+03  0.30048244921E+03  0.89304344148E+02 0.  0.
          4    1    3    3  502    0  0.50133343294E+03  0.53646098707E+03  0.94150167198E+03  0.11939644048E+04  0.00000000000E+00 0.  1.
         -4    1    3    3    0  502  0.83700979199E+02  0.78888405071E+02  0.21171937383E+03  0.24094465678E+03  0.00000000000E+00 0. -1.
         11    1    5    5    0    0 -0.14814314969E+03 -0.97766522135E+02 -0.95441048407E+01  0.17775200586E+03  0.00000000000E+00 0. -1.
        -11    1    5    5    0    0 -0.37910761458E+03 -0.44636560935E+03 -0.32264727380E+02  0.58652012180E+03  0.00000000000E+00 0.  1.
          3    1    6    6  503    0 -0.44115421277E+02 -0.86274854577E+02  0.16203662534E+03  0.18879986461E+03  0.00000000000E+00 0. -1.
         -3    1    6    6    0  503 -0.13668226595E+02  0.15057593924E+02  0.10981551871E+03  0.11168258460E+03  0.00000000000E+00 0.  1.
<mgrwt>
<rscale>  0 0.86481662E+03</rscale>
<asrwt>0</asrwt>
<pdfrwt beam="1">  1        1 0.85876868E-01 0.86481662E+03</pdfrwt>
<pdfrwt beam="2">  1       -1 0.29868677E+00 0.86481662E+03</pdfrwt>
<totfact> 0.13227015E+00</totfact>
</mgrwt>
</event>
<event>
12    1  0.1335216E-007  0.7246541E+03  0.7818608E-02  0.9675975E-01
         -2   -1    0    0    0  501 -0.00000000000E+00  0.00000000000E+00  0.69611860537E+03  0.69611860537E+03  0.00000000000E+00 0.  1.
          2   -1    0    0  501    0  0.00000000000E+00 -0.00000000000E+00 -0.99304608053E+03  0.99304608053E+03  0.00000000000E+00 0. -1.
         23    2    1    2    0    0  0.60508789081E+03 -0.38962173713E+03 -0.10788695367E+03  0.73342868167E+03  0.91332265208E+02 0.  0.
    5000000    2    1    2    0    0 -0.60508789081E+03  0.38962173713E+03 -0.18904052150E+03  0.95573600423E+03  0.59979874739E+03 0.  0.
         23    2    4    4    0    0 -0.33798708039E+03  0.20176171464E+03  0.19224118475E+03  0.44584423710E+03  0.82929817499E+02 0.  0.
         23    2    4    4    0    0 -0.26710081042E+03  0.18786002249E+03 -0.38128170625E+03  0.50989176714E+03  0.89328851417E+02 0.  0.
          1    1    3    3  502    0  0.17383386299E+03 -0.14586121654E+03 -0.23541620443E+01  0.22693445858E+03  0.00000000000E+00 0. -1.
         -1    1    3    3    0  502  0.43125402783E+03 -0.24376052059E+03 -0.10553279162E+03  0.50649422309E+03  0.00000000000E+00 0.  1.
         11    1    5    5    0    0 -0.30978264221E+03  0.18258406836E+03  0.14532829955E+03  0.38784345048E+03  0.00000000000E+00 0. -1.
        -11    1    5    5    0    0 -0.28204438188E+02  0.19177646281E+02  0.46912885198E+02  0.58000786615E+02  0.00000000000E+00 0.  1.
          1    1    6    6  503    0 -0.12915510829E+03  0.13144538359E+03 -0.16577685382E+03  0.24787274180E+03  0.00000000000E+00 0. -1.
         -1    1    6    6    0  503 -0.13794570212E+03  0.56414638903E+02 -0.21550485243E+03  0.26201902533E+03  0.00000000000E+00 0.  1.
<mgrwt>
<rscale>  0 0.72465412E+03</rscale>
<asrwt>0</asrwt>
<pdfrwt beam="1">  1        2 0.15277632E+00 0.72465412E+03</pdfrwt>
<pdfrwt beam="2">  1       -2 0.10709517E+00 0.72465412E+03</pdfrwt>
<totfact> 0.18183654E+01</totfact>
</mgrwt>
</event>
<event>
12    1  0.1508953E-007  0.8869174E+03  0.7818608E-02  0.9442085E-01
          1   -1    0    0  501    0  0.00000000000E+00  0.00000000000E+00  0.14224560653E+04  0.14224560653E+04  0.00000000000E+00 0. -1.
         -1   -1    0    0    0  501 -0.00000000000E+00 -0.00000000000E+00 -0.64351624191E+03  0.64351624191E+03  0.00000000000E+00 0.  1.
         23    2    1    2    0    0  0.53007175315E+03  0.58662068340E+03 -0.13396340067E+02  0.79596305588E+03  0.90982606740E+02 0.  0.
    5000000    2    1    2    0    0 -0.53007175315E+03 -0.58662068340E+03  0.79233616350E+03  0.12700092514E+04  0.60002251032E+03 0.  0.
         23    2    4    4    0    0  0.58624526445E+02  0.52358385227E+02  0.12872813126E+03  0.17300191816E+03  0.84737809177E+02 0.  0.
         23    2    4    4    0    0 -0.58869627959E+03 -0.63897906862E+03  0.66360803224E+03  0.10970073332E+04  0.90509164814E+02 0.  0.
          4    1    3    3  502    0  0.26850197009E+03  0.35998406258E+03  0.85484201242E+01  0.44917135788E+03  0.00000000000E+00 0. -1.
         -4    1    3    3    0  502  0.26156978305E+03  0.22663662082E+03 -0.21944760191E+02  0.34679169800E+03  0.00000000000E+00 0.  1.
         11    1    5    5    0    0  0.44426949946E+02 -0.70229663582E+01  0.90239766224E+02  0.10082802857E+03  0.00000000000E+00 0. -1.
        -11    1    5    5    0    0  0.14197576499E+02  0.59381351586E+02  0.38488365037E+02  0.72173889585E+02  0.00000000000E+00 0.  1.
          2    1    6    6  503    0 -0.26666730416E+03 -0.34938560563E+03  0.35930888874E+03  0.56770118025E+03  0.00000000000E+00 0. -1.
         -2    1    6    6    0  503 -0.32202897543E+03 -0.28959346300E+03  0.30429914351E+03  0.52930615296E+03  0.00000000000E+00 0.  1.
<mgrwt>
<rscale>  0 0.88691744E+03</rscale>
<asrwt>0</asrwt>
<pdfrwt beam="1">  1        1 0.21883939E+00 0.88691744E+03</pdfrwt>
<pdfrwt beam="2">  1       -1 0.99002499E-01 0.88691744E+03</pdfrwt>
<totfact> 0.73617234E+00</totfact>
</mgrwt>
</event>
<event>
12    1  0.1335216E-007  0.2159621E+04  0.7818608E-02  0.8535425E-01
         -1   -1    0    0    0  501 -0.00000000000E+00  0.00000000000E+00  0.24118841925E+04  0.24118841925E+04  0.00000000000E+00 0.  1.
          1   -1    0    0  501    0  0.00000000000E+00 -0.00000000000E+00 -0.20852640945E+04  0.20852640945E+04  0.00000000000E+00 0. -1.
         23    2    1    2    0    0  0.17919183420E+04  0.11713335926E+04 -0.35429542407E+03  0.21719068996E+04  0.93062363360E+02 0.  0.
    5000000    2    1    2    0    0 -0.17919183420E+04 -0.11713335926E+04  0.68091552205E+03  0.23252413874E+04  0.60008985330E+03 0.  0.
         23    2    4    4    0    0 -0.27484017101E+03 -0.35147658761E+03  0.33166298617E+03  0.56345028039E+03  0.91667719730E+02 0.  0.
         23    2    4    4    0    0 -0.15170781710E+04 -0.81985700496E+03  0.34925253587E+03  0.17617911070E+04  0.90768306262E+02 0.  0.
          3    1    3    3  502    0  0.11748420439E+04  0.81512870566E+03 -0.25577504626E+03  0.14526215988E+04  0.00000000000E+00 0. -1.
         -3    1    3    3    0  502  0.61707629810E+03  0.35620488691E+03 -0.98520377805E+02  0.71928530082E+03  0.00000000000E+00 0.  1.
         13    1    5    5    0    0 -0.17774981094E+03 -0.27030515244E+03  0.27579620174E+03  0.42511576731E+03  0.00000000000E+00 0. -1.
        -13    1    5    5    0    0 -0.97090360069E+02 -0.81171435178E+02  0.55866784428E+02  0.13833451308E+03  0.00000000000E+00 0.  1.
          2    1    6    6  503    0 -0.10397477721E+04 -0.60847387085E+03  0.23588443968E+03  0.12275819117E+04  0.00000000000E+00 0. -1.
         -2    1    6    6    0  503 -0.47733039892E+03 -0.21138313411E+03  0.11336809619E+03  0.53420919531E+03  0.00000000000E+00 0.  1.
<mgrwt>
<rscale>  0 0.21596214E+04</rscale>
<asrwt>0</asrwt>
<pdfrwt beam="1">  1        1 0.32080986E+00 0.21596214E+04</pdfrwt>
<pdfrwt beam="2">  1       -1 0.37105911E+00 0.21596214E+04</pdfrwt>
<totfact> 0.25606361E-02</totfact>
</mgrwt>
</event>
<event>
12    1  0.1335216E-007  0.1532175E+04  0.7818608E-02  0.8863335E-01
          2   -1    0    0  501    0  0.00000000000E+00  0.00000000000E+00  0.23906156539E+04  0.23906156539E+04  0.00000000000E+00 0. -1.
         -2   -1    0    0    0  501 -0.00000000000E+00 -0.00000000000E+00 -0.10483696423E+04  0.10483696423E+04  0.00000000000E+00 0.  1.
         23    2    1    2    0    0  0.12465760945E+03  0.15174912902E+04  0.73230841293E+03  0.16924776111E+04  0.99425936079E+02 0.  0.
    5000000    2    1    2    0    0 -0.12465760945E+03 -0.15174912902E+04  0.60993759867E+03  0.17465076851E+04  0.59995490200E+03 0.  0.
         23    2    4    4    0    0 -0.50584785209E+02 -0.27013171123E+03 -0.97187631402E+02  0.30769810503E+03  0.98502417402E+02 0.  0.
         23    2    4    4    0    0 -0.74072824238E+02 -0.12473595790E+04  0.70712523007E+03  0.14388095801E+04  0.93563957654E+02 0.  0.
          3    1    3    3  502    0  0.82848556337E+01  0.63172526075E+03  0.27837150743E+03  0.69038839797E+03  0.00000000000E+00 0. -1.
         -3    1    3    3    0  502  0.11637275381E+03  0.88576602948E+03  0.45393690550E+03  0.10020892131E+04  0.00000000000E+00 0.  1.
         11    1    5    5    0    0  0.14494046988E+02 -0.89697843058E+01  0.78680081973E+01  0.18773384926E+02  0.00000000000E+00 0.  1.
        -11    1    5    5    0    0 -0.65078832197E+02 -0.26116192693E+03 -0.10505563960E+03  0.28892472011E+03  0.00000000000E+00 0. -1.
          4    1    6    6  503    0 -0.92140406919E+02 -0.80255302960E+03  0.46243467112E+03  0.93082062985E+03  0.00000000000E+00 0. -1.
         -4    1    6    6    0  503  0.18067582681E+02 -0.44480654939E+03  0.24469055896E+03  0.50798895024E+03  0.00000000000E+00 0.  1.
<mgrwt>
<rscale>  0 0.15321746E+04</rscale>
<asrwt>0</asrwt>
<pdfrwt beam="1">  1        2 0.36778702E+00 0.15321746E+04</pdfrwt>
<pdfrwt beam="2">  1       -2 0.16128764E+00 0.15321746E+04</pdfrwt>
<totfact> 0.93244273E-01</totfact>
</mgrwt>
</event>
<event>
12    1  0.1335216E-007  0.1334396E+04  0.7818608E-02  0.9002725E-01
          2   -1    0    0  501    0  0.00000000000E+00  0.00000000000E+00  0.14555971184E+04  0.14555971184E+04  0.00000000000E+00 0. -1.
         -2   -1    0    0    0  501 -0.00000000000E+00 -0.00000000000E+00 -0.14753232507E+04  0.14753232507E+04  0.00000000000E+00 0.  1.
         23    2    1    2    0    0 -0.84254384455E+02  0.12692791107E+04  0.58108387202E+03  0.14015274110E+04  0.91936691780E+02 0.  0.
    5000000    2    1    2    0    0  0.84254384455E+02 -0.12692791107E+04 -0.60081000440E+03  0.15293929581E+04  0.59991824191E+03 0.  0.
         23    2    4    4    0    0  0.32257061005E+03 -0.70565786396E+03 -0.26090233401E+03  0.82361427751E+03  0.90915514574E+02 0.  0.
         23    2    4    4    0    0 -0.23831622559E+03 -0.56362124670E+03 -0.33990767039E+03  0.70577868064E+03  0.90126514057E+02 0.  0.
          1    1    3    3  502    0 -0.84636545519E+02  0.79919143348E+03  0.40074428632E+03  0.89803467372E+03  0.00000000000E+00 0. -1.
         -1    1    3    3    0  502  0.38216106329E+00  0.47008767719E+03  0.18033958570E+03  0.50349273725E+03  0.00000000000E+00 0.  1.
         11    1    5    5    0    0  0.32334280580E+03 -0.69703011126E+03 -0.24675400661E+03  0.80702483596E+03  0.00000000000E+00 0.  1.
        -11    1    5    5    0    0 -0.77219575790E+00 -0.86277527009E+01 -0.14148327397E+02  0.16589441555E+02  0.00000000000E+00 0. -1.
          4    1    6    6  503    0 -0.39985814382E+02 -0.19858908326E+03 -0.12522264359E+03  0.23815373146E+03  0.00000000000E+00 0. -1.
         -4    1    6    6    0  503 -0.19833041121E+03 -0.36503216345E+03 -0.21468502680E+03  0.46762494918E+03  0.00000000000E+00 0.  1.
<mgrwt>
<rscale>  0 0.13343964E+04</rscale>
<asrwt>0</asrwt>
<pdfrwt beam="1">  1        2 0.22393802E+00 0.13343964E+04</pdfrwt>
<pdfrwt beam="2">  1       -2 0.22697281E+00 0.13343964E+04</pdfrwt>
<totfact> 0.11492518E+00</totfact>
</mgrwt>
</event>
<event>
12    1  0.1335216E-007  0.7169420E+03  0.7818608E-02  0.9688690E-01
          2   -1    0    0  501    0  0.00000000000E+00  0.00000000000E+00  0.33627312674E+04  0.33627312674E+04  0.00000000000E+00 0. -1.
         -2   -1    0    0    0  501 -0.00000000000E+00 -0.00000000000E+00 -0.32384362803E+03  0.32384362803E+03  0.00000000000E+00 0.  1.
         23    2    1    2    0    0  0.46600046947E+03 -0.45848556861E+03  0.16687304197E+03  0.68059962863E+03  0.89463893192E+02 0.  0.
    5000000    2    1    2    0    0 -0.46600046947E+03  0.45848556861E+03  0.28720145974E+04  0.30059752668E+04  0.60004500065E+03 0.  0.
         23    2    4    4    0    0 -0.42520601738E+02 -0.48175599790E+02  0.11983677801E+04  0.12042857613E+04  0.10044883450E+03 0.  0.
         23    2    4    4    0    0 -0.42347986773E+03  0.50666116840E+03  0.16736468172E+04  0.18016895055E+04  0.94607967246E+02 0.  0.
          3    1    3    3  502    0  0.18564708361E+03 -0.21215202309E+03  0.11219412336E+03  0.30341529604E+03  0.00000000000E+00 0. -1.
         -3    1    3    3    0  502  0.28035338586E+03 -0.24633354552E+03  0.54678918612E+02  0.37718433259E+03  0.00000000000E+00 0.  1.
         13    1    5    5    0    0  0.14875310342E+02  0.22685419270E+02  0.34292997166E+03  0.34400126246E+03  0.00000000000E+00 0.  1.
        -13    1    5    5    0    0 -0.57395912080E+02 -0.70861019060E+02  0.85543780847E+03  0.86028449882E+03  0.00000000000E+00 0. -1.
          3    1    6    6  503    0 -0.76923203166E+02  0.84521256251E+02  0.20392968663E+03  0.23376984201E+03  0.00000000000E+00 0. -1.
         -3    1    6    6    0  503 -0.34655666456E+03  0.42213991215E+03  0.14697171306E+04  0.15679196635E+04  0.00000000000E+00 0.  1.
<mgrwt>
<rscale>  0 0.71694203E+03</rscale>
<asrwt>0</asrwt>
<pdfrwt beam="1">  1        2 0.51734325E+00 0.71694203E+03</pdfrwt>
<pdfrwt beam="2">  1       -2 0.49822099E-01 0.71694203E+03</pdfrwt>
<totfact> 0.41883900E+00</totfact>
</mgrwt>
</event>
<event>
12    1  0.1335216E-007  0.8441802E+03  0.7818608E-02  0.9498182E-01
         -1   -1    0    0    0  501 -0.00000000000E+00  0.00000000000E+00  0.28806170417E+04  0.28806170417E+04  0.00000000000E+00 0.  1.
          1   -1    0    0  501    0  0.00000000000E+00 -0.00000000000E+00 -0.33589181159E+03  0.33589181159E+03  0.00000000000E+00 0. -1.
         23    2    1    2    0    0  0.22645462514E+02 -0.81222866099E+03  0.17489658142E+04  0.19306574471E+04  0.91260858984E+02 0.  0.
    5000000    2    1    2    0    0 -0.22645462514E+02  0.81222866099E+03  0.79575941598E+03  0.12858514062E+04  0.59996047868E+03 0.  0.
         23    2    4    4    0    0 -0.14696933028E+03  0.32041277315E+03  0.32559007255E+02  0.36490838953E+03  0.88508273902E+02 0.  0.
         23    2    4    4    0    0  0.12432386777E+03  0.49181588784E+03  0.76320040873E+03  0.92094301667E+03  0.91224363199E+02 0.  0.
          1    1    3    3  502    0  0.33590822117E+02 -0.18581486080E+03  0.46904833928E+03  0.50563015179E+03  0.00000000000E+00 0. -1.
         -1    1    3    3    0  502 -0.10945359602E+02 -0.62641380019E+03  0.12799174749E+04  0.14250272953E+04  0.00000000000E+00 0.  1.
         13    1    5    5    0    0 -0.73365466278E+02  0.24654324158E+03  0.40196719309E+02  0.26034945334E+03  0.00000000000E+00 0. -1.
        -13    1    5    5    0    0 -0.73603864003E+02  0.73869531578E+02 -0.76377120543E+01  0.10455893619E+03  0.00000000000E+00 0.  1.
          2    1    6    6  503    0  0.97826619509E+02  0.25330825095E+03  0.46127128765E+03  0.53526284973E+03  0.00000000000E+00 0. -1.
         -2    1    6    6    0  503  0.26497248257E+02  0.23850763689E+03  0.30192912107E+03  0.38568016694E+03  0.00000000000E+00 0.  1.
<mgrwt>
<rscale>  0 0.84418021E+03</rscale>
<asrwt>0</asrwt>
<pdfrwt beam="1">  1        1 0.51675665E-01 0.84418021E+03</pdfrwt>
<pdfrwt beam="2">  1       -1 0.44317183E+00 0.84418021E+03</pdfrwt>
<totfact> 0.28738584E-01</totfact>
</mgrwt>
</event>
<event>
12    1  0.1335216E-007  0.1672714E+04  0.7818608E-02  0.8777082E-01
          3   -1    0    0  501    0  0.00000000000E+00  0.00000000000E+00  0.13242287072E+04  0.13242287072E+04  0.00000000000E+00 0.  1.
         -3   -1    0    0    0  501 -0.00000000000E+00 -0.00000000000E+00 -0.22145796015E+04  0.22145796015E+04  0.00000000000E+00 0. -1.
         23    2    1    2    0    0 -0.10048146906E+04 -0.13131651032E+04 -0.29644781111E+03  0.16822835242E+04  0.90229708726E+02 0.  0.
    5000000    2    1    2    0    0  0.10048146906E+04  0.13131651032E+04 -0.59390308317E+03  0.18565247844E+04  0.59992353852E+03 0.  0.
         23    2    4    4    0    0  0.96959084418E+03  0.11374862769E+04 -0.35205574978E+03  0.15388062180E+04  0.99999451704E+02 0.  0.
         23    2    4    4    0    0  0.35223846417E+02  0.17567882630E+03 -0.24184733339E+03  0.31771856637E+03  0.10174077542E+03 0.  0.
          1    1    3    3  502    0 -0.59992619355E+03 -0.83095217674E+03 -0.14978377040E+03  0.10357741721E+04  0.00000000000E+00 0. -1.
         -1    1    3    3    0  502 -0.40488849705E+03 -0.48221292651E+03 -0.14666404071E+03  0.64650935212E+03  0.00000000000E+00 0.  1.
         13    1    5    5    0    0  0.51802659379E+03  0.56331435274E+03 -0.22207424437E+03  0.79686359051E+03  0.00000000000E+00 0. -1.
        -13    1    5    5    0    0  0.45156425039E+03  0.57417192420E+03 -0.12998150541E+03  0.74194262752E+03  0.00000000000E+00 0.  1.
          1    1    6    6  503    0  0.54391921066E+02  0.75054941070E+02 -0.16648495136E+03  0.19054911253E+03  0.00000000000E+00 0. -1.
         -1    1    6    6    0  503 -0.19168074649E+02  0.10062388523E+03 -0.75362382026E+02  0.12716945384E+03  0.00000000000E+00 0.  1.
<mgrwt>
<rscale>  0 0.16727137E+04</rscale>
<asrwt>0</asrwt>
<pdfrwt beam="1">  1        3 0.20372750E+00 0.16727137E+04</pdfrwt>
<pdfrwt beam="2">  1       -3 0.34070455E+00 0.16727137E+04</pdfrwt>
<totfact> 0.74333779E-03</totfact>
</mgrwt>
</event>
<event>
12    1  0.1335216E-007  0.7989150E+03  0.7818608E-02  0.9561589E-01
         -1   -1    0    0    0  501 -0.00000000000E+00  0.00000000000E+00  0.61519965910E+03  0.61519965910E+03  0.00000000000E+00 0.  1.
          1   -1    0    0  501    0  0.00000000000E+00 -0.00000000000E+00 -0.11405677590E+04  0.11405677590E+04  0.00000000000E+00 0. -1.
         23    2    1    2    0    0 -0.21125714279E+03  0.68213408338E+03 -0.84179263139E+02  0.72394584265E+03  0.84112702130E+02 0.  0.
    5000000    2    1    2    0    0  0.21125714279E+03 -0.68213408338E+03 -0.44118883675E+03  0.10318215754E+04  0.60005973517E+03 0.  0.
         23    2    4    4    0    0  0.21295755715E+03 -0.25970696273E+02  0.41648997428E+01  0.23340779472E+03  0.91850171672E+02 0.  0.
         23    2    4    4    0    0 -0.17004143619E+01 -0.65616338710E+03 -0.44535373649E+03  0.79841378071E+03  0.92581491867E+02 0.  0.
          1    1    3    3  502    0 -0.11526788281E+03  0.23590614467E+03 -0.27138643931E+02  0.26396003466E+03  0.00000000000E+00 0. -1.
         -1    1    3    3    0  502 -0.95989259973E+02  0.44622793870E+03 -0.57040619208E+02  0.45998580799E+03  0.00000000000E+00 0.  1.
         13    1    5    5    0    0  0.10549089622E+03 -0.42012753269E+02 -0.33532343446E+02  0.11839686938E+03  0.00000000000E+00 0. -1.
        -13    1    5    5    0    0  0.10746666093E+03  0.16042056995E+02  0.37697243189E+02  0.11501092534E+03  0.00000000000E+00 0.  1.
          2    1    6    6  503    0  0.11324571451E+02 -0.35785415129E+03 -0.29601966121E+03  0.46455944650E+03  0.00000000000E+00 0. -1.
         -2    1    6    6    0  503 -0.13024985813E+02 -0.29830923582E+03 -0.14933407528E+03  0.33385433421E+03  0.00000000000E+00 0.  1.
<mgrwt>
<rscale>  0 0.79891496E+03</rscale>
<asrwt>0</asrwt>
<pdfrwt beam="1">  1        1 0.17547196E+00 0.79891496E+03</pdfrwt>
<pdfrwt beam="2">  1       -1 0.94646102E-01 0.79891496E+03</pdfrwt>
<totfact> 0.13097585E+01</totfact>
</mgrwt>
</event>
<event>
12    1  0.1335216E-007  0.3790959E+03  0.7818608E-02  0.1051268E+00
          1   -1    0    0  501    0  0.00000000000E+00  0.00000000000E+00  0.31597283576E+03  0.31597283576E+03  0.00000000000E+00 0. -1.
         -1   -1    0    0    0  501 -0.00000000000E+00 -0.00000000000E+00 -0.78702271803E+03  0.78702271803E+03  0.00000000000E+00 0.  1.
         23    2    1    2    0    0 -0.19450139323E+03  0.16608824401E+03  0.40056066167E+02  0.27439192820E+03  0.90941437495E+02 0.  0.
    5000000    2    1    2    0    0  0.19450139323E+03 -0.16608824401E+03 -0.51110594843E+03  0.82860362559E+03  0.59994881536E+03 0.  0.
         23    2    4    4    0    0  0.20736489940E+03 -0.28877025028E+03 -0.84982762046E+02  0.37619938602E+03  0.88968810531E+02 0.  0.
         23    2    4    4    0    0 -0.12863506161E+02  0.12268200627E+03 -0.42612318639E+03  0.45240423957E+03  0.88725878698E+02 0.  0.
          1    1    3    3  502    0 -0.12939749965E+03  0.56389293476E+02  0.40435585490E+02  0.14682813732E+03  0.00000000000E+00 0. -1.
         -1    1    3    3    0  502 -0.65103893585E+02  0.10969895053E+03 -0.37951932351E+00  0.12756379088E+03  0.00000000000E+00 0.  1.
         11    1    5    5    0    0  0.45777240182E+02 -0.14925455467E+02 -0.55872725203E+01  0.48472080147E+02  0.00000000000E+00 0.  1.
        -11    1    5    5    0    0  0.16158765921E+03 -0.27384479482E+03 -0.79395489525E+02  0.32772730587E+03  0.00000000000E+00 0. -1.
          3    1    6    6  503    0 -0.80362540584E+01  0.83611341661E+02 -0.39010565311E+03  0.39904618583E+03  0.00000000000E+00 0. -1.
         -3    1    6    6    0  503 -0.48272521024E+01  0.39070664612E+02 -0.36017533277E+02  0.53358053745E+02  0.00000000000E+00 0.  1.
<mgrwt>
<rscale>  0 0.37909590E+03</rscale>
<asrwt>0</asrwt>
<pdfrwt beam="1">  1        1 0.48611206E-01 0.37909590E+03</pdfrwt>
<pdfrwt beam="2">  1       -1 0.12108042E+00 0.37909590E+03</pdfrwt>
<totfact> 0.52665305E+01</totfact>
</mgrwt>
</event>
<event>
12    1  0.1335216E-007  0.9000148E+03  0.7818608E-02  0.9425563E-01
          2   -1    0    0  501    0  0.00000000000E+00  0.00000000000E+00  0.19219369186E+04  0.19219369186E+04  0.00000000000E+00 0.  1.
         -2   -1    0    0    0  501 -0.00000000000E+00 -0.00000000000E+00 -0.46616757061E+03  0.46616757061E+03  0.00000000000E+00 0. -1.
         23    2    1    2    0    0  0.48838792272E+03  0.63403546584E+03  0.10131801070E+04  0.12943900191E+04  0.91585246188E+02 0.  0.
    5000000    2    1    2    0    0 -0.48838792272E+03 -0.63403546584E+03  0.44258924101E+03  0.10937144701E+04  0.59983528648E+03 0.  0.
         23    2    4    4    0    0 -0.26744459997E+03  0.39436279024E+02  0.14346109605E+03  0.31947842337E+03  0.91670839231E+02 0.  0.
         23    2    4    4    0    0 -0.22094332275E+03 -0.67347174486E+03  0.29912814495E+03  0.77423604675E+03  0.87084246476E+02 0.  0.
          3    1    3    3  502    0  0.25756403376E+03  0.29121922178E+03  0.43109200779E+03  0.58050683528E+03  0.00000000000E+00 0. -1.
         -3    1    3    3    0  502  0.23082388896E+03  0.34281624406E+03  0.58208809917E+03  0.71388318379E+03  0.00000000000E+00 0.  1.
         13    1    5    5    0    0 -0.85542754167E+02 -0.29950160848E+02  0.50184701078E+02  0.10360057503E+03  0.00000000000E+00 0. -1.
        -13    1    5    5    0    0 -0.18190184580E+03  0.69386439872E+02  0.93276394973E+02  0.21587784834E+03  0.00000000000E+00 0.  1.
          1    1    6    6  503    0 -0.12357516488E+03 -0.48519916267E+03  0.18721399651E+03  0.53454478701E+03  0.00000000000E+00 0. -1.
         -1    1    6    6    0  503 -0.97368157871E+02 -0.18827258219E+03  0.11191414844E+03  0.23969125974E+03  0.00000000000E+00 0.  1.
<mgrwt>
<rscale>  0 0.90001477E+03</rscale>
<asrwt>0</asrwt>
<pdfrwt beam="1">  1        2 0.29568260E+00 0.90001477E+03</pdfrwt>
<pdfrwt beam="2">  1       -2 0.71718089E-01 0.90001477E+03</pdfrwt>
<totfact> 0.13185563E+01</totfact>
</mgrwt>
</event>
<event>
12    1  0.1335216E-007  0.6095738E+03  0.7818608E-02  0.9885740E-01
         -2   -1    0    0    0  501 -0.00000000000E+00  0.00000000000E+00  0.37948120774E+03  0.37948120774E+03  0.00000000000E+00 0.  1.
          2   -1    0    0  501    0  0.00000000000E+00 -0.00000000000E+00 -0.15970361477E+04  0.15970361477E+04  0.00000000000E+00 0. -1.
         23    2    1    2    0    0 -0.47101803489E+03  0.25414204337E+03 -0.10091676232E+04  0.11459518995E+04  0.91325225418E+02 0.  0.
    5000000    2    1    2    0    0  0.47101803489E+03 -0.25414204337E+03 -0.20838731677E+03  0.83056545599E+03  0.59997294563E+03 0.  0.
         23    2    4    4    0    0  0.97123126939E+02  0.99756159069E+02  0.12720198675E+03  0.20930810203E+03  0.90803871522E+02 0.  0.
         23    2    4    4    0    0  0.37389490795E+03 -0.35389820244E+03 -0.33558930352E+03  0.62125735395E+03  0.91099831644E+02 0.  0.
          1    1    3    3  502    0 -0.20940806403E+03  0.15493357629E+03 -0.54335934967E+03  0.60257408940E+03  0.00000000000E+00 0. -1.
         -1    1    3    3    0  502 -0.26160997086E+03  0.99208467081E+02 -0.46580827354E+03  0.54337781008E+03  0.00000000000E+00 0.  1.
         13    1    5    5    0    0  0.76684598444E+02  0.11508766917E+03  0.93168694640E+02  0.16675162636E+03  0.00000000000E+00 0.  1.
        -13    1    5    5    0    0  0.20438528496E+02 -0.15331510104E+02  0.34033292113E+02  0.42556475667E+02  0.00000000000E+00 0. -1.
          4    1    6    6  503    0  0.22804337583E+03 -0.22540336446E+03 -0.25958377585E+03  0.41254599096E+03  0.00000000000E+00 0.  1.
         -4    1    6    6    0  503  0.14585153211E+03 -0.12849483798E+03 -0.76005527676E+02  0.20871136300E+03  0.00000000000E+00 0. -1.
<mgrwt>
<rscale>  0 0.60957383E+03</rscale>
<asrwt>0</asrwt>
<pdfrwt beam="1">  1        2 0.24569786E+00 0.60957383E+03</pdfrwt>
<pdfrwt beam="2">  1       -2 0.58381725E-01 0.60957383E+03</pdfrwt>
<totfact> 0.32056354E+01</totfact>
</mgrwt>
</event>
<event>
12    1  0.1335216E-007  0.4598430E+03  0.7818608E-02  0.1024827E+00
         -1   -1    0    0    0  501 -0.00000000000E+00  0.00000000000E+00  0.31085113705E+03  0.31085113705E+03  0.00000000000E+00 0.  1.
          1   -1    0    0  501    0  0.00000000000E+00 -0.00000000000E+00 -0.95886199085E+03  0.95886199085E+03  0.00000000000E+00 0. -1.
         23    2    1    2    0    0 -0.15732004034E+03 -0.21413314926E+03 -0.53446712952E+03  0.60373077825E+03  0.90736648390E+02 0.  0.
    5000000    2    1    2    0    0  0.15732004034E+03  0.21413314926E+03 -0.11354372428E+03  0.66598234966E+03  0.60003142586E+03 0.  0.
         23    2    4    4    0    0  0.33497241544E+03  0.28296893435E+03 -0.91864508250E+02  0.45722722732E+03  0.91322027019E+02 0.  0.
         23    2    4    4    0    0 -0.17765237510E+03 -0.68835785087E+02 -0.21679216035E+02  0.20875512233E+03  0.82522609067E+02 0.  0.
          3    1    3    3  502    0 -0.50238287799E+02 -0.11488932895E+03 -0.17109417432E+03  0.21212416164E+03  0.00000000000E+00 0. -1.
         -3    1    3    3    0  502 -0.10708175254E+03 -0.99243820318E+02 -0.36337295520E+03  0.39160661660E+03  0.00000000000E+00 0.  1.
         13    1    5    5    0    0  0.26135375431E+03  0.17703660902E+03 -0.89856440262E+02  0.32821018522E+03  0.00000000000E+00 0. -1.
        -13    1    5    5    0    0  0.73618661125E+02  0.10593232533E+03 -0.20080679872E+01  0.12901704210E+03  0.00000000000E+00 0.  1.
          2    1    6    6  503    0 -0.10795482145E+03 -0.78193814723E+02 -0.33504599712E+02  0.13744480469E+03  0.00000000000E+00 0. -1.
         -2    1    6    6    0  503 -0.69697553651E+02  0.93580296360E+01  0.11825383677E+02  0.71310317646E+02  0.00000000000E+00 0.  1.
<mgrwt>
<rscale>  0 0.45984295E+03</rscale>
<asrwt>0</asrwt>
<pdfrwt beam="1">  1        1 0.14751723E+00 0.45984295E+03</pdfrwt>
<pdfrwt beam="2">  1       -1 0.47823253E-01 0.45984295E+03</pdfrwt>
<totfact> 0.75122764E+01</totfact>
</mgrwt>
</event>
<event>
12    1  0.1335216E-007  0.6760087E+03  0.7818608E-02  0.9759164E-01
          1   -1    0    0  501    0  0.00000000000E+00  0.00000000000E+00  0.13479692131E+04  0.13479692131E+04  0.00000000000E+00 0. -1.
         -1   -1    0    0    0  501 -0.00000000000E+00 -0.00000000000E+00 -0.69971206238E+03  0.69971206238E+03  0.00000000000E+00 0.  1.
         23    2    1    2    0    0  0.63974317020E+03  0.77154447951E+02  0.91939160803E+03  0.11264889300E+04  0.92044814122E+02 0.  0.
    5000000    2    1    2    0    0 -0.63974317020E+03 -0.77154447951E+02 -0.27113445728E+03  0.92119234553E+03  0.59988108062E+03 0.  0.
         23    2    4    4    0    0 -0.98039113887E+02  0.67591482320E+02  0.15133443931E+03  0.21336034386E+03  0.91870819509E+02 0.  0.
         23    2    4    4    0    0 -0.54170405631E+03 -0.14474593027E+03 -0.42246889659E+03  0.70783200167E+03  0.90285685716E+02 0.  0.
          4    1    3    3  502    0  0.45630089307E+03  0.50644016593E+02  0.72297160317E+03  0.85642469629E+03  0.00000000000E+00 0. -1.
         -4    1    3    3    0  502  0.18344227713E+03  0.26510431358E+02  0.19642000486E+03  0.27006423369E+03  0.00000000000E+00 0.  1.
         11    1    5    5    0    0 -0.10388271662E+03  0.38652026189E+02  0.14608282085E+03  0.18337335818E+03  0.00000000000E+00 0. -1.
        -11    1    5    5    0    0  0.58436027337E+01  0.28939456131E+02  0.52516184600E+01  0.29986985686E+02  0.00000000000E+00 0.  1.
          3    1    6    6  503    0 -0.52049766082E+03 -0.15576391322E+03 -0.39692394761E+03  0.67285127017E+03  0.00000000000E+00 0. -1.
         -3    1    6    6    0  503 -0.21206395491E+02  0.11017982946E+02 -0.25544948976E+02  0.34980731498E+02  0.00000000000E+00 0.  1.
<mgrwt>
<rscale>  0 0.67600871E+03</rscale>
<asrwt>0</asrwt>
<pdfrwt beam="1">  1        1 0.20737988E+00 0.67600871E+03</pdfrwt>
<pdfrwt beam="2">  1       -1 0.10764801E+00 0.67600871E+03</pdfrwt>
<totfact> 0.70567901E+00</totfact>
</mgrwt>
</event>
<event>
12    1  0.1335216E-007  0.6494879E+03  0.7818608E-02  0.9807741E-01
         -2   -1    0    0    0  501 -0.00000000000E+00  0.00000000000E+00  0.15047604932E+03  0.15047604932E+03  0.00000000000E+00 0.  1.
          2   -1    0    0  501    0  0.00000000000E+00 -0.00000000000E+00 -0.31375555864E+04  0.31375555864E+04  0.00000000000E+00 0. -1.
         23    2    1    2    0    0 -0.29605330514E+03  0.45676322327E+03 -0.14290216224E+04  0.15318538321E+04  0.90516098353E+02 0.  0.
    5000000    2    1    2    0    0  0.29605330514E+03 -0.45676322327E+03 -0.15580579147E+04  0.17561778036E+04  0.60027977706E+03 0.  0.
         23    2    4    4    0    0  0.39360867354E+03 -0.49556103750E+03 -0.10476406507E+04  0.12271621044E+04  0.88698182753E+02 0.  0.
         23    2    4    4    0    0 -0.97555368398E+02  0.38797814233E+02 -0.51041726399E+03  0.52901569924E+03  0.91156493873E+02 0.  0.
          1    1    3    3  502    0 -0.88787119707E+02  0.19353028439E+03 -0.46966166576E+03  0.51567354391E+03  0.00000000000E+00 0. -1.
         -1    1    3    3    0  502 -0.20726618543E+03  0.26323293888E+03 -0.95935995664E+03  0.10161802882E+04  0.00000000000E+00 0.  1.
         13    1    5    5    0    0  0.18615274986E+03 -0.27364119438E+03 -0.47495004906E+03  0.57888677533E+03  0.00000000000E+00 0.  1.
        -13    1    5    5    0    0  0.20745592368E+03 -0.22191984312E+03 -0.57269060167E+03  0.64827532907E+03  0.00000000000E+00 0. -1.
          1    1    6    6  503    0 -0.42321412698E+02  0.43679433164E+02 -0.40839333554E+03  0.41289721647E+03  0.00000000000E+00 0. -1.
         -1    1    6    6    0  503 -0.55233955700E+02 -0.48816189306E+01 -0.10202392845E+03  0.11611848277E+03  0.00000000000E+00 0.  1.
<mgrwt>
<rscale>  0 0.64948790E+03</rscale>
<asrwt>0</asrwt>
<pdfrwt beam="1">  1        2 0.48270083E+00 0.64948790E+03</pdfrwt>
<pdfrwt beam="2">  1       -2 0.23150163E-01 0.64948790E+03</pdfrwt>
<totfact> 0.25349775E+01</totfact>
</mgrwt>
</event>
<event>
12    1  0.1335216E-007  0.6732333E+03  0.7818608E-02  0.9764134E-01
          2   -1    0    0  501    0  0.00000000000E+00  0.00000000000E+00  0.17993187388E+04  0.17993187388E+04  0.00000000000E+00 0. -1.
         -2   -1    0    0    0  501 -0.00000000000E+00 -0.00000000000E+00 -0.36129861521E+03  0.36129861521E+03  0.00000000000E+00 0.  1.
         23    2    1    2    0    0 -0.53328370140E+03  0.12336950312E+03  0.11873357938E+04  0.13106840821E+04  0.92276407236E+02 0.  0.
    5000000    2    1    2    0    0  0.53328370140E+03 -0.12336950312E+03  0.25068432985E+03  0.84993327198E+03  0.59994365827E+03 0.  0.
         23    2    4    4    0    0 -0.81184173302E+02 -0.12975449558E+03 -0.46096648341E+01  0.17849145494E+03  0.91710693807E+02 0.  0.
         23    2    4    4    0    0  0.61446787470E+03  0.63849924653E+01  0.25529399469E+03  0.67144181704E+03  0.89708153308E+02 0.  0.
          3    1    3    3  502    0 -0.15809335054E+03  0.68272881873E+02  0.30391353611E+03  0.34931093787E+03  0.00000000000E+00 0. -1.
         -3    1    3    3    0  502 -0.37519035086E+03  0.55096621243E+02  0.88342225768E+03  0.96137314421E+03  0.00000000000E+00 0.  1.
         11    1    5    5    0    0  0.12682956319E+02 -0.48048994989E+02 -0.19027703889E+02  0.53212938424E+02  0.00000000000E+00 0.  1.
        -11    1    5    5    0    0 -0.93867129621E+02 -0.81705500592E+02  0.14418039055E+02  0.12527851652E+03  0.00000000000E+00 0. -1.
          2    1    6    6  503    0  0.30966443829E+03  0.47695859391E+02  0.13509330323E+03  0.34119958957E+03  0.00000000000E+00 0. -1.
         -2    1    6    6    0  503  0.30480343641E+03 -0.41310866926E+02  0.12020069146E+03  0.33024222746E+03  0.00000000000E+00 0.  1.
<mgrwt>
<rscale>  0 0.67323333E+03</rscale>
<asrwt>0</asrwt>
<pdfrwt beam="1">  1        2 0.27681826E+00 0.67323333E+03</pdfrwt>
<pdfrwt beam="2">  1       -2 0.55584404E-01 0.67323333E+03</pdfrwt>
<totfact> 0.27304353E+01</totfact>
</mgrwt>
</event>
<event>
12    1  0.1335216E-007  0.1093119E+04  0.7818608E-02  0.9211925E-01
          2   -1    0    0  501    0  0.00000000000E+00  0.00000000000E+00  0.10601749659E+04  0.10601749659E+04  0.00000000000E+00 0. -1.
         -2   -1    0    0    0  501 -0.00000000000E+00 -0.00000000000E+00 -0.14830912045E+04  0.14830912045E+04  0.00000000000E+00 0.  1.
         23    2    1    2    0    0  0.27537304296E+03 -0.10328149796E+04  0.30781613386E+03  0.11160815714E+04  0.91379466556E+02 0.  0.
    5000000    2    1    2    0    0 -0.27537304296E+03  0.10328149796E+04 -0.73073237251E+03  0.14271845990E+04  0.60029074988E+03 0.  0.
         23    2    4    4    0    0 -0.12299617492E+03  0.84447237396E+03 -0.27136561515E+03  0.90009706245E+03  0.90960295261E+02 0.  0.
         23    2    4    4    0    0 -0.15237686804E+03  0.18834260567E+03 -0.45936675736E+03  0.52708753653E+03  0.90065567087E+02 0.  0.
          1    1    3    3  502    0  0.11288703536E+03 -0.33088431616E+03  0.63765810153E+02  0.35537865999E+03  0.00000000000E+00 0. -1.
         -1    1    3    3    0  502  0.16248600760E+03 -0.70193066348E+03  0.24405032371E+03  0.76070291145E+03  0.00000000000E+00 0.  1.
         13    1    5    5    0    0 -0.13441178802E+03  0.82282225644E+03 -0.26280817354E+03  0.87416882267E+03  0.00000000000E+00 0.  1.
        -13    1    5    5    0    0  0.11415613097E+02  0.21650117525E+02 -0.85574416063E+01  0.25928239780E+02  0.00000000000E+00 0. -1.
          4    1    6    6  503    0 -0.70436108210E+02  0.24209312769E+02 -0.11770961888E+03  0.13929425882E+03  0.00000000000E+00 0. -1.
         -4    1    6    6    0  503 -0.81940759831E+02  0.16413329290E+03 -0.34165713849E+03  0.38779327771E+03  0.00000000000E+00 0.  1.
<mgrwt>
<rscale>  0 0.10931187E+04</rscale>
<asrwt>0</asrwt>
<pdfrwt beam="1">  1        2 0.16310384E+00 0.10931187E+04</pdfrwt>
<pdfrwt beam="2">  1       -2 0.22816788E+00 0.10931187E+04</pdfrwt>
<totfact> 0.19918495E+00</totfact>
</mgrwt>
</event>
<event>
12    1  0.1335216E-007  0.5325504E+03  0.7818608E-02  0.1005615E+00
          1   -1    0    0  501    0  0.00000000000E+00  0.00000000000E+00  0.40398224022E+03  0.40398224022E+03  0.00000000000E+00 0. -1.
         -1   -1    0    0    0  501 -0.00000000000E+00 -0.00000000000E+00 -0.87032984274E+03  0.87032984274E+03  0.00000000000E+00 0.  1.
         23    2    1    2    0    0  0.31476734559E+02 -0.36678495872E+03 -0.42386228675E+03  0.56880156469E+03  0.91400170130E+02 0.  0.
    5000000    2    1    2    0    0 -0.31476734559E+02  0.36678495872E+03 -0.42485315776E+02  0.70551051828E+03  0.60034831439E+03 0.  0.
         23    2    4    4    0    0 -0.24013268751E+03 -0.15243876317E+02  0.94616347043E+01  0.25803731496E+03  0.92723513776E+02 0.  0.
         23    2    4    4    0    0  0.20865595295E+03  0.38202883504E+03 -0.51946950480E+02  0.44747320332E+03  0.89724269427E+02 0.  0.
          2    1    3    3  502    0 -0.19735641325E+02 -0.19625464497E+03 -0.18134165154E+03  0.26793688771E+03  0.00000000000E+00 0. -1.
         -2    1    3    3    0  502  0.51212375883E+02 -0.17053031375E+03 -0.24252063521E+03  0.30086467698E+03  0.00000000000E+00 0.  1.
         11    1    5    5    0    0 -0.18808971704E+03 -0.44497540431E+02  0.28505277137E+02  0.19537226923E+03  0.00000000000E+00 0.  1.
        -11    1    5    5    0    0 -0.52042970471E+02  0.29253664114E+02 -0.19043642433E+02  0.62665045733E+02  0.00000000000E+00 0. -1.
          3    1    6    6  503    0  0.42614566195E+02  0.11190192859E+03  0.22344380345E+02  0.12180851451E+03  0.00000000000E+00 0. -1.
         -3    1    6    6    0  503  0.16604138675E+03  0.27012690645E+03 -0.74291330825E+02  0.32566468881E+03  0.00000000000E+00 0.  1.
<mgrwt>
<rscale>  0 0.53255044E+03</rscale>
<asrwt>0</asrwt>
<pdfrwt beam="1">  1        1 0.62151115E-01 0.53255044E+03</pdfrwt>
<pdfrwt beam="2">  1       -1 0.13389690E+00 0.53255044E+03</pdfrwt>
<totfact> 0.29220953E+01</totfact>
</mgrwt>
</event>
<event>
12    1  0.1335216E-007  0.4101570E+03  0.7818608E-02  0.1040318E+00
          2   -1    0    0  501    0  0.00000000000E+00  0.00000000000E+00  0.27211320863E+04  0.27211320863E+04  0.00000000000E+00 0. -1.
         -2   -1    0    0    0  501 -0.00000000000E+00 -0.00000000000E+00 -0.11645129508E+03  0.11645129508E+03  0.00000000000E+00 0.  1.
         23    2    1    2    0    0 -0.93507570972E+02  0.34630133741E+03  0.53472762562E+03  0.65279069658E+03  0.10739542736E+03 0.  0.
    5000000    2    1    2    0    0  0.93507570972E+02 -0.34630133741E+03  0.20699531656E+04  0.21847926848E+04  0.59995390291E+03 0.  0.
         23    2    4    4    0    0 -0.10327243416E+03 -0.14931591475E+03  0.18525358201E+03  0.27730710279E+03  0.98081096823E+02 0.  0.
         23    2    4    4    0    0  0.19678000514E+03 -0.19698542266E+03  0.18846995836E+04  0.19074855820E+04  0.94250188308E+02 0.  0.
          4    1    3    3  502    0 -0.24844287813E+02  0.81299501476E+02  0.21893619654E+03  0.23486146073E+03  0.00000000000E+00 0. -1.
         -4    1    3    3    0  502 -0.68663283159E+02  0.26500183594E+03  0.31579142907E+03  0.41792923585E+03  0.00000000000E+00 0.  1.
         13    1    5    5    0    0  0.45541684491E+00 -0.55340383899E+01 -0.11310164395E+02  0.12599714443E+02  0.00000000000E+00 0. -1.
        -13    1    5    5    0    0 -0.10372785101E+03 -0.14378187636E+03  0.19656374640E+03  0.26470738834E+03  0.00000000000E+00 0.  1.
          2    1    6    6  503    0  0.75741905435E+02 -0.67463335512E+02  0.41889728028E+03  0.43100240057E+03  0.00000000000E+00 0.  1.
         -2    1    6    6    0  503  0.12103809970E+03 -0.12952208715E+03  0.14658023034E+04  0.14764831815E+04  0.00000000000E+00 0. -1.
<mgrwt>
<rscale>  0 0.41015697E+03</rscale>
<asrwt>0</asrwt>
<pdfrwt beam="1">  1        2 0.41863566E+00 0.41015697E+03</pdfrwt>
<pdfrwt beam="2">  1       -2 0.17915586E-01 0.41015697E+03</pdfrwt>
<totfact> 0.74021016E+01</totfact>
</mgrwt>
</event>
<event>
12    1  0.1335216E-007  0.4073082E+03  0.7818608E-02  0.1041278E+00
          1   -1    0    0  501    0  0.00000000000E+00  0.00000000000E+00  0.16033547611E+04  0.16033547611E+04  0.00000000000E+00 0. -1.
         -1   -1    0    0    0  501 -0.00000000000E+00 -0.00000000000E+00 -0.17258450613E+03  0.17258450613E+03  0.00000000000E+00 0.  1.
         23    2    1    2    0    0 -0.20506747662E+03 -0.27556413294E+03  0.57206122098E+03  0.67347416880E+03  0.91242282728E+02 0.  0.
    5000000    2    1    2    0    0  0.20506747662E+03  0.27556413294E+03  0.85870903396E+03  0.11024650984E+04  0.60004985365E+03 0.  0.
         23    2    4    4    0    0  0.36632771138E+02  0.26984184798E+03  0.86315956879E+03  0.91064781360E+03  0.10039131623E+03 0.  0.
         23    2    4    4    0    0  0.16843470548E+03  0.57222849556E+01 -0.44505348305E+01  0.19181728480E+03  0.91493545853E+02 0.  0.
          1    1    3    3  502    0 -0.90068048754E+02 -0.15145113746E+03  0.37079827565E+03  0.41053752772E+03  0.00000000000E+00 0. -1.
         -1    1    3    3    0  502 -0.11499942787E+03 -0.12411299548E+03  0.20126294534E+03  0.26293664108E+03  0.00000000000E+00 0.  1.
         11    1    5    5    0    0 -0.19534878247E+02  0.17809721841E+03  0.46848902128E+03  0.50157969829E+03  0.00000000000E+00 0.  1.
        -11    1    5    5    0    0  0.56167649386E+02  0.91744629574E+02  0.39467054751E+03  0.40906811531E+03  0.00000000000E+00 0. -1.
          4    1    6    6  503    0  0.41517588394E+02  0.32538515389E+02  0.25645107050E+02  0.58652678075E+02  0.00000000000E+00 0. -1.
         -4    1    6    6    0  503  0.12691711709E+03 -0.26816230433E+02 -0.30095641880E+02  0.13316460673E+03  0.00000000000E+00 0.  1.
<mgrwt>
<rscale>  0 0.40730817E+03</rscale>
<asrwt>0</asrwt>
<pdfrwt beam="1">  1        1 0.24666995E+00 0.40730817E+03</pdfrwt>
<pdfrwt beam="2">  1       -1 0.26551463E-01 0.40730817E+03</pdfrwt>
<totfact> 0.75341826E+01</totfact>
</mgrwt>
</event>
<event>
12    1  0.1335216E-007  0.7679785E+03  0.7818608E-02  0.9607560E-01
          2   -1    0    0  501    0  0.00000000000E+00  0.00000000000E+00  0.14916497568E+04  0.14916497568E+04  0.00000000000E+00 0. -1.
         -2   -1    0    0    0  501 -0.00000000000E+00 -0.00000000000E+00 -0.52541810042E+03  0.52541810042E+03  0.00000000000E+00 0.  1.
         23    2    1    2    0    0  0.18560516817E+03 -0.74172335947E+03  0.60894258696E+03  0.98179710334E+03  0.92258644452E+02 0.  0.
    5000000    2    1    2    0    0 -0.18560516817E+03  0.74172335947E+03  0.35728906946E+03  0.10352707539E+04  0.59960589920E+03 0.  0.
         23    2    4    4    0    0 -0.17531380018E+02  0.17354625640E+03  0.38780602712E+03  0.43519922218E+03  0.92623948918E+02 0.  0.
         23    2    4    4    0    0 -0.16807378815E+03  0.56817710307E+03 -0.30516957661E+02  0.60007153175E+03  0.89891822765E+02 0.  0.
          3    1    3    3  502    0  0.17305942693E+03 -0.66568830181E+03  0.50938853332E+03  0.85590137183E+03  0.00000000000E+00 0. -1.
         -3    1    3    3    0  502  0.12545741238E+02 -0.76035057656E+02  0.99554053643E+02  0.12589573151E+03  0.00000000000E+00 0.  1.
         11    1    5    5    0    0  0.84134673167E+01  0.51720167502E+02  0.22036816351E+03  0.22651244921E+03  0.00000000000E+00 0. -1.
        -11    1    5    5    0    0 -0.25944847335E+02  0.12182608890E+03  0.16743786362E+03  0.20868677297E+03  0.00000000000E+00 0.  1.
          3    1    6    6  503    0 -0.13212817839E+03  0.37423655593E+03  0.16800389085E+02  0.39723180688E+03  0.00000000000E+00 0. -1.
         -3    1    6    6    0  503 -0.35945609757E+02  0.19394054714E+03 -0.47317346746E+02  0.20283972487E+03  0.00000000000E+00 0.  1.
<mgrwt>
<rscale>  0 0.76797848E+03</rscale>
<asrwt>0</asrwt>
<pdfrwt beam="1">  1        2 0.22948458E+00 0.76797848E+03</pdfrwt>
<pdfrwt beam="2">  1       -2 0.80833554E-01 0.76797848E+03</pdfrwt>
<totfact> 0.17705108E+01</totfact>
</mgrwt>
</event>
<event>
12    1  0.1335216E-007  0.1937967E+04  0.7818608E-02  0.8636185E-01
         -2   -1    0    0    0  501 -0.00000000000E+00  0.00000000000E+00  0.27976443753E+04  0.27976443753E+04  0.00000000000E+00 0.  1.
          2   -1    0    0  501    0  0.00000000000E+00 -0.00000000000E+00 -0.13551530841E+04  0.13551530841E+04  0.00000000000E+00 0. -1.
         23    2    1    2    0    0 -0.16002675131E+04  0.10213845316E+04  0.62722547643E+03  0.20015041578E+04  0.92328873605E+02 0.  0.
    5000000    2    1    2    0    0  0.16002675131E+04 -0.10213845316E+04  0.81526581470E+03  0.21512933016E+04  0.59943477223E+03 0.  0.
         23    2    4    4    0    0  0.14384318637E+04 -0.67114485986E+03  0.59927795691E+03  0.16991588436E+04  0.92114367915E+02 0.  0.
         23    2    4    4    0    0  0.16183564935E+03 -0.35023967171E+03  0.21598785779E+03  0.45213445797E+03  0.94425676214E+02 0.  0.
          1    1    3    3  502    0 -0.68746093504E+03  0.38798980595E+03  0.24433003722E+03  0.82633878876E+03  0.00000000000E+00 0. -1.
         -1    1    3    3    0  502 -0.91280657802E+03  0.63339472562E+03  0.38289543921E+03  0.11751653691E+04  0.00000000000E+00 0.  1.
         11    1    5    5    0    0  0.43631135582E+03 -0.16012352771E+03  0.15999228019E+03  0.49153298268E+03  0.00000000000E+00 0. -1.
        -11    1    5    5    0    0  0.10021205079E+04 -0.51102133215E+03  0.43928567673E+03  0.12076258609E+04  0.00000000000E+00 0.  1.
          3    1    6    6  503    0  0.13948585226E+03 -0.29840141011E+03  0.21908553089E+03  0.39559850149E+03  0.00000000000E+00 0. -1.
         -3    1    6    6    0  503  0.22349797098E+02 -0.51838261603E+02 -0.30976731048E+01  0.56535956479E+02  0.00000000000E+00 0.  1.
<mgrwt>
<rscale>  0 0.19379667E+04</rscale>
<asrwt>0</asrwt>
<pdfrwt beam="1">  1        2 0.20848509E+00 0.19379667E+04</pdfrwt>
<pdfrwt beam="2">  1       -2 0.43040683E+00 0.19379667E+04</pdfrwt>
<totfact> 0.64675275E-02</totfact>
</mgrwt>
</event>
<event>
12    1  0.1335216E-007  0.5635141E+03  0.7818608E-02  0.9984135E-01
          1   -1    0    0  501    0  0.00000000000E+00  0.00000000000E+00  0.12423719653E+04  0.12423719653E+04  0.00000000000E+00 0. -1.
         -1   -1    0    0    0  501 -0.00000000000E+00 -0.00000000000E+00 -0.74667077285E+03  0.74667077285E+03  0.00000000000E+00 0.  1.
         23    2    1    2    0    0  0.36786558788E+03 -0.17259712176E+03  0.10152021289E+04  0.10973627419E+04  0.91949809449E+02 0.  0.
    5000000    2    1    2    0    0 -0.36786558788E+03  0.17259712176E+03 -0.51950093645E+03  0.89167999632E+03  0.60008094093E+03 0.  0.
         23    2    4    4    0    0 -0.50588600770E+03  0.20293357165E+03 -0.36171210252E+03  0.66019666357E+03  0.89001697685E+02 0.  0.
         23    2    4    4    0    0  0.13802041982E+03 -0.30336449883E+02 -0.15778883393E+03  0.23148333275E+03  0.93366379106E+02 0.  0.
          1    1    3    3  502    0  0.21022431132E+03 -0.10777220471E+03  0.70342166092E+03  0.74203176632E+03  0.00000000000E+00 0. -1.
         -1    1    3    3    0  502  0.15764127657E+03 -0.64824917057E+02  0.31178046802E+03  0.35533097555E+03  0.00000000000E+00 0.  1.
         11    1    5    5    0    0 -0.20895132931E+03  0.41586656988E+02 -0.11799891714E+03  0.24354435429E+03  0.00000000000E+00 0.  1.
        -11    1    5    5    0    0 -0.29693467839E+03  0.16134691466E+03 -0.24371318538E+03  0.41665230928E+03  0.00000000000E+00 0. -1.
          3    1    6    6  503    0  0.35310385486E+02  0.33290450241E+02 -0.46942220392E+02  0.67517771407E+02  0.00000000000E+00 0. -1.
         -3    1    6    6    0  503  0.10271003433E+03 -0.63626900124E+02 -0.11084661354E+03  0.16396556134E+03  0.00000000000E+00 0.  1.
<mgrwt>
<rscale>  0 0.56351410E+03</rscale>
<asrwt>0</asrwt>
<pdfrwt beam="1">  1        1 0.19113415E+00 0.56351410E+03</pdfrwt>
<pdfrwt beam="2">  1       -1 0.11487243E+00 0.56351410E+03</pdfrwt>
<totfact> 0.73399140E+00</totfact>
</mgrwt>
</event>
<event>
12    1  0.1335216E-007  0.6171755E+03  0.7818608E-02  0.9870399E-01
         -2   -1    0    0    0  501 -0.00000000000E+00  0.00000000000E+00  0.18137349625E+03  0.18137349625E+03  0.00000000000E+00 0.  1.
          2   -1    0    0  501    0  0.00000000000E+00 -0.00000000000E+00 -0.26305809144E+04  0.26305809144E+04  0.00000000000E+00 0. -1.
         23    2    1    2    0    0  0.10752632762E+03 -0.53501846773E+03 -0.78215064296E+03  0.95818558901E+03  0.92484175704E+02 0.  0.
    5000000    2    1    2    0    0 -0.10752632762E+03  0.53501846773E+03 -0.16670567752E+04  0.18537688217E+04  0.59964479520E+03 0.  0.
         23    2    4    4    0    0 -0.19870562267E+03  0.78308187246E+02 -0.18383445654E+03  0.29647135071E+03  0.92108944768E+02 0.  0.
         23    2    4    4    0    0  0.91179295053E+02  0.45671028049E+03 -0.14832223187E+04  0.15572974709E+04  0.91263477225E+02 0.  0.
          3    1    3    3  502    0  0.17719342538E+02 -0.18420154143E+03 -0.33576827349E+03  0.38338559760E+03  0.00000000000E+00 0. -1.
         -3    1    3    3    0  502  0.89806985081E+02 -0.35081692630E+03 -0.44638236947E+03  0.57479999141E+03  0.00000000000E+00 0.  1.
         13    1    5    5    0    0 -0.78881749712E+02  0.41863604341E+01 -0.22210990965E+02  0.82055981932E+02  0.00000000000E+00 0.  1.
        -13    1    5    5    0    0 -0.11982387296E+03  0.74121826812E+02 -0.16162346558E+03  0.21441536878E+03  0.00000000000E+00 0. -1.
          3    1    6    6  503    0  0.58116989980E+02  0.36894240971E+03 -0.10620600520E+04  0.11258186533E+04  0.00000000000E+00 0. -1.
         -3    1    6    6    0  503  0.33062305074E+02  0.87767870774E+02 -0.42116226670E+03  0.43147881761E+03  0.00000000000E+00 0.  1.
<mgrwt>
<rscale>  0 0.61717550E+03</rscale>
<asrwt>0</asrwt>
<pdfrwt beam="1">  1        2 0.40470478E+00 0.61717550E+03</pdfrwt>
<pdfrwt beam="2">  1       -2 0.27903613E-01 0.61717550E+03</pdfrwt>
<totfact> 0.36564699E+01</totfact>
</mgrwt>
</event>
<event>
12    1  0.1335216E-007  0.3825383E+03  0.7818608E-02  0.1050000E+00
         -1   -1    0    0    0  501 -0.00000000000E+00  0.00000000000E+00  0.75957425727E+03  0.75957425727E+03  0.00000000000E+00 0.  1.
          1   -1    0    0  501    0  0.00000000000E+00 -0.00000000000E+00 -0.82351864002E+03  0.82351864002E+03  0.00000000000E+00 0. -1.
         23    2    1    2    0    0  0.33037039865E+03  0.92342194166E+01 -0.61473053119E+03  0.70410544060E+03  0.92956841532E+02 0.  0.
    5000000    2    1    2    0    0 -0.33037039865E+03 -0.92342194166E+01  0.55078614844E+03  0.87898745669E+03  0.60001974684E+03 0.  0.
         23    2    4    4    0    0 -0.73096358082E+02  0.10269450985E+03 -0.83578985851E+02  0.18058688138E+03  0.98675908569E+02 0.  0.
         23    2    4    4    0    0 -0.25727404057E+03 -0.11192872927E+03  0.63436513429E+03  0.69840057531E+03  0.81401889469E+02 0.  0.
          1    1    3    3  502    0  0.26750044677E+03 -0.25303408589E+02 -0.44483223253E+03  0.51968496861E+03  0.00000000000E+00 0. -1.
         -1    1    3    3    0  502  0.62869951883E+02  0.34537628006E+02 -0.16989829866E+03  0.18442047198E+03  0.00000000000E+00 0.  1.
         11    1    5    5    0    0 -0.51537313713E+02  0.10754680791E+03 -0.30506837731E+02  0.12309783810E+03  0.00000000000E+00 0. -1.
        -11    1    5    5    0    0 -0.21559044368E+02 -0.48522980653E+01 -0.53072148120E+02  0.57489043275E+02  0.00000000000E+00 0.  1.
          3    1    6    6  503    0 -0.67193732936E+02 -0.11027025557E+02  0.23596601919E+03  0.24559428994E+03  0.00000000000E+00 0. -1.
         -3    1    6    6    0  503 -0.19008030764E+03 -0.10090170371E+03  0.39839911510E+03  0.45280628537E+03  0.00000000000E+00 0.  1.
<mgrwt>
<rscale>  0 0.38253832E+03</rscale>
<asrwt>0</asrwt>
<pdfrwt beam="1">  1        1 0.12669518E+00 0.38253832E+03</pdfrwt>
<pdfrwt beam="2">  1       -1 0.11685758E+00 0.38253832E+03</pdfrwt>
<totfact> 0.15284364E+01</totfact>
</mgrwt>
</event>
<event>
12    1  0.1335216E-007  0.6949089E+03  0.7818608E-02  0.9725979E-01
          2   -1    0    0  501    0  0.00000000000E+00  0.00000000000E+00  0.15033392158E+04  0.15033392158E+04  0.00000000000E+00 0.  1.
         -2   -1    0    0    0  501 -0.00000000000E+00 -0.00000000000E+00 -0.36707099581E+03  0.36707099581E+03  0.00000000000E+00 0. -1.
         23    2    1    2    0    0  0.52242703831E+03  0.31026767068E+03  0.33733883472E+03  0.70100466116E+03  0.91727900456E+02 0.  0.
    5000000    2    1    2    0    0 -0.52242703831E+03 -0.31026767068E+03  0.79892938527E+03  0.11694055505E+04  0.60002095043E+03 0.  0.
         23    2    4    4    0    0 -0.52290038881E+02 -0.29197846579E+03  0.10873848610E+03  0.32861271967E+03  0.90424490701E+02 0.  0.
         23    2    4    4    0    0 -0.47013699943E+03 -0.18289204893E+02  0.69019089917E+03  0.84079283078E+03  0.95946931939E+02 0.  0.
          1    1    3    3  502    0  0.21140937761E+03  0.17085172731E+03  0.17677143022E+03  0.32424123150E+03  0.00000000000E+00 0. -1.
         -1    1    3    3    0  502  0.31101766070E+03  0.13941594337E+03  0.16056740450E+03  0.37676342965E+03  0.00000000000E+00 0.  1.
         11    1    5    5    0    0 -0.35014263108E+02 -0.15359962233E+03  0.10222032285E+02  0.15787125307E+03  0.00000000000E+00 0.  1.
        -11    1    5    5    0    0 -0.17275775773E+02 -0.13837884346E+03  0.98516453812E+02  0.17074146660E+03  0.00000000000E+00 0. -1.
          2    1    6    6  503    0 -0.37880369477E+03  0.23918984847E+02  0.54685105542E+03  0.66566540681E+03  0.00000000000E+00 0.  1.
         -2    1    6    6    0  503 -0.91333304661E+02 -0.42208189741E+02  0.14333984375E+03  0.17512742397E+03  0.00000000000E+00 0. -1.
<mgrwt>
<rscale>  0 0.69490888E+03</rscale>
<asrwt>0</asrwt>
<pdfrwt beam="1">  1        2 0.23128295E+00 0.69490888E+03</pdfrwt>
<pdfrwt beam="2">  1       -2 0.56472462E-01 0.69490888E+03</pdfrwt>
<totfact> 0.38270141E+01</totfact>
</mgrwt>
</event>
<event>
12    1  0.1335216E-007  0.9062722E+03  0.7818608E-02  0.9417775E-01
         -1   -1    0    0    0  501 -0.00000000000E+00  0.00000000000E+00  0.25231541403E+03  0.25231541403E+03  0.00000000000E+00 0.  1.
          1   -1    0    0  501    0  0.00000000000E+00 -0.00000000000E+00 -0.42974692406E+04  0.42974692406E+04  0.00000000000E+00 0. -1.
         23    2    1    2    0    0  0.59053771889E+03  0.64783019701E+03 -0.10448711985E+04  0.13669694126E+04  0.91819344866E+02 0.  0.
    5000000    2    1    2    0    0 -0.59053771889E+03 -0.64783019701E+03 -0.30002826281E+04  0.31828152420E+04  0.60016518947E+03 0.  0.
         23    2    4    4    0    0 -0.82570617451E+02 -0.30690692623E+03 -0.44748186116E+03  0.55626677003E+03  0.90459577330E+02 0.  0.
         23    2    4    4    0    0 -0.50796710143E+03 -0.34092327078E+03 -0.25528007670E+04  0.26265484720E+04  0.87783069356E+02 0.  0.
          3    1    3    3  502    0  0.30142544619E+03  0.32323057549E+03 -0.59750372274E+03  0.74319984071E+03  0.00000000000E+00 0. -1.
         -3    1    3    3    0  502  0.28911227269E+03  0.32459962151E+03 -0.44736747572E+03  0.62376957191E+03  0.00000000000E+00 0.  1.
         13    1    5    5    0    0 -0.12324519092E+02 -0.14819108707E+02 -0.76557210581E+02  0.78946223758E+02  0.00000000000E+00 0. -1.
        -13    1    5    5    0    0 -0.70246098359E+02 -0.29208781752E+03 -0.37092465058E+03  0.47732054627E+03  0.00000000000E+00 0.  1.
          3    1    6    6  503    0 -0.12044208371E+02 -0.26219303037E+02 -0.16964576606E+03  0.17208195939E+03  0.00000000000E+00 0. -1.
         -3    1    6    6    0  503 -0.49592289306E+03 -0.31470396774E+03 -0.23831550009E+04  0.24544665126E+04  0.00000000000E+00 0.  1.
<mgrwt>
<rscale>  0 0.90627218E+03</rscale>
<asrwt>0</asrwt>
<pdfrwt beam="1">  1        1 0.66114911E+00 0.90627218E+03</pdfrwt>
<pdfrwt beam="2">  1       -1 0.38817756E-01 0.90627218E+03</pdfrwt>
<totfact> 0.35681081E-01</totfact>
</mgrwt>
</event>
<event>
12    1  0.1335216E-007  0.4452702E+03  0.7818608E-02  0.1029142E+00
         -4   -1    0    0    0  501 -0.00000000000E+00  0.00000000000E+00  0.61980606068E+03  0.61980606068E+03  0.00000000000E+00 0.  1.
          4   -1    0    0  501    0  0.00000000000E+00 -0.00000000000E+00 -0.52599108540E+03  0.52599108540E+03  0.00000000000E+00 0. -1.
         23    2    1    2    0    0  0.12878423270E+03 -0.25803327844E+03 -0.25703345986E+03  0.39326790700E+03  0.73667467777E+02 0.  0.
    5000000    2    1    2    0    0 -0.12878423270E+03  0.25803327844E+03  0.35084843515E+03  0.75252923909E+03  0.60003256567E+03 0.  0.
         23    2    4    4    0    0  0.73876016447E+01 -0.15603096030E+03 -0.67995124322E+01  0.18123538530E+03  0.91650391639E+02 0.  0.
         23    2    4    4    0    0 -0.13617183435E+03  0.41406423873E+03  0.35764794758E+03  0.57129385379E+03  0.92047002661E+02 0.  0.
          1    1    3    3  502    0  0.70295300902E+02 -0.11441843185E+03 -0.16576909848E+03  0.21333635622E+03  0.00000000000E+00 0. -1.
         -1    1    3    3    0  502  0.58488931802E+02 -0.14361484659E+03 -0.91264361381E+02  0.17993155077E+03  0.00000000000E+00 0.  1.
         11    1    5    5    0    0 -0.72380448948E+01 -0.73109400543E+02  0.41284057822E+02  0.84271864652E+02  0.00000000000E+00 0. -1.
        -11    1    5    5    0    0  0.14625646540E+02 -0.82921559753E+02 -0.48083570255E+02  0.96963520651E+02  0.00000000000E+00 0.  1.
          2    1    6    6  503    0 -0.45196855065E+02  0.26543332502E+03  0.24304660701E+03  0.36272477021E+03  0.00000000000E+00 0. -1.
         -2    1    6    6    0  503 -0.90974979284E+02  0.14863091371E+03  0.11460134057E+03  0.20856908358E+03  0.00000000000E+00 0.  1.
<mgrwt>
<rscale>  0 0.44527024E+03</rscale>
<asrwt>0</asrwt>
<pdfrwt beam="1">  1        4 0.80921705E-01 0.44527024E+03</pdfrwt>
<pdfrwt beam="2">  1       -4 0.95354779E-01 0.44527024E+03</pdfrwt>
<totfact> 0.24258842E+00</totfact>
</mgrwt>
</event>
<event>
12    1  0.1335216E-007  0.8339734E+03  0.7818608E-02  0.9512103E-01
         -2   -1    0    0    0  501 -0.00000000000E+00  0.00000000000E+00  0.40326849164E+03  0.40326849164E+03  0.00000000000E+00 0.  1.
          2   -1    0    0  501    0  0.00000000000E+00 -0.00000000000E+00 -0.19601308440E+04  0.19601308440E+04  0.00000000000E+00 0. -1.
         23    2    1    2    0    0  0.32457661249E+03 -0.71107906872E+03 -0.79344367579E+03  0.11170066641E+04  0.84661688845E+02 0.  0.
    5000000    2    1    2    0    0 -0.32457661249E+03  0.71107906872E+03 -0.76341867654E+03  0.12463926716E+04  0.59975261289E+03 0.  0.
         23    2    4    4    0    0 -0.33631468004E+03  0.24662271141E+03 -0.11257803386E+03  0.44124182872E+03  0.89945605282E+02 0.  0.
         23    2    4    4    0    0  0.11738067551E+02  0.46445635731E+03 -0.65084064268E+03  0.80515084284E+03  0.93898069632E+02 0.  0.
          4    1    3    3  502    0  0.66363825093E+02 -0.17230013226E+03 -0.14086389554E+03  0.23223722769E+03  0.00000000000E+00 0. -1.
         -4    1    3    3    0  502  0.25821278740E+03 -0.53877893646E+03 -0.65257978025E+03  0.88476943637E+03  0.00000000000E+00 0.  1.
         13    1    5    5    0    0 -0.23527265177E+03  0.15174887625E+03 -0.11488372236E+03  0.30262057395E+03  0.00000000000E+00 0. -1.
        -13    1    5    5    0    0 -0.10104202827E+03  0.94873835153E+02  0.23056884977E+01  0.13862125477E+03  0.00000000000E+00 0.  1.
          4    1    6    6  503    0 -0.19006006270E+02  0.23630549253E+03 -0.26253571649E+03  0.35373226671E+03  0.00000000000E+00 0.  1.
         -4    1    6    6    0  503  0.30744073820E+02  0.22815086478E+03 -0.38830492619E+03  0.45141857613E+03  0.00000000000E+00 0. -1.
<mgrwt>
<rscale>  0 0.83397343E+03</rscale>
<asrwt>0</asrwt>
<pdfrwt beam="1">  1        2 0.30155860E+00 0.83397343E+03</pdfrwt>
<pdfrwt beam="2">  1       -2 0.62041306E-01 0.83397343E+03</pdfrwt>
<totfact> 0.17335840E+01</totfact>
</mgrwt>
</event>
<event>
12    1  0.1335216E-007  0.3227406E+03  0.7818608E-02  0.1074395E+00
         -2   -1    0    0    0  501 -0.00000000000E+00  0.00000000000E+00  0.11021898731E+03  0.11021898731E+03  0.00000000000E+00 0.  1.
          2   -1    0    0  501    0  0.00000000000E+00 -0.00000000000E+00 -0.15152945582E+04  0.15152945582E+04  0.00000000000E+00 0. -1.
         23    2    1    2    0    0  0.70790875937E+01  0.20792962009E+02 -0.66986120164E+03  0.67634471922E+03  0.90805776268E+02 0.  0.
    5000000    2    1    2    0    0 -0.70790875937E+01 -0.20792962009E+02 -0.73521436928E+03  0.94916882633E+03  0.59991568685E+03 0.  0.
         23    2    4    4    0    0  0.25429763164E+03 -0.13591163832E+03 -0.38124066559E+03  0.48547787378E+03  0.84882636227E+02 0.  0.
         23    2    4    4    0    0 -0.26137671923E+03  0.11511867632E+03 -0.35397370369E+03  0.46369095256E+03  0.90232020837E+02 0.  0.
          3    1    3    3  502    0 -0.17999503570E+02  0.15280514539E+02 -0.61823294300E+03  0.61868364134E+03  0.00000000000E+00 0. -1.
         -3    1    3    3    0  502  0.25078591164E+02  0.55124474696E+01 -0.51628258641E+02  0.57661077879E+02  0.00000000000E+00 0.  1.
         11    1    5    5    0    0  0.62615467974E+02 -0.11059930805E+01 -0.52246941069E+02  0.81557727416E+02  0.00000000000E+00 0. -1.
        -11    1    5    5    0    0  0.19168216367E+03 -0.13480564524E+03 -0.32899372453E+03  0.40392014636E+03  0.00000000000E+00 0.  1.
          4    1    6    6  503    0 -0.19668549779E+03  0.41116404587E+02 -0.22799177610E+03  0.30390128946E+03  0.00000000000E+00 0.  1.
         -4    1    6    6    0  503 -0.64691221448E+02  0.74002271729E+02 -0.12598192759E+03  0.15978966310E+03  0.00000000000E+00 0. -1.
<mgrwt>
<rscale>  0 0.32274058E+03</rscale>
<asrwt>0</asrwt>
<pdfrwt beam="1">  1        2 0.23312222E+00 0.32274058E+03</pdfrwt>
<pdfrwt beam="2">  1       -2 0.16956769E-01 0.32274058E+03</pdfrwt>
<totfact> 0.37233736E+02</totfact>
</mgrwt>
</event>
<event>
12    1  0.1335216E-007  0.1750426E+04  0.7818608E-02  0.8733116E-01
          2   -1    0    0  501    0  0.00000000000E+00  0.00000000000E+00  0.34828740733E+04  0.34828740733E+04  0.00000000000E+00 0. -1.
         -2   -1    0    0    0  501 -0.00000000000E+00 -0.00000000000E+00 -0.10326383187E+04  0.10326383187E+04  0.00000000000E+00 0.  1.
         23    2    1    2    0    0 -0.95992126103E+03 -0.14389805901E+04  0.42136993528E+03  0.17826990775E+04  0.91375119441E+02 0.  0.
    5000000    2    1    2    0    0  0.95992126103E+03  0.14389805901E+04  0.20288658193E+04  0.27328133145E+04  0.59988176618E+03 0.  0.
         23    2    4    4    0    0  0.73012321494E+03  0.76907705754E+03  0.88368269076E+03  0.13834177889E+04  0.91598314594E+02 0.  0.
         23    2    4    4    0    0  0.22979804609E+03  0.66990353253E+03  0.11451831286E+04  0.13493955257E+04  0.88577659989E+02 0.  0.
          3    1    3    3  502    0 -0.73468282327E+03 -0.11122202296E+04  0.28531686572E+03  0.13631575125E+04  0.00000000000E+00 0. -1.
         -3    1    3    3    0  502 -0.22523843776E+03 -0.32676036045E+03  0.13605306956E+03  0.41954156498E+03  0.00000000000E+00 0.  1.
         11    1    5    5    0    0  0.28800692009E+03  0.25498682029E+03  0.35763864562E+03  0.52523486688E+03  0.00000000000E+00 0. -1.
        -11    1    5    5    0    0  0.44211629485E+03  0.51409023724E+03  0.52604404514E+03  0.85818292201E+03  0.00000000000E+00 0.  1.
          4    1    6    6  503    0  0.19800883940E+03  0.56523221739E+03  0.10227965777E+04  0.11852458814E+04  0.00000000000E+00 0. -1.
         -4    1    6    6    0  503  0.31789206691E+02  0.10467131514E+03  0.12238655088E+03  0.16414964426E+03  0.00000000000E+00 0.  1.
<mgrwt>
<rscale>  0 0.17504264E+04</rscale>
<asrwt>0</asrwt>
<pdfrwt beam="1">  1        2 0.53582677E+00 0.17504264E+04</pdfrwt>
<pdfrwt beam="2">  1       -2 0.15886744E+00 0.17504264E+04</pdfrwt>
<totfact> 0.19832810E-01</totfact>
</mgrwt>
</event>
<event>
12    1  0.1335216E-007  0.1225925E+04  0.7818608E-02  0.9090462E-01
          2   -1    0    0  501    0  0.00000000000E+00  0.00000000000E+00  0.14173023112E+04  0.14173023112E+04  0.00000000000E+00 0. -1.
         -2   -1    0    0    0  501 -0.00000000000E+00 -0.00000000000E+00 -0.10695947762E+04  0.10695947762E+04  0.00000000000E+00 0.  1.
         23    2    1    2    0    0  0.89958046024E+03  0.72315527403E+03  0.95293226806E+02  0.11617860388E+04  0.92018726271E+02 0.  0.
    5000000    2    1    2    0    0 -0.89958046024E+03 -0.72315527403E+03  0.25241430820E+03  0.13251110486E+04  0.60000646109E+03 0.  0.
         23    2    4    4    0    0 -0.24815251587E+03  0.68231897091E+02  0.20991861272E+02  0.27086018337E+03  0.81788249655E+02 0.  0.
         23    2    4    4    0    0 -0.65142794437E+03 -0.79138717112E+03  0.23142244693E+03  0.10542508652E+04  0.85067717668E+02 0.  0.
          4    1    3    3  502    0  0.50319855675E+03  0.45248503244E+03  0.30006682399E+02  0.67738607388E+03  0.00000000000E+00 0. -1.
         -4    1    3    3    0  502  0.39638190350E+03  0.27067024159E+03  0.65286544407E+02  0.48439996489E+03  0.00000000000E+00 0.  1.
         13    1    5    5    0    0 -0.23599970202E+03  0.40838652228E+02  0.24172684922E+02  0.24072385334E+03  0.00000000000E+00 0. -1.
        -13    1    5    5    0    0 -0.12152813849E+02  0.27393244863E+02 -0.31808236506E+01  0.30136330030E+02  0.00000000000E+00 0.  1.
          3    1    6    6  503    0 -0.55110347304E+03 -0.64770902276E+03  0.22110648813E+03  0.87870933491E+03  0.00000000000E+00 0. -1.
         -3    1    6    6    0  503 -0.10032447133E+03 -0.14367814836E+03  0.10315958797E+02  0.17554153033E+03  0.00000000000E+00 0.  1.
<mgrwt>
<rscale>  0 0.12259255E+04</rscale>
<asrwt>0</asrwt>
<pdfrwt beam="1">  1        2 0.21804651E+00 0.12259255E+04</pdfrwt>
<pdfrwt beam="2">  1       -2 0.16455304E+00 0.12259255E+04</pdfrwt>
<totfact> 0.31962871E+00</totfact>
</mgrwt>
</event>
<event>
12    1  0.2475883E-007  0.1325255E+04  0.7818608E-02  0.9009774E-01
         -2   -1    0    0    0  501 -0.00000000000E+00  0.00000000000E+00  0.15179028273E+04  0.15179028273E+04  0.00000000000E+00 0. -1.
          2   -1    0    0  501    0  0.00000000000E+00 -0.00000000000E+00 -0.14288313037E+04  0.14288313037E+04  0.00000000000E+00 0.  1.
         23    2    1    2    0    0 -0.52594848763E+03  0.11590653460E+04  0.64973243401E+03  0.14320093475E+04  0.91892587045E+02 0.  0.
    5000000    2    1    2    0    0  0.52594848763E+03 -0.11590653460E+04 -0.56066091044E+03  0.15147247835E+04  0.59999685437E+03 0.  0.
         23    2    4    4    0    0 -0.34202230506E+02 -0.49930465254E+03 -0.62935824729E+02  0.51211356762E+03  0.88455974865E+02 0.  0.
         23    2    4    4    0    0  0.56015071814E+03 -0.65976069347E+03 -0.49772508571E+03  0.10026112159E+04  0.91902065047E+02 0.  0.
          3    1    3    3  502    0 -0.21312120967E+03  0.43897222629E+03  0.20132590005E+03  0.52787250686E+03  0.00000000000E+00 0. -1.
         -3    1    3    3    0  502 -0.31282727796E+03  0.72009311971E+03  0.44840653396E+03  0.90413684063E+03  0.00000000000E+00 0.  1.
         13    1    5    5    0    0 -0.60231685167E+02 -0.24151686113E+03 -0.38350513802E+02  0.25185117037E+03  0.00000000000E+00 0.  1.
        -13    1    5    5    0    0  0.26029454662E+02 -0.25778779141E+03 -0.24585310927E+02  0.26026239725E+03  0.00000000000E+00 0. -1.
          1    1    6    6  503    0  0.21128518686E+03 -0.31213732760E+03 -0.19291225309E+03  0.42342210483E+03  0.00000000000E+00 0. -1.
         -1    1    6    6    0  503  0.34886553128E+03 -0.34762336587E+03 -0.30481283262E+03  0.57918911104E+03  0.00000000000E+00 0.  1.
<mgrwt>
<rscale>  0 0.13252548E+04</rscale>
<asrwt>0</asrwt>
<pdfrwt beam="1">  1        2 0.21982020E+00 0.13252548E+04</pdfrwt>
<pdfrwt beam="2">  1       -2 0.23352351E+00 0.13252548E+04</pdfrwt>
<totfact> 0.10843168E+00</totfact>
</mgrwt>
</event>
<event>
12    1  0.1335216E-007  0.9514723E+03  0.7818608E-02  0.9363431E-01
         -3   -1    0    0    0  501 -0.00000000000E+00  0.00000000000E+00  0.15455542064E+04  0.15455542064E+04  0.00000000000E+00 0.  1.
          3   -1    0    0  501    0  0.00000000000E+00 -0.00000000000E+00 -0.70369055460E+03  0.70369055460E+03  0.00000000000E+00 0. -1.
         23    2    1    2    0    0  0.25753900234E+03  0.88453395818E+03  0.65235748507E+03  0.11325590038E+04  0.91613033000E+02 0.  0.
    5000000    2    1    2    0    0 -0.25753900234E+03 -0.88453395818E+03  0.18950616670E+03  0.11166857572E+04  0.60195334718E+03 0.  0.
         23    2    4    4    0    0 -0.14240774469E+03 -0.78109780813E+03  0.35089648250E+03  0.87286532019E+03  0.91497399641E+02 0.  0.
         23    2    4    4    0    0 -0.11513125765E+03 -0.10343615005E+03 -0.16139031580E+03  0.24382043700E+03  0.97197365391E+02 0.  0.
          2    1    3    3  502    0  0.97571371375E+02  0.30738347510E+03  0.17662501018E+03  0.36769711380E+03  0.00000000000E+00 0.  1.
         -2    1    3    3    0  502  0.15996763097E+03  0.57715048308E+03  0.47573247489E+03  0.76486188997E+03  0.00000000000E+00 0. -1.
         13    1    5    5    0    0 -0.41914722874E+02 -0.47131276018E+03  0.22100282445E+03  0.52224018451E+03  0.00000000000E+00 0. -1.
        -13    1    5    5    0    0 -0.10049302182E+03 -0.30978504795E+03  0.12989365806E+03  0.35062513568E+03  0.00000000000E+00 0.  1.
          3    1    6    6  503    0 -0.42444970026E+02  0.13899106524E+02 -0.42458660860E+02  0.61623847046E+02  0.00000000000E+00 0. -1.
         -3    1    6    6    0  503 -0.72686287624E+02 -0.11733525657E+03 -0.11893165494E+03  0.18219658995E+03  0.00000000000E+00 0.  1.
<mgrwt>
<rscale>  0 0.95147231E+03</rscale>
<asrwt>0</asrwt>
<pdfrwt beam="1">  1        3 0.10826009E+00 0.95147231E+03</pdfrwt>
<pdfrwt beam="2">  1       -3 0.23777757E+00 0.95147231E+03</pdfrwt>
<totfact> 0.16014783E-01</totfact>
</mgrwt>
</event>
<event>
12    1  0.1335216E-007  0.7804539E+03  0.7818608E-02  0.9588748E-01
          2   -1    0    0  501    0  0.00000000000E+00  0.00000000000E+00  0.25237145397E+04  0.25237145397E+04  0.00000000000E+00 0. -1.
         -2   -1    0    0    0  501 -0.00000000000E+00 -0.00000000000E+00 -0.28919360908E+03  0.28919360908E+03  0.00000000000E+00 0.  1.
         23    2    1    2    0    0  0.20779039129E+03  0.65659421632E+03  0.51124245596E+03  0.86258250052E+03  0.91580073193E+02 0.  0.
    5000000    2    1    2    0    0 -0.20779039129E+03 -0.65659421632E+03  0.17232784747E+04  0.19503256483E+04  0.59982382531E+03 0.  0.
         23    2    4    4    0    0 -0.36767933691E+03 -0.30248801528E+03  0.69252679721E+03  0.84503890376E+03  0.88375844237E+02 0.  0.
         23    2    4    4    0    0  0.15988894562E+03 -0.35410620104E+03  0.10307516775E+04  0.11052867445E+04  0.90852024995E+02 0.  0.
          3    1    3    3  502    0  0.16647357038E+03  0.38309522649E+03  0.32264653618E+03  0.52780317307E+03  0.00000000000E+00 0. -1.
         -3    1    3    3    0  502  0.41316820908E+02  0.27349898983E+03  0.18859591978E+03  0.33477932745E+03  0.00000000000E+00 0.  1.
         13    1    5    5    0    0 -0.30467573697E+03 -0.25524022256E+03  0.51265800105E+03  0.64868567269E+03  0.00000000000E+00 0. -1.
        -13    1    5    5    0    0 -0.63003599940E+02 -0.47247792719E+02  0.17986879616E+03  0.19635323108E+03  0.00000000000E+00 0.  1.
          2    1    6    6  503    0  0.90430220075E+02 -0.15418445016E+03  0.58766520534E+03  0.61424820955E+03  0.00000000000E+00 0. -1.
         -2    1    6    6    0  503  0.69458725545E+02 -0.19992175089E+03  0.44308647211E+03  0.49103853495E+03  0.00000000000E+00 0.  1.
<mgrwt>
<rscale>  0 0.78045393E+03</rscale>
<asrwt>0</asrwt>
<pdfrwt beam="1">  1        2 0.38826376E+00 0.78045393E+03</pdfrwt>
<pdfrwt beam="2">  1       -2 0.44491326E-01 0.78045393E+03</pdfrwt>
<totfact> 0.16840930E+01</totfact>
</mgrwt>
</event>
<event>
12    1  0.1335216E-007  0.8996300E+03  0.7818608E-02  0.9426044E-01
          1   -1    0    0  501    0  0.00000000000E+00  0.00000000000E+00  0.16782700388E+04  0.16782700388E+04  0.00000000000E+00 0. -1.
         -1   -1    0    0    0  501 -0.00000000000E+00 -0.00000000000E+00 -0.58562927172E+03  0.58562927172E+03  0.00000000000E+00 0.  1.
         23    2    1    2    0    0 -0.30882876646E+03 -0.74939243763E+03  0.93720742635E+03  0.12435601052E+04  0.10545019078E+03 0.  0.
    5000000    2    1    2    0    0  0.30882876646E+03  0.74939243763E+03  0.15543334072E+03  0.10203392053E+04  0.59997361429E+03 0.  0.
         23    2    4    4    0    0  0.19381300284E+03  0.82074946548E+03  0.15803779097E+03  0.86289126517E+03  0.91718193263E+02 0.  0.
         23    2    4    4    0    0  0.11501576362E+03 -0.71357027855E+02 -0.26044502518E+01  0.15744794010E+03  0.80390418430E+02 0.  0.
          4    1    3    3  502    0 -0.13387144784E+03 -0.40981194532E+03  0.43348865629E+03  0.61137534314E+03  0.00000000000E+00 0. -1.
         -4    1    3    3    0  502 -0.17495731862E+03 -0.33958049230E+03  0.50371877007E+03  0.63218476208E+03  0.00000000000E+00 0.  1.
         11    1    5    5    0    0  0.21567022787E+02  0.22402528128E+02  0.39454993198E+00  0.31099283080E+02  0.00000000000E+00 0.  1.
        -11    1    5    5    0    0  0.17224598005E+03  0.79834693735E+03  0.15764324104E+03  0.83179198209E+03  0.00000000000E+00 0. -1.
          1    1    6    6  503    0  0.32801517719E+02 -0.36357853819E+02 -0.37339784439E+02  0.61579969154E+02  0.00000000000E+00 0. -1.
         -1    1    6    6    0  503  0.82214245905E+02 -0.34999174036E+02  0.34735334187E+02  0.95867970950E+02  0.00000000000E+00 0.  1.
<mgrwt>
<rscale>  0 0.89962999E+03</rscale>
<asrwt>0</asrwt>
<pdfrwt beam="1">  1        1 0.25819539E+00 0.89962999E+03</pdfrwt>
<pdfrwt beam="2">  1       -1 0.90096812E-01 0.89962999E+03</pdfrwt>
<totfact> 0.60647946E+00</totfact>
</mgrwt>
</event>
<event>
12    1  0.1335216E-007  0.1359581E+04  0.7818608E-02  0.8983607E-01
          2   -1    0    0  501    0  0.00000000000E+00  0.00000000000E+00  0.27648835594E+04  0.27648835594E+04  0.00000000000E+00 0. -1.
         -2   -1    0    0    0  501 -0.00000000000E+00 -0.00000000000E+00 -0.73290335568E+03  0.73290335568E+03  0.00000000000E+00 0.  1.
         23    2    1    2    0    0 -0.13331030342E+04  0.24104865535E+03  0.84894147748E+03  0.16012100291E+04  0.88903156306E+02 0.  0.
    5000000    2    1    2    0    0  0.13331030342E+04 -0.24104865535E+03  0.11830387263E+04  0.18965768860E+04  0.60179323899E+03 0.  0.
         23    2    4    4    0    0  0.11065848253E+04 -0.20562553778E+03  0.12021612245E+04  0.16491110514E+04  0.86970183334E+02 0.  0.
         23    2    4    4    0    0  0.22651820888E+03 -0.35423117574E+02 -0.19122498201E+02  0.24746583458E+03  0.91150277734E+02 0.  0.
          1    1    3    3  502    0 -0.92037191008E+02  0.10304263353E+01  0.39270467813E+02  0.10007035500E+03  0.00000000000E+00 0. -1.
         -1    1    3    3    0  502 -0.12410658432E+04  0.24001822901E+03  0.80967100966E+03  0.15011396741E+04  0.00000000000E+00 0.  1.
         13    1    5    5    0    0  0.23465121040E+03 -0.25139982757E+02  0.29782040123E+03  0.37998710592E+03  0.00000000000E+00 0.  1.
        -13    1    5    5    0    0  0.87193361491E+03 -0.18048555502E+03  0.90434082326E+03  0.12691239455E+04  0.00000000000E+00 0. -1.
          1    1    6    6  503    0  0.16009665862E+03  0.25876465210E+01  0.20266934814E+02  0.16139511970E+03  0.00000000000E+00 0. -1.
         -1    1    6    6    0  503  0.66421550268E+02 -0.38010764095E+02 -0.39389433015E+02  0.86070714882E+02  0.00000000000E+00 0.  1.
<mgrwt>
<rscale>  0 0.13595815E+04</rscale>
<asrwt>0</asrwt>
<pdfrwt beam="1">  1        2 0.42536670E+00 0.13595815E+04</pdfrwt>
<pdfrwt beam="2">  1       -2 0.11275436E+00 0.13595815E+04</pdfrwt>
<totfact> 0.14521720E+00</totfact>
</mgrwt>
</event>
<event>
12    1  0.1335216E-007  0.9483959E+03  0.7818608E-02  0.9367027E-01
          1   -1    0    0  501    0  0.00000000000E+00  0.00000000000E+00  0.22565992441E+04  0.22565992441E+04  0.00000000000E+00 0. -1.
         -1   -1    0    0    0  501 -0.00000000000E+00 -0.00000000000E+00 -0.49054223369E+03  0.49054223369E+03  0.00000000000E+00 0.  1.
         23    2    1    2    0    0  0.62970162454E+03  0.68574151618E+03  0.11403503467E+04  0.14750564015E+04  0.92881167156E+02 0.  0.
    5000000    2    1    2    0    0 -0.62970162454E+03 -0.68574151618E+03  0.62570666363E+03  0.12720850763E+04  0.59993837137E+03 0.  0.
         23    2    4    4    0    0 -0.52905479303E+03 -0.64628924616E+03  0.25949974358E+03  0.87953561495E+03  0.93026970873E+02 0.  0.
         23    2    4    4    0    0 -0.10064683151E+03 -0.39452270019E+02  0.36620692005E+03  0.39254946134E+03  0.91111497626E+02 0.  0.
          2    1    3    3  502    0  0.54566285875E+03  0.55689678976E+03  0.98764348438E+03  0.12583010936E+04  0.00000000000E+00 0.  1.
         -2    1    3    3    0  502  0.84038765787E+02  0.12884472643E+03  0.15270686237E+03  0.21675530789E+03  0.00000000000E+00 0. -1.
         13    1    5    5    0    0 -0.36591575083E+03 -0.37590076098E+03  0.16193764338E+03  0.54901686601E+03  0.00000000000E+00 0.  1.
        -13    1    5    5    0    0 -0.16313904220E+03 -0.27038848518E+03  0.97562100197E+02  0.33051874894E+03  0.00000000000E+00 0. -1.
          2    1    6    6  503    0 -0.99625064260E+02 -0.50585493275E+02  0.22814688296E+03  0.25403748889E+03  0.00000000000E+00 0. -1.
         -2    1    6    6    0  503 -0.10217672475E+01  0.11133223256E+02  0.13806003709E+03  0.13851197245E+03  0.00000000000E+00 0.  1.
<mgrwt>
<rscale>  0 0.94839590E+03</rscale>
<asrwt>0</asrwt>
<pdfrwt beam="1">  1        1 0.34716911E+00 0.94839590E+03</pdfrwt>
<pdfrwt beam="2">  1       -1 0.75468038E-01 0.94839590E+03</pdfrwt>
<totfact> 0.35958648E+00</totfact>
</mgrwt>
</event>
<event>
12    1  0.1335216E-007  0.1886801E+04  0.7818608E-02  0.8661454E-01
          1   -1    0    0  501    0  0.00000000000E+00  0.00000000000E+00  0.26458455920E+04  0.26458455920E+04  0.00000000000E+00 0. -1.
         -1   -1    0    0    0  501 -0.00000000000E+00 -0.00000000000E+00 -0.19568533772E+04  0.19568533772E+04  0.00000000000E+00 0.  1.
         23    2    1    2    0    0 -0.17325207400E+04 -0.68872542499E+03  0.15851323892E+04  0.24488802472E+04  0.91645776283E+02 0.  0.
    5000000    2    1    2    0    0  0.17325207400E+04  0.68872542499E+03 -0.89614017441E+03  0.21538187220E+04  0.59991420197E+03 0.  0.
         23    2    4    4    0    0  0.86663490347E+03  0.14383291447E+03 -0.65290167341E+03  0.10982066636E+04  0.89628777118E+02 0.  0.
         23    2    4    4    0    0  0.86588583650E+03  0.54489251051E+03 -0.24323850100E+03  0.10556120584E+04  0.92117965748E+02 0.  0.
          2    1    3    3  502    0 -0.60395731620E+03 -0.21971795966E+03  0.59823845243E+03  0.87802600620E+03  0.00000000000E+00 0. -1.
         -2    1    3    3    0  502 -0.11285634238E+04 -0.46900746533E+03  0.98689393679E+03  0.15708542410E+04  0.00000000000E+00 0.  1.
         11    1    5    5    0    0  0.42722994346E+03  0.10872505010E+03 -0.35734307863E+03  0.56748624385E+03  0.00000000000E+00 0.  1.
        -11    1    5    5    0    0  0.43940496001E+03  0.35107864371E+02 -0.29555859478E+03  0.53072041978E+03  0.00000000000E+00 0. -1.
          1    1    6    6  503    0  0.26663919489E+03  0.11919877725E+03 -0.63343318246E+02  0.29885980780E+03  0.00000000000E+00 0. -1.
         -1    1    6    6    0  503  0.59924664161E+03  0.42569373327E+03 -0.17989518275E+03  0.75675225061E+03  0.00000000000E+00 0.  1.
<mgrwt>
<rscale>  0 0.18868014E+04</rscale>
<asrwt>0</asrwt>
<pdfrwt beam="1">  1        1 0.40705317E+00 0.18868014E+04</pdfrwt>
<pdfrwt beam="2">  1       -1 0.30105437E+00 0.18868014E+04</pdfrwt>
<totfact> 0.31284183E-02</totfact>
</mgrwt>
</event>
<event>
12    1  0.1335216E-007  0.6340653E+03  0.7818608E-02  0.9837148E-01
          1   -1    0    0  501    0  0.00000000000E+00  0.00000000000E+00  0.13028825757E+04  0.13028825757E+04  0.00000000000E+00 0. -1.
         -1   -1    0    0    0  501 -0.00000000000E+00 -0.00000000000E+00 -0.34283394932E+03  0.34283394932E+03  0.00000000000E+00 0.  1.
         23    2    1    2    0    0  0.23047404783E+03 -0.45102975081E+03  0.56987638985E+03  0.76891867603E+03  0.99652936718E+02 0.  0.
    5000000    2    1    2    0    0 -0.23047404783E+03  0.45102975081E+03  0.39017223654E+03  0.87679784899E+03  0.59999497580E+03 0.  0.
         23    2    4    4    0    0 -0.40951475004E+03  0.33908025813E+03  0.34914512487E+03  0.64282020398E+03  0.92939466671E+02 0.  0.
         23    2    4    4    0    0  0.17904070220E+03  0.11194949268E+03  0.41027111663E+02  0.23397764501E+03  0.92054617038E+02 0.  0.
          3    1    3    3  502    0  0.17332241422E+03 -0.39079423737E+03  0.43064758234E+03  0.60680980168E+03  0.00000000000E+00 0. -1.
         -3    1    3    3    0  502  0.57151633610E+02 -0.60235513441E+02  0.13922880750E+03  0.16210887435E+03  0.00000000000E+00 0.  1.
         11    1    5    5    0    0 -0.27922847922E+03  0.22369255715E+03  0.28470995067E+03  0.45723807775E+03  0.00000000000E+00 0.  1.
        -11    1    5    5    0    0 -0.13028627081E+03  0.11538770098E+03  0.64435174203E+02  0.18558212623E+03  0.00000000000E+00 0. -1.
          3    1    6    6  503    0  0.79116552182E+02  0.96299763480E+02  0.45652039193E+02  0.13272973276E+03  0.00000000000E+00 0. -1.
         -3    1    6    6    0  503  0.99924150021E+02  0.15649729199E+02 -0.46249275299E+01  0.10124791226E+03  0.00000000000E+00 0.  1.
<mgrwt>
<rscale>  0 0.63406529E+03</rscale>
<asrwt>0</asrwt>
<pdfrwt beam="1">  1        1 0.20044347E+00 0.63406529E+03</pdfrwt>
<pdfrwt beam="2">  1       -1 0.52743685E-01 0.63406529E+03</pdfrwt>
<totfact> 0.34060163E+01</totfact>
</mgrwt>
</event>
<event>
12    1  0.1335216E-007  0.1233615E+04  0.7818608E-02  0.9083932E-01
          1   -1    0    0  501    0  0.00000000000E+00  0.00000000000E+00  0.27318106917E+04  0.27318106917E+04  0.00000000000E+00 0. -1.
         -1   -1    0    0    0  501 -0.00000000000E+00 -0.00000000000E+00 -0.57982654241E+03  0.57982654241E+03  0.00000000000E+00 0.  1.
         23    2    1    2    0    0 -0.11691059482E+04 -0.28831836334E+02  0.12693292896E+04  0.17283225938E+04  0.90896369713E+02 0.  0.
    5000000    2    1    2    0    0  0.11691059482E+04  0.28831836334E+02  0.88265485971E+03  0.15833146403E+04  0.60013803064E+03 0.  0.
         23    2    4    4    0    0  0.10382501533E+04 -0.17348565325E+03  0.70499569066E+03  0.12702602080E+04  0.92094622293E+02 0.  0.
         23    2    4    4    0    0  0.13085579489E+03  0.20231748958E+03  0.17765916905E+03  0.31305443227E+03  0.91567961474E+02 0.  0.
          1    1    3    3  502    0 -0.26859006633E+03 -0.30722319982E+02  0.33821273514E+03  0.43298076042E+03  0.00000000000E+00 0. -1.
         -1    1    3    3    0  502 -0.90051588188E+03  0.18904836478E+01  0.93111655442E+03  0.12953418334E+04  0.00000000000E+00 0.  1.
         11    1    5    5    0    0  0.79296253316E+03 -0.15714417835E+03  0.57632253717E+03  0.99278977565E+03  0.00000000000E+00 0.  1.
        -11    1    5    5    0    0  0.24528762017E+03 -0.16341474899E+02  0.12867315349E+03  0.27747043237E+03  0.00000000000E+00 0. -1.
          2    1    6    6  503    0  0.75773699008E+02  0.94903632697E+02  0.35432227839E+02  0.12650610946E+03  0.00000000000E+00 0. -1.
         -2    1    6    6    0  503  0.55082095883E+02  0.10741385688E+03  0.14222694121E+03  0.18654832281E+03  0.00000000000E+00 0.  1.
<mgrwt>
<rscale>  0 0.12336153E+04</rscale>
<asrwt>0</asrwt>
<pdfrwt beam="1">  1        1 0.42027856E+00 0.12336153E+04</pdfrwt>
<pdfrwt beam="2">  1       -1 0.89204085E-01 0.12336153E+04</pdfrwt>
<totfact> 0.11355987E+00</totfact>
</mgrwt>
</event>
<event>
12    1  0.1335216E-007  0.1329094E+04  0.7818608E-02  0.9006807E-01
         -2   -1    0    0    0  501 -0.00000000000E+00  0.00000000000E+00  0.88905713169E+03  0.88905713169E+03  0.00000000000E+00 0.  1.
          2   -1    0    0  501    0  0.00000000000E+00 -0.00000000000E+00 -0.22112374310E+04  0.22112374310E+04  0.00000000000E+00 0. -1.
         23    2    1    2    0    0 -0.61892817367E+03 -0.11150812046E+04 -0.19019014155E+03  0.12925933587E+04  0.90261419971E+02 0.  0.
    5000000    2    1    2    0    0  0.61892817367E+03  0.11150812046E+04 -0.11319901578E+04  0.18077012040E+04  0.59991978507E+03 0.  0.
         23    2    4    4    0    0  0.50788360073E+03  0.11460831714E+04 -0.96181899415E+03  0.15826157901E+04  0.90136419290E+02 0.  0.
         23    2    4    4    0    0  0.11104457294E+03 -0.31001966730E+02 -0.17017116363E+03  0.22508541387E+03  0.91723494714E+02 0.  0.
          1    1    3    3  502    0 -0.15336038866E+03 -0.30240924912E+03 -0.88999328388E+02  0.35055904384E+03  0.00000000000E+00 0. -1.
         -1    1    3    3    0  502 -0.46556778501E+03 -0.81267195552E+03 -0.10119081316E+03  0.94203431487E+03  0.00000000000E+00 0.  1.
         13    1    5    5    0    0  0.32726415998E+03  0.64160100039E+03 -0.52483569355E+03  0.89118246130E+03  0.00000000000E+00 0. -1.
        -13    1    5    5    0    0  0.18061944075E+03  0.50448217098E+03 -0.43698330061E+03  0.69143332883E+03  0.00000000000E+00 0.  1.
          1    1    6    6  503    0  0.22164450311E+02 -0.30324021610E+02 -0.11378948693E+03  0.11982844604E+03  0.00000000000E+00 0.  1.
         -1    1    6    6    0  503  0.88880122633E+02 -0.67794512041E+00 -0.56381676703E+02  0.10525696783E+03  0.00000000000E+00 0. -1.
<mgrwt>
<rscale>  0 0.13290936E+04</rscale>
<asrwt>0</asrwt>
<pdfrwt beam="1">  1        2 0.34019037E+00 0.13290936E+04</pdfrwt>
<pdfrwt beam="2">  1       -2 0.13677802E+00 0.13290936E+04</pdfrwt>
<totfact> 0.18682717E+00</totfact>
</mgrwt>
</event>
<event>
12    1  0.1335216E-007  0.5865822E+03  0.7818608E-02  0.9933641E-01
          2   -1    0    0  501    0  0.00000000000E+00  0.00000000000E+00  0.40455693819E+03  0.40455693819E+03  0.00000000000E+00 0.  1.
         -2   -1    0    0    0  501 -0.00000000000E+00 -0.00000000000E+00 -0.12125361358E+04  0.12125361358E+04  0.00000000000E+00 0. -1.
         23    2    1    2    0    0  0.41250115157E+03  0.15656890868E+03 -0.74370340170E+03  0.86972219057E+03  0.93010299717E+02 0.  0.
    5000000    2    1    2    0    0 -0.41250115157E+03 -0.15656890868E+03 -0.64275795944E+02  0.74737088345E+03  0.59980066378E+03 0.  0.
         23    2    4    4    0    0  0.13495622244E+03 -0.56915103758E+02 -0.60550605318E+02  0.18308755917E+03  0.91663337871E+02 0.  0.
         23    2    4    4    0    0 -0.54745737401E+03 -0.99653804926E+02 -0.37251906262E+01  0.56428332428E+03  0.93602007533E+02 0.  0.
          3    1    3    3  502    0  0.11570462783E+03  0.67459521669E+02 -0.15829470012E+03  0.20735370759E+03  0.00000000000E+00 0. -1.
         -3    1    3    3    0  502  0.29679652374E+03  0.89109387016E+02 -0.58540870158E+03  0.66236848298E+03  0.00000000000E+00 0.  1.
         11    1    5    5    0    0  0.76433390321E+02  0.17205261675E+02 -0.27468906757E+02  0.83021834620E+02  0.00000000000E+00 0. -1.
        -11    1    5    5    0    0  0.58522832116E+02 -0.74120365433E+02 -0.33081698561E+02  0.10006572455E+03  0.00000000000E+00 0.  1.
          1    1    6    6  503    0 -0.14859503494E+03 -0.22126624342E+02  0.40391267372E+02  0.15556839780E+03  0.00000000000E+00 0. -1.
         -1    1    6    6    0  503 -0.39886233907E+03 -0.77527180585E+02 -0.44116457998E+02  0.40871492647E+03  0.00000000000E+00 0.  1.
<mgrwt>
<rscale>  0 0.58658224E+03</rscale>
<asrwt>0</asrwt>
<pdfrwt beam="1">  1        2 0.62239531E-01 0.58658224E+03</pdfrwt>
<pdfrwt beam="2">  1       -2 0.18654402E+00 0.58658224E+03</pdfrwt>
<totfact> 0.13285885E+01</totfact>
</mgrwt>
</event>
<event>
12    1  0.1335216E-007  0.7456834E+03  0.7818608E-02  0.9642147E-01
          2   -1    0    0  501    0  0.00000000000E+00  0.00000000000E+00  0.15510482091E+04  0.15510482091E+04  0.00000000000E+00 0.  1.
         -2   -1    0    0    0  501 -0.00000000000E+00 -0.00000000000E+00 -0.45858487026E+03  0.45858487026E+03  0.00000000000E+00 0. -1.
         23    2    1    2    0    0 -0.61486161701E+03 -0.11692837813E+03  0.22419175756E+02  0.63240981654E+03  0.87820857083E+02 0.  0.
    5000000    2    1    2    0    0  0.61486161701E+03  0.11692837813E+03  0.10700441630E+04  0.13772232628E+04  0.60001862552E+03 0.  0.
         23    2    4    4    0    0  0.37355004093E+03  0.34510928316E+03  0.56850074466E+03  0.76825537202E+03  0.91559650289E+02 0.  0.
         23    2    4    4    0    0  0.24131157607E+03 -0.22818090502E+03  0.50154341838E+03  0.60896789075E+03  0.94859313070E+02 0.  0.
          4    1    3    3  502    0 -0.29729776367E+03 -0.10110344897E+03  0.77881197865E+01  0.31411546044E+03  0.00000000000E+00 0. -1.
         -4    1    3    3    0  502 -0.31756385333E+03 -0.15824929159E+02  0.14631055970E+02  0.31829435610E+03  0.00000000000E+00 0.  1.
         11    1    5    5    0    0  0.27005436726E+03  0.29741601069E+03  0.42181403489E+03  0.58250555767E+03  0.00000000000E+00 0.  1.
        -11    1    5    5    0    0  0.10349567367E+03  0.47693272468E+02  0.14668670977E+03  0.18574981435E+03  0.00000000000E+00 0. -1.
          3    1    6    6  503    0  0.15151753835E+03 -0.82359587332E+02  0.28169934637E+03  0.33029560669E+03  0.00000000000E+00 0. -1.
         -3    1    6    6    0  503  0.89794037719E+02 -0.14582131769E+03  0.21984407202E+03  0.27867228406E+03  0.00000000000E+00 0.  1.
<mgrwt>
<rscale>  0 0.74568343E+03</rscale>
<asrwt>0</asrwt>
<pdfrwt beam="1">  1        2 0.23862280E+00 0.74568343E+03</pdfrwt>
<pdfrwt beam="2">  1       -2 0.70551519E-01 0.74568343E+03</pdfrwt>
<totfact> 0.22256489E+01</totfact>
</mgrwt>
</event>
<event>
12    1  0.1335216E-007  0.1131165E+04  0.7818608E-02  0.9175338E-01
          2   -1    0    0  501    0  0.00000000000E+00  0.00000000000E+00  0.15099628924E+04  0.15099628924E+04  0.00000000000E+00 0. -1.
         -2   -1    0    0    0  501 -0.00000000000E+00 -0.00000000000E+00 -0.89442387889E+03  0.89442387889E+03  0.00000000000E+00 0.  1.
         23    2    1    2    0    0 -0.90220963393E+03 -0.56023269365E+03  0.70333132014E+02  0.10681106477E+04  0.89837139380E+02 0.  0.
    5000000    2    1    2    0    0  0.90220963393E+03  0.56023269365E+03  0.54520588148E+03  0.13362761236E+04  0.60045110606E+03 0.  0.
         23    2    4    4    0    0  0.98140075417E+02  0.34985333926E+03  0.94010430708E+02  0.38634914865E+03  0.91645350053E+02 0.  0.
         23    2    4    4    0    0  0.80406955851E+03  0.21037935439E+03  0.45119545078E+03  0.94992697497E+03  0.89423684215E+02 0.  0.
          3    1    3    3  502    0 -0.80054036122E+03 -0.52771950067E+03  0.69825248987E+02  0.96136793514E+03  0.00000000000E+00 0. -1.
         -3    1    3    3    0  502 -0.10166927271E+03 -0.32513192974E+02  0.50788302643E+00  0.10674271252E+03  0.00000000000E+00 0.  1.
         11    1    5    5    0    0  0.28782417103E+02  0.11127829891E+03 -0.13310660349E+02  0.11570851749E+03  0.00000000000E+00 0. -1.
        -11    1    5    5    0    0  0.69357658314E+02  0.23857504035E+03  0.10732109106E+03  0.27064063116E+03  0.00000000000E+00 0.  1.
          3    1    6    6  503    0  0.21106183153E+03  0.27781759110E+02  0.83462470411E+02  0.22865893124E+03  0.00000000000E+00 0. -1.
         -3    1    6    6    0  503  0.59300772698E+03  0.18259759528E+03  0.36773298037E+03  0.72126804373E+03  0.00000000000E+00 0.  1.
<mgrwt>
<rscale>  0 0.11311646E+04</rscale>
<asrwt>0</asrwt>
<pdfrwt beam="1">  1        2 0.23230198E+00 0.11311646E+04</pdfrwt>
<pdfrwt beam="2">  1       -2 0.13760367E+00 0.11311646E+04</pdfrwt>
<totfact> 0.46103164E+00</totfact>
</mgrwt>
</event>
<event>
12    1  0.1335216E-007  0.5694581E+03  0.7818608E-02  0.9970878E-01
          1   -1    0    0  501    0  0.00000000000E+00  0.00000000000E+00  0.12945083287E+04  0.12945083287E+04  0.00000000000E+00 0. -1.
         -1   -1    0    0    0  501 -0.00000000000E+00 -0.00000000000E+00 -0.32784582741E+03  0.32784582741E+03  0.00000000000E+00 0.  1.
         23    2    1    2    0    0 -0.49882941633E+03 -0.86394561819E+02  0.33804839730E+03  0.61673853115E+03  0.98969136504E+02 0.  0.
    5000000    2    1    2    0    0  0.49882941633E+03  0.86394561819E+02  0.62861410395E+03  0.10056156249E+04  0.59984355169E+03 0.  0.
         23    2    4    4    0    0 -0.28242395052E+02  0.67064826632E+01  0.41202572668E+03  0.42310294720E+03  0.91696754019E+02 0.  0.
         23    2    4    4    0    0  0.52707181138E+03  0.79688079156E+02  0.21658837727E+03  0.58251267772E+03  0.90860388644E+02 0.  0.
          3    1    3    3  502    0 -0.15237726542E+03  0.10873685266E+02  0.13313408699E+03  0.20263699851E+03  0.00000000000E+00 0. -1.
         -3    1    3    3    0  502 -0.34645215091E+03 -0.97268247085E+02  0.20491431031E+03  0.41410153264E+03  0.00000000000E+00 0.  1.
         13    1    5    5    0    0  0.26396228789E+02  0.15668947169E+02  0.25000703348E+03  0.25188448461E+03  0.00000000000E+00 0. -1.
        -13    1    5    5    0    0 -0.54638623841E+02 -0.89624645061E+01  0.16201869321E+03  0.17121846260E+03  0.00000000000E+00 0.  1.
          3    1    6    6  503    0  0.31365447025E+03  0.36361673011E+01  0.13822018848E+03  0.34277860044E+03  0.00000000000E+00 0. -1.
         -3    1    6    6    0  503  0.21341734114E+03  0.76051911855E+02  0.78368188785E+02  0.23973407728E+03  0.00000000000E+00 0.  1.
<mgrwt>
<rscale>  0 0.56945812E+03</rscale>
<asrwt>0</asrwt>
<pdfrwt beam="1">  1        1 0.19915513E+00 0.56945812E+03</pdfrwt>
<pdfrwt beam="2">  1       -1 0.50437820E-01 0.56945812E+03</pdfrwt>
<totfact> 0.37930064E+01</totfact>
</mgrwt>
</event>
<event>
12    1  0.1335216E-007  0.1076365E+04  0.7818608E-02  0.9228539E-01
         -2   -1    0    0    0  501 -0.00000000000E+00  0.00000000000E+00  0.61240855873E+03  0.61240855873E+03  0.00000000000E+00 0.  1.
          2   -1    0    0  501    0  0.00000000000E+00 -0.00000000000E+00 -0.22428549078E+04  0.22428549078E+04  0.00000000000E+00 0. -1.
         23    2    1    2    0    0 -0.81726406571E+03 -0.65260592193E+03 -0.11500730955E+04  0.15572980271E+04  0.93241503190E+02 0.  0.
    5000000    2    1    2    0    0  0.81726406571E+03  0.65260592193E+03 -0.48037325363E+03  0.12979654394E+04  0.60011730247E+03 0.  0.
         23    2    4    4    0    0  0.19226374279E+03  0.36138947183E+03  0.51477412393E+02  0.42241695838E+03  0.90655753240E+02 0.  0.
         23    2    4    4    0    0  0.62500032292E+03  0.29121645010E+03 -0.53185066603E+03  0.87554848106E+03  0.91036186589E+02 0.  0.
          1    1    3    3  502    0 -0.51936673731E+03 -0.39783704196E+03 -0.78216430056E+03  0.10197044243E+04  0.00000000000E+00 0. -1.
         -1    1    3    3    0  502 -0.29789732840E+03 -0.25476887998E+03 -0.36790879491E+03  0.53759360286E+03  0.00000000000E+00 0.  1.
         11    1    5    5    0    0  0.21629244149E+02  0.10387394955E+03  0.39663119875E+02  0.11327305362E+03  0.00000000000E+00 0. -1.
        -11    1    5    5    0    0  0.17063449864E+03  0.25751552228E+03  0.11814292517E+02  0.30914390476E+03  0.00000000000E+00 0.  1.
          2    1    6    6  503    0  0.60435155936E+03  0.29120078531E+03 -0.52974721644E+03  0.85479285092E+03  0.00000000000E+00 0. -1.
         -2    1    6    6    0  503  0.20648763564E+02  0.15664787929E-01 -0.21034495868E+01  0.20755630134E+02  0.00000000000E+00 0.  1.
<mgrwt>
<rscale>  0 0.10763648E+04</rscale>
<asrwt>0</asrwt>
<pdfrwt beam="1">  1        2 0.34505460E+00 0.10763648E+04</pdfrwt>
<pdfrwt beam="2">  1       -2 0.94216701E-01 0.10763648E+04</pdfrwt>
<totfact> 0.46186177E+00</totfact>
</mgrwt>
</event>
<event>
12    1  0.1335216E-007  0.4120785E+03  0.7818608E-02  0.1039676E+00
         -2   -1    0    0    0  501 -0.00000000000E+00  0.00000000000E+00  0.24579303216E+03  0.24579303216E+03  0.00000000000E+00 0.  1.
          2   -1    0    0  501    0  0.00000000000E+00 -0.00000000000E+00 -0.81570591757E+03  0.81570591757E+03  0.00000000000E+00 0. -1.
         23    2    1    2    0    0  0.17150590688E+03  0.13549530056E+03 -0.60214839421E+02  0.24443344664E+03  0.91370839869E+02 0.  0.
    5000000    2    1    2    0    0 -0.17150590688E+03 -0.13549530056E+03 -0.50969804598E+03  0.81706550310E+03  0.60002557087E+03 0.  0.
         23    2    4    4    0    0 -0.33548133144E+03 -0.22016659792E+03 -0.23868260536E+03  0.47591913056E+03  0.92241954377E+02 0.  0.
         23    2    4    4    0    0  0.16397542456E+03  0.84671297354E+02 -0.27101544062E+03  0.34114637254E+03  0.94203556121E+02 0.  0.
          4    1    3    3  502    0  0.11812408257E+03  0.71392800003E+02  0.56625284619E+01  0.13813868033E+03  0.00000000000E+00 0. -1.
         -4    1    3    3    0  502  0.53381824315E+02  0.64102500561E+02 -0.65877367883E+02  0.10629476631E+03  0.00000000000E+00 0.  1.
         13    1    5    5    0    0 -0.20065253616E+03 -0.79232314242E+02 -0.10903167818E+03  0.24171699720E+03  0.00000000000E+00 0.  1.
        -13    1    5    5    0    0 -0.13482879527E+03 -0.14093428368E+03 -0.12965092718E+03  0.23420213336E+03  0.00000000000E+00 0. -1.
          3    1    6    6  503    0  0.68964256757E+01 -0.72009881639E+01 -0.67117410411E+02  0.67853973339E+02  0.00000000000E+00 0. -1.
         -3    1    6    6    0  503  0.15707899888E+03  0.91872285518E+02 -0.20389803021E+03  0.27329239920E+03  0.00000000000E+00 0.  1.
<mgrwt>
<rscale>  0 0.41207851E+03</rscale>
<asrwt>0</asrwt>
<pdfrwt beam="1">  1        2 0.12549322E+00 0.41207851E+03</pdfrwt>
<pdfrwt beam="2">  1       -2 0.37814312E-01 0.41207851E+03</pdfrwt>
<totfact> 0.22841217E+02</totfact>
</mgrwt>
</event>
<event>
12    1  0.1335216E-007  0.5197071E+03  0.7818608E-02  0.1008759E+00
          1   -1    0    0  501    0  0.00000000000E+00  0.00000000000E+00  0.18853551404E+04  0.18853551404E+04  0.00000000000E+00 0. -1.
         -1   -1    0    0    0  501 -0.00000000000E+00 -0.00000000000E+00 -0.28328402162E+03  0.28328402162E+03  0.00000000000E+00 0.  1.
         23    2    1    2    0    0  0.27894649271E+02 -0.49999781138E+03  0.16549948549E+03  0.53326486363E+03  0.78774439016E+02 0.  0.
    5000000    2    1    2    0    0 -0.27894649271E+02  0.49999781138E+03  0.14365716333E+04  0.16353742984E+04  0.59994592711E+03 0.  0.
         23    2    4    4    0    0  0.39087583372E+01  0.62838911659E+02 -0.17597501086E+02  0.11375823083E+03  0.93098097867E+02 0.  0.
         23    2    4    4    0    0 -0.31803407608E+02  0.43715889972E+03  0.14541691344E+04  0.15216160676E+04  0.92672678707E+02 0.  0.
          1    1    3    3  502    0 -0.32109868093E+01 -0.17545362998E+03  0.95564748102E+02  0.19981718592E+03  0.00000000000E+00 0. -1.
         -1    1    3    3    0  502  0.31105636080E+02 -0.32454418139E+03  0.69934737388E+02  0.33344767770E+03  0.00000000000E+00 0.  1.
         11    1    5    5    0    0  0.30250928826E+02  0.10116227908E+02 -0.39599119888E+02  0.50848274876E+02  0.00000000000E+00 0. -1.
        -11    1    5    5    0    0 -0.26342170489E+02  0.52722683751E+02  0.22001618802E+02  0.62909955952E+02  0.00000000000E+00 0.  1.
          1    1    6    6  503    0 -0.60013435602E+02  0.21842620845E+03  0.68753517699E+03  0.72388966051E+03  0.00000000000E+00 0. -1.
         -1    1    6    6    0  503  0.28210027994E+02  0.21873269127E+03  0.76663395740E+03  0.79772640708E+03  0.00000000000E+00 0.  1.
<mgrwt>
<rscale>  0 0.51970711E+03</rscale>
<asrwt>0</asrwt>
<pdfrwt beam="1">  1        1 0.29005463E+00 0.51970711E+03</pdfrwt>
<pdfrwt beam="2">  1       -1 0.43582158E-01 0.51970711E+03</pdfrwt>
<totfact> 0.20028197E+01</totfact>
</mgrwt>
</event>
<event>
12    1  0.1335216E-007  0.1364297E+04  0.7818608E-02  0.8980076E-01
          2   -1    0    0  501    0  0.00000000000E+00  0.00000000000E+00  0.25548558476E+04  0.25548558476E+04  0.00000000000E+00 0. -1.
         -2   -1    0    0    0  501 -0.00000000000E+00 -0.00000000000E+00 -0.77509096508E+03  0.77509096508E+03  0.00000000000E+00 0.  1.
         23    2    1    2    0    0 -0.12344491820E+04  0.49813305287E+03  0.65604275118E+03  0.14874556877E+04  0.10065292006E+03 0.  0.
    5000000    2    1    2    0    0  0.12344491820E+04 -0.49813305287E+03  0.11237221313E+04  0.18424911249E+04  0.60001732942E+03 0.  0.
         23    2    4    4    0    0  0.12044119652E+04 -0.43828595548E+03  0.11511526711E+04  0.17251401233E+04  0.90847191735E+02 0.  0.
         23    2    4    4    0    0  0.30037216828E+02 -0.59847097386E+02 -0.27430539832E+02  0.11735100156E+03  0.92384596066E+02 0.  0.
          3    1    3    3  502    0 -0.44306085228E+03  0.18195844596E+03  0.18283157117E+03  0.51267843556E+03  0.00000000000E+00 0. -1.
         -3    1    3    3    0  502 -0.79138832974E+03  0.31617460691E+03  0.47321118000E+03  0.97477725219E+03  0.00000000000E+00 0.  1.
         13    1    5    5    0    0  0.19719759355E+03 -0.98584202507E+02  0.22976469774E+03  0.31842982306E+03  0.00000000000E+00 0.  1.
        -13    1    5    5    0    0  0.10072143716E+04 -0.33970175298E+03  0.92138797340E+03  0.14067103003E+04  0.00000000000E+00 0. -1.
          4    1    6    6  503    0  0.39395746443E+02  0.12274144053E+02 -0.12420074189E+02  0.43092199908E+02  0.00000000000E+00 0. -1.
         -4    1    6    6    0  503 -0.93585296149E+01 -0.72121241439E+02 -0.15010465643E+02  0.74258801647E+02  0.00000000000E+00 0.  1.
<mgrwt>
<rscale>  0 0.13642966E+04</rscale>
<asrwt>0</asrwt>
<pdfrwt beam="1">  1        2 0.39305474E+00 0.13642966E+04</pdfrwt>
<pdfrwt beam="2">  1       -2 0.11924477E+00 0.13642966E+04</pdfrwt>
<totfact> 0.16805547E+00</totfact>
</mgrwt>
</event>
<event>
12    1  0.1335216E-007  0.7350735E+03  0.7818608E-02  0.9659063E-01
         -2   -1    0    0    0  501 -0.00000000000E+00  0.00000000000E+00  0.16576475748E+04  0.16576475748E+04  0.00000000000E+00 0.  1.
          2   -1    0    0  501    0  0.00000000000E+00 -0.00000000000E+00 -0.11346482863E+04  0.11346482863E+04  0.00000000000E+00 0. -1.
         23    2    1    2    0    0  0.54643248947E+03  0.37145899476E+03 -0.89541637402E+03  0.11164001204E+04  0.89490198907E+02 0.  0.
    5000000    2    1    2    0    0 -0.54643248947E+03 -0.37145899476E+03  0.14184156625E+04  0.16758957406E+04  0.60012772923E+03 0.  0.
         23    2    4    4    0    0 -0.28574696319E+03 -0.44405032001E+03  0.12051877590E+04  0.13187513974E+04  0.88293262649E+02 0.  0.
         23    2    4    4    0    0 -0.26068552628E+03  0.72591325245E+02  0.21322790357E+03  0.35714434319E+03  0.94124911127E+02 0.  0.
          4    1    3    3  502    0  0.99957645256E+02  0.42294075368E+02 -0.19236077260E+03  0.22086870872E+03  0.00000000000E+00 0. -1.
         -4    1    3    3    0  502  0.44647484421E+03  0.32916491939E+03 -0.70305560142E+03  0.89553141171E+03  0.00000000000E+00 0.  1.
         13    1    5    5    0    0  0.21375884114E+01 -0.23529617632E+02  0.82384997642E+02  0.85705892601E+02  0.00000000000E+00 0. -1.
        -13    1    5    5    0    0 -0.28788455160E+03 -0.42052070238E+03  0.11228027613E+04  0.12330455048E+04  0.00000000000E+00 0.  1.
          3    1    6    6  503    0 -0.10467129487E+03  0.85616605503E+01  0.32454470238E+02  0.10992122015E+03  0.00000000000E+00 0. -1.
         -3    1    6    6    0  503 -0.15601423141E+03  0.64029664695E+02  0.18077343334E+03  0.24722312304E+03  0.00000000000E+00 0.  1.
<mgrwt>
<rscale>  0 0.73507350E+03</rscale>
<asrwt>0</asrwt>
<pdfrwt beam="1">  1        2 0.17456127E+00 0.73507350E+03</pdfrwt>
<pdfrwt beam="2">  1       -2 0.25502271E+00 0.73507350E+03</pdfrwt>
<totfact> 0.12911607E+00</totfact>
</mgrwt>
</event>
<event>
12    1  0.1335216E-007  0.5138007E+03  0.7818608E-02  0.1010238E+00
         -2   -1    0    0    0  501 -0.00000000000E+00  0.00000000000E+00  0.29622175850E+03  0.29622175850E+03  0.00000000000E+00 0.  1.
          2   -1    0    0  501    0  0.00000000000E+00 -0.00000000000E+00 -0.99782959658E+03  0.99782959658E+03  0.00000000000E+00 0. -1.
         23    2    1    2    0    0  0.65739713665E+02 -0.34888701999E+03 -0.12773468976E+03  0.39105889161E+03  0.10279612383E+03 0.  0.
    5000000    2    1    2    0    0 -0.65739713665E+02  0.34888701999E+03 -0.57387314832E+03  0.90299246347E+03  0.60001761312E+03 0.  0.
         23    2    4    4    0    0 -0.19211001376E+01 -0.15412534055E+03 -0.19671518381E+03  0.26435579211E+03  0.86190545064E+02 0.  0.
         23    2    4    4    0    0 -0.63818613527E+02  0.50301236053E+03 -0.37715796452E+03  0.63863667136E+03  0.92273601476E+02 0.  0.
          2    1    3    3  502    0  0.95775572062E+01 -0.21079756952E+03 -0.11776488216E+03  0.24165246200E+03  0.00000000000E+00 0. -1.
         -2    1    3    3    0  502  0.56162156459E+02 -0.13808945046E+03 -0.99698075951E+01  0.14940642961E+03  0.00000000000E+00 0.  1.
         11    1    5    5    0    0 -0.12422184198E+01 -0.14928334934E+03 -0.20567769502E+03  0.25414636674E+03  0.00000000000E+00 0.  1.
        -11    1    5    5    0    0 -0.67888171781E+00 -0.48419912041E+01  0.89625112131E+01  0.10209425373E+02  0.00000000000E+00 0. -1.
          2    1    6    6  503    0 -0.46097352827E+02  0.10201755946E+03 -0.59621189031E+02  0.12683546254E+03  0.00000000000E+00 0. -1.
         -2    1    6    6    0  503 -0.17721260700E+02  0.40099480107E+03 -0.31753677549E+03  0.51180120882E+03  0.00000000000E+00 0.  1.
<mgrwt>
<rscale>  0 0.51380069E+03</rscale>
<asrwt>0</asrwt>
<pdfrwt beam="1">  1        2 0.15351225E+00 0.51380069E+03</pdfrwt>
<pdfrwt beam="2">  1       -2 0.45572578E-01 0.51380069E+03</pdfrwt>
<totfact> 0.11919867E+02</totfact>
</mgrwt>
</event>
<event>
12    1  0.1335216E-007  0.3825939E+03  0.7818608E-02  0.1049979E+00
          2   -1    0    0  501    0  0.00000000000E+00  0.00000000000E+00  0.41377294299E+03  0.41377294299E+03  0.00000000000E+00 0. -1.
         -2   -1    0    0    0  501 -0.00000000000E+00 -0.00000000000E+00 -0.36611280557E+03  0.36611280557E+03  0.00000000000E+00 0.  1.
         23    2    1    2    0    0 -0.13933685298E+02 -0.13510813706E+03  0.30249758920E+02  0.16617561027E+03  0.90834625812E+02 0.  0.
    5000000    2    1    2    0    0  0.13933685298E+02  0.13510813706E+03  0.17410378497E+02  0.61371013830E+03  0.59823795959E+03 0.  0.
         23    2    4    4    0    0  0.27487186337E+03  0.16676349995E+03  0.31927313657E+02  0.33590199023E+03  0.91903141919E+02 0.  0.
         23    2    4    4    0    0 -0.26093817807E+03 -0.31655362893E+02 -0.14516935160E+02  0.27780814807E+03  0.88745878514E+02 0.  0.
          2    1    3    3  502    0 -0.46096045069E+02 -0.11672110062E+03  0.30419825314E+02  0.12912794613E+03  0.00000000000E+00 0. -1.
         -2    1    3    3    0  502  0.32162359771E+02 -0.18387036445E+02 -0.17006639397E+00  0.37047664134E+02  0.00000000000E+00 0.  1.
         11    1    5    5    0    0  0.25091860488E+02  0.55461526745E+02  0.35361957720E+01  0.60976119032E+02  0.00000000000E+00 0.  1.
        -11    1    5    5    0    0  0.24978000288E+03  0.11130197321E+03  0.28391117885E+02  0.27492587120E+03  0.00000000000E+00 0. -1.
          3    1    6    6  503    0 -0.64909565892E+02  0.15418957184E+02  0.27006643371E+02  0.71974681459E+02  0.00000000000E+00 0. -1.
         -3    1    6    6    0  503 -0.19602861218E+03 -0.47074320077E+02 -0.41523578531E+02  0.20583346661E+03  0.00000000000E+00 0.  1.
<mgrwt>
<rscale>  0 0.38259391E+03</rscale>
<asrwt>0</asrwt>
<pdfrwt beam="1">  1        2 0.63657376E-01 0.38259391E+03</pdfrwt>
<pdfrwt beam="2">  1       -2 0.56325047E-01 0.38259391E+03</pdfrwt>
<totfact> 0.23207429E+02</totfact>
</mgrwt>
</event>
<event>
12    1  0.1335216E-007  0.1045317E+04  0.7818608E-02  0.9260192E-01
         -1   -1    0    0    0  501 -0.00000000000E+00  0.00000000000E+00  0.12005631889E+04  0.12005631889E+04  0.00000000000E+00 0.  1.
          1   -1    0    0  501    0  0.00000000000E+00 -0.00000000000E+00 -0.16108888417E+04  0.16108888417E+04  0.00000000000E+00 0. -1.
         23    2    1    2    0    0 -0.29938225532E+03 -0.98014032706E+03  0.65206421297E+03  0.12180471426E+04  0.90256901177E+02 0.  0.
    5000000    2    1    2    0    0  0.29938225532E+03  0.98014032706E+03 -0.10623898657E+04  0.15934048880E+04  0.59996842820E+03 0.  0.
         23    2    4    4    0    0  0.30266167016E+03  0.53275501736E+03 -0.93181575315E+03  0.11188466344E+04  0.90028874749E+02 0.  0.
         23    2    4    4    0    0 -0.32794148394E+01  0.44738530970E+03 -0.13057411258E+03  0.47455825366E+03  0.89395566726E+02 0.  0.
          2    1    3    3  502    0 -0.71426994538E+02 -0.12669547874E+03  0.93372680441E+02  0.17283523175E+03  0.00000000000E+00 0. -1.
         -2    1    3    3    0  502 -0.22795526078E+03 -0.85344484832E+03  0.55869153253E+03  0.10452119108E+04  0.00000000000E+00 0.  1.
         11    1    5    5    0    0  0.12954329899E+03  0.24001529555E+03 -0.33563482361E+03  0.43248068539E+03  0.00000000000E+00 0.  1.
        -11    1    5    5    0    0  0.17311837117E+03  0.29273972181E+03 -0.59618092954E+03  0.68636594897E+03  0.00000000000E+00 0. -1.
          2    1    6    6  503    0  0.16844014535E+02  0.25397258217E+03 -0.31970598488E+02  0.25653052935E+03  0.00000000000E+00 0. -1.
         -2    1    6    6    0  503 -0.20123429374E+02  0.19341272753E+03 -0.98603514092E+02  0.21802772432E+03  0.00000000000E+00 0.  1.
<mgrwt>
<rscale>  0 0.10453174E+04</rscale>
<asrwt>0</asrwt>
<pdfrwt beam="1">  1        1 0.24782905E+00 0.10453174E+04</pdfrwt>
<pdfrwt beam="2">  1       -1 0.18470203E+00 0.10453174E+04</pdfrwt>
<totfact> 0.10571582E+00</totfact>
</mgrwt>
</event>
<event>
12    1  0.1335216E-007  0.8625960E+03  0.7818608E-02  0.9473585E-01
         -1   -1    0    0    0  501 -0.00000000000E+00  0.00000000000E+00  0.73266313564E+03  0.73266313564E+03  0.00000000000E+00 0.  1.
          1   -1    0    0  501    0  0.00000000000E+00 -0.00000000000E+00 -0.10972987832E+04  0.10972987832E+04  0.00000000000E+00 0. -1.
         23    2    1    2    0    0  0.22776189670E+03 -0.73170101766E+03 -0.37161999368E+03  0.85667011204E+03  0.92306014560E+02 0.  0.
    5000000    2    1    2    0    0 -0.22776189670E+03  0.73170101766E+03  0.69843461301E+01  0.97329180680E+03  0.59998858262E+03 0.  0.
         23    2    4    4    0    0 -0.55568656782E+02  0.76158241626E+03 -0.42347648491E+02  0.76978445533E+03  0.87630656506E+02 0.  0.
         23    2    4    4    0    0 -0.17219323992E+03 -0.29881398602E+02  0.49331994621E+02  0.20350735148E+03  0.91859602410E+02 0.  0.
          1    1    3    3  502    0  0.69541047829E+02 -0.33717548888E+03 -0.20086879763E+03  0.39858693092E+03  0.00000000000E+00 0. -1.
         -1    1    3    3    0  502  0.15822084887E+03 -0.39452552877E+03 -0.17075119606E+03  0.45808318112E+03  0.00000000000E+00 0.  1.
         13    1    5    5    0    0 -0.72720999607E+02  0.63351768655E+03 -0.54519118386E+02  0.64000416969E+03  0.00000000000E+00 0.  1.
        -13    1    5    5    0    0  0.17152342825E+02  0.12806472971E+03  0.12171469895E+02  0.12978028563E+03  0.00000000000E+00 0. -1.
          2    1    6    6  503    0 -0.13829291184E+03  0.75052458754E+01  0.87952078933E+01  0.13877540799E+03  0.00000000000E+00 0. -1.
         -2    1    6    6    0  503 -0.33900328078E+02 -0.37386644477E+02  0.40536786728E+02  0.64731943484E+02  0.00000000000E+00 0.  1.
<mgrwt>
<rscale>  0 0.86259601E+03</rscale>
<asrwt>0</asrwt>
<pdfrwt beam="1">  1        1 0.16881520E+00 0.86259601E+03</pdfrwt>
<pdfrwt beam="2">  1       -1 0.11271741E+00 0.86259601E+03</pdfrwt>
<totfact> 0.93441029E+00</totfact>
</mgrwt>
</event>
<event>
12    1  0.1335216E-007  0.9579681E+03  0.7818608E-02  0.9355885E-01
          1   -1    0    0  501    0  0.00000000000E+00  0.00000000000E+00  0.19973613618E+04  0.19973613618E+04  0.00000000000E+00 0. -1.
         -1   -1    0    0    0  501 -0.00000000000E+00 -0.00000000000E+00 -0.52978415923E+03  0.52978415923E+03  0.00000000000E+00 0.  1.
         23    2    1    2    0    0  0.27946453732E+03 -0.88332174462E+03  0.85919018014E+03  0.12667942067E+04  0.90565248430E+02 0.  0.
    5000000    2    1    2    0    0 -0.27946453732E+03  0.88332174462E+03  0.60838702245E+03  0.12603513144E+04  0.59999411205E+03 0.  0.
         23    2    4    4    0    0 -0.16704392632E+03  0.80099975837E+03  0.68935763823E+03  0.10735992630E+04  0.88865841939E+02 0.  0.
         23    2    4    4    0    0 -0.11242061100E+03  0.82321986250E+02 -0.80970615783E+02  0.18675205142E+03  0.94365167782E+02 0.  0.
          4    1    3    3  502    0  0.10809261870E+03 -0.31266578571E+03  0.36571350148E+03  0.49314325802E+03  0.00000000000E+00 0. -1.
         -4    1    3    3    0  502  0.17137191862E+03 -0.57065595891E+03  0.49347667866E+03  0.77365094863E+03  0.00000000000E+00 0.  1.
         11    1    5    5    0    0 -0.72078662855E+02  0.20113298711E+03  0.14698240413E+03  0.25933306628E+03  0.00000000000E+00 0. -1.
        -11    1    5    5    0    0 -0.94965263467E+02  0.59986677125E+03  0.54237523410E+03  0.81426619670E+03  0.00000000000E+00 0.  1.
          1    1    6    6  503    0 -0.49844105418E+02  0.92318711279E+02 -0.50732366094E+02  0.11653734280E+03  0.00000000000E+00 0. -1.
         -1    1    6    6    0  503 -0.62576505583E+02 -0.99967250282E+01 -0.30238249690E+02  0.70214708620E+02  0.00000000000E+00 0.  1.
<mgrwt>
<rscale>  0 0.95796812E+03</rscale>
<asrwt>0</asrwt>
<pdfrwt beam="1">  1        1 0.30728636E+00 0.95796812E+03</pdfrwt>
<pdfrwt beam="2">  1       -1 0.81505256E-01 0.95796812E+03</pdfrwt>
<totfact> 0.45615156E+00</totfact>
</mgrwt>
</event>
<event>
12    1  0.1335216E-007  0.3054051E+04  0.7818608E-02  0.8228463E-01
          1   -1    0    0  501    0  0.00000000000E+00  0.00000000000E+00  0.56640879282E+04  0.56640879282E+04  0.00000000000E+00 0. -1.
         -1   -1    0    0    0  501 -0.00000000000E+00 -0.00000000000E+00 -0.16858526513E+04  0.16858526513E+04  0.00000000000E+00 0.  1.
         23    2    1    2    0    0  0.20707938800E+03  0.30456232950E+04  0.22274717858E+04  0.37800791679E+04  0.93085073564E+02 0.  0.
    5000000    2    1    2    0    0 -0.20707938800E+03 -0.30456232950E+04  0.17507634912E+04  0.35698614116E+04  0.60002880558E+03 0.  0.
         23    2    4    4    0    0 -0.16543226966E+02 -0.58445292583E+03  0.60713083709E+03  0.84779582733E+03  0.91054986828E+02 0.  0.
         23    2    4    4    0    0 -0.19053616103E+03 -0.24611703692E+04  0.11436326541E+04  0.27220655843E+04  0.89898734385E+02 0.  0.
          3    1    3    3  502    0  0.13835035877E+03  0.15840739838E+04  0.11166481247E+04  0.19430219356E+04  0.00000000000E+00 0. -1.
         -3    1    3    3    0  502  0.68729029232E+02  0.14615493113E+04  0.11108236610E+04  0.18370572323E+04  0.00000000000E+00 0.  1.
         11    1    5    5    0    0 -0.60781060534E+01 -0.63273653509E+02  0.11234754080E+03  0.12908318452E+03  0.00000000000E+00 0.  1.
        -11    1    5    5    0    0 -0.10465120912E+02 -0.52117927232E+03  0.49478329629E+03  0.71871264281E+03  0.00000000000E+00 0. -1.
          3    1    6    6  503    0 -0.11133983095E+03 -0.18991834649E+04  0.89490195972E+03  0.21024138291E+04  0.00000000000E+00 0. -1.
         -3    1    6    6    0  503 -0.79196330082E+02 -0.56198690436E+03  0.24873069439E+03  0.61965175519E+03  0.00000000000E+00 0.  1.
<mgrwt>
<rscale>  0 0.30540509E+04</rscale>
<asrwt>0</asrwt>
<pdfrwt beam="1">  1        1 0.87139814E+00 0.30540509E+04</pdfrwt>
<pdfrwt beam="2">  1       -1 0.25936195E+00 0.30540509E+04</pdfrwt>
<totfact> 0.34670348E-05</totfact>
</mgrwt>
</event>
<event>
12    1  0.1335216E-007  0.1652319E+04  0.7818608E-02  0.8789036E-01
         -2   -1    0    0    0  501 -0.00000000000E+00  0.00000000000E+00  0.11829282993E+04  0.11829282993E+04  0.00000000000E+00 0. -1.
          2   -1    0    0  501    0  0.00000000000E+00 -0.00000000000E+00 -0.28560616871E+04  0.28560616871E+04  0.00000000000E+00 0.  1.
         23    2    1    2    0    0 -0.12527768152E+04  0.10658409825E+04 -0.44065504850E+02  0.16474872113E+04  0.82496024349E+02 0.  0.
    5000000    2    1    2    0    0  0.12527768152E+04 -0.10658409825E+04 -0.16290678830E+04  0.23915027751E+04  0.59996383838E+03 0.  0.
         23    2    4    4    0    0  0.84813194154E+03 -0.62005192718E+03 -0.13723197627E+04  0.17306853534E+04  0.90653618508E+02 0.  0.
         23    2    4    4    0    0  0.40464487370E+03 -0.44578905532E+03 -0.25674812027E+03  0.66081742178E+03  0.91075309564E+02 0.  0.
          3    1    3    3  502    0 -0.90933459843E+03  0.74267872098E+03 -0.25137798695E+01  0.11740815191E+04  0.00000000000E+00 0. -1.
         -3    1    3    3    0  502 -0.34344221680E+03  0.32316226152E+03 -0.41551724980E+02  0.47340569220E+03  0.00000000000E+00 0.  1.
         11    1    5    5    0    0  0.58024435080E+03 -0.37113427564E+03 -0.90455391417E+03  0.11369441239E+04  0.00000000000E+00 0. -1.
        -11    1    5    5    0    0  0.26788759074E+03 -0.24891765154E+03 -0.46776584852E+03  0.59374122946E+03  0.00000000000E+00 0.  1.
          3    1    6    6  503    0  0.21088885360E+03 -0.27248273476E+03 -0.10687645038E+03  0.36075410595E+03  0.00000000000E+00 0. -1.
         -3    1    6    6    0  503  0.19375602010E+03 -0.17330632056E+03 -0.14987166989E+03  0.30006331583E+03  0.00000000000E+00 0.  1.
<mgrwt>
<rscale>  0 0.16523192E+04</rscale>
<asrwt>0</asrwt>
<pdfrwt beam="1">  1        2 0.43939410E+00 0.16523192E+04</pdfrwt>
<pdfrwt beam="2">  1       -2 0.18198897E+00 0.16523192E+04</pdfrwt>
<totfact> 0.34824545E-01</totfact>
</mgrwt>
</event>
<event>
12    1  0.1335216E-007  0.8934829E+03  0.7818608E-02  0.9433765E-01
          2   -1    0    0  501    0  0.00000000000E+00  0.00000000000E+00  0.83810540633E+03  0.83810540633E+03  0.00000000000E+00 0. -1.
         -2   -1    0    0    0  501 -0.00000000000E+00 -0.00000000000E+00 -0.10716694052E+04  0.10716694052E+04  0.00000000000E+00 0.  1.
         23    2    1    2    0    0  0.80862064409E+03 -0.20593404449E+03  0.57976077393E+02  0.84147075309E+03  0.91845664212E+02 0.  0.
    5000000    2    1    2    0    0 -0.80862064409E+03  0.20593404449E+03 -0.29154007624E+03  0.10683040584E+04  0.60000147372E+03 0.  0.
         23    2    4    4    0    0 -0.77630966197E+03  0.28200667751E+03 -0.38383804684E+03  0.91488618826E+03  0.86606199848E+02 0.  0.
         23    2    4    4    0    0 -0.32310982123E+02 -0.76072633020E+02  0.92297970595E+02  0.15341787016E+03  0.90482498029E+02 0.  0.
          3    1    3    3  502    0  0.30359627313E+02 -0.20200048381E+02 -0.11773532160E+02  0.38319250837E+02  0.00000000000E+00 0. -1.
         -3    1    3    3    0  502  0.77826101678E+03 -0.18573399610E+03  0.69749609552E+02  0.80315150225E+03  0.00000000000E+00 0.  1.
         13    1    5    5    0    0 -0.23012570148E+03  0.44630155489E+02 -0.12312211611E+03  0.26478055959E+03  0.00000000000E+00 0.  1.
        -13    1    5    5    0    0 -0.54618396048E+03  0.23737652202E+03 -0.26071593073E+03  0.65010562867E+03  0.00000000000E+00 0. -1.
          1    1    6    6  503    0  0.23052194718E+02 -0.57644168083E+02  0.61717493455E+02  0.87540292401E+02  0.00000000000E+00 0. -1.
         -1    1    6    6    0  503 -0.55363176841E+02 -0.18428464937E+02  0.30580477140E+02  0.65877577763E+02  0.00000000000E+00 0.  1.
<mgrwt>
<rscale>  0 0.89348291E+03</rscale>
<asrwt>0</asrwt>
<pdfrwt beam="1">  1        2 0.12893929E+00 0.89348291E+03</pdfrwt>
<pdfrwt beam="2">  1       -2 0.16487222E+00 0.89348291E+03</pdfrwt>
<totfact> 0.75200015E+00</totfact>
</mgrwt>
</event>
<event>
12    1  0.1335216E-007  0.8518359E+03  0.7818608E-02  0.9487876E-01
         -1   -1    0    0    0  501 -0.00000000000E+00  0.00000000000E+00  0.64002161894E+03  0.64002161894E+03  0.00000000000E+00 0.  1.
          1   -1    0    0  501    0  0.00000000000E+00 -0.00000000000E+00 -0.12717812838E+04  0.12717812838E+04  0.00000000000E+00 0. -1.
         23    2    1    2    0    0 -0.33980204408E+02  0.75721297361E+03 -0.12463611255E+02  0.76351291412E+03  0.90942216485E+02 0.  0.
    5000000    2    1    2    0    0  0.33980204408E+02 -0.75721297361E+03 -0.61929605359E+03  0.11482899886E+04  0.60042997446E+03 0.  0.
         23    2    4    4    0    0 -0.25936250562E+03 -0.30637696090E+03 -0.34414050674E+03  0.53717235074E+03  0.94792903333E+02 0.  0.
         23    2    4    4    0    0  0.29334271003E+03 -0.45083601270E+03 -0.27515554685E+03  0.61111763786E+03  0.91930062892E+02 0.  0.
          3    1    3    3  502    0 -0.32368251567E+02  0.83965274473E+02  0.37774346121E+01  0.90067419410E+02  0.00000000000E+00 0. -1.
         -3    1    3    3    0  502 -0.16119528406E+01  0.67324769913E+03 -0.16241045867E+02  0.67344549471E+03  0.00000000000E+00 0.  1.
         13    1    5    5    0    0 -0.98523306016E+02 -0.97717781461E+02 -0.17803568137E+03  0.22572618475E+03  0.00000000000E+00 0. -1.
        -13    1    5    5    0    0 -0.16083919960E+03 -0.20865917944E+03 -0.16610482537E+03  0.31144616598E+03  0.00000000000E+00 0.  1.
          3    1    6    6  503    0  0.21568500032E+03 -0.34663711899E+03 -0.25007912997E+03  0.47876600011E+03  0.00000000000E+00 0. -1.
         -3    1    6    6    0  503  0.77657709712E+02 -0.10419889372E+03 -0.25076416877E+02  0.13235163774E+03  0.00000000000E+00 0.  1.
<mgrwt>
<rscale>  0 0.85183591E+03</rscale>
<asrwt>0</asrwt>
<pdfrwt beam="1">  1        1 0.19565866E+00 0.85183591E+03</pdfrwt>
<pdfrwt beam="2">  1       -1 0.98464865E-01 0.85183591E+03</pdfrwt>
<totfact> 0.95582232E+00</totfact>
</mgrwt>
</event>
<event>
12    1  0.1335216E-007  0.4309037E+03  0.7818608E-02  0.1033575E+00
         -1   -1    0    0    0  501 -0.00000000000E+00  0.00000000000E+00  0.19806020774E+03  0.19806020774E+03  0.00000000000E+00 0.  1.
          1   -1    0    0  501    0  0.00000000000E+00 -0.00000000000E+00 -0.11931583135E+04  0.11931583135E+04  0.00000000000E+00 0. -1.
         23    2    1    2    0    0 -0.23328627490E+03 -0.13125198735E+03 -0.14481078949E+03  0.31695371502E+03  0.88543336674E+02 0.  0.
    5000000    2    1    2    0    0  0.23328627490E+03  0.13125198735E+03 -0.85028731630E+03  0.10742648063E+04  0.59950544906E+03 0.  0.
         23    2    4    4    0    0  0.15379886448E+03  0.33080829985E+03 -0.31166451984E+03  0.48736521761E+03  0.85450924194E+02 0.  0.
         23    2    4    4    0    0  0.79487410419E+02 -0.19955631250E+03 -0.53862279646E+03  0.58689958864E+03  0.90529774138E+02 0.  0.
          4    1    3    3  502    0 -0.14889664221E+03 -0.33217768072E+02 -0.76123072245E+02  0.17049443482E+03  0.00000000000E+00 0. -1.
         -4    1    3    3    0  502 -0.84389632692E+02 -0.98034219274E+02 -0.68687717248E+02  0.14645928020E+03  0.00000000000E+00 0.  1.
         13    1    5    5    0    0  0.12186677493E+03  0.27493635610E+03 -0.20910401145E+03  0.36628677063E+03  0.00000000000E+00 0. -1.
        -13    1    5    5    0    0  0.31932089555E+02  0.55871943752E+02 -0.10256050839E+03  0.12107844698E+03  0.00000000000E+00 0.  1.
          2    1    6    6  503    0  0.40474228401E+02 -0.10344079459E+03 -0.16323460941E+03  0.19744290026E+03  0.00000000000E+00 0.  1.
         -2    1    6    6    0  503  0.39013182018E+02 -0.96115517907E+02 -0.37538818704E+03  0.38945668838E+03  0.00000000000E+00 0. -1.
<mgrwt>
<rscale>  0 0.43090367E+03</rscale>
<asrwt>0</asrwt>
<pdfrwt beam="1">  1        1 0.18356282E+00 0.43090367E+03</pdfrwt>
<pdfrwt beam="2">  1       -1 0.30470801E-01 0.43090367E+03</pdfrwt>
<totfact> 0.11321888E+02</totfact>
</mgrwt>
</event>
<event>
12    1  0.1335216E-007  0.9508612E+03  0.7818608E-02  0.9364144E-01
         -2   -1    0    0    0  501 -0.00000000000E+00  0.00000000000E+00  0.10206713631E+04  0.10206713631E+04  0.00000000000E+00 0.  1.
          2   -1    0    0  501    0  0.00000000000E+00 -0.00000000000E+00 -0.10142631534E+04  0.10142631534E+04  0.00000000000E+00 0. -1.
         23    2    1    2    0    0  0.53033102737E+03  0.72292393791E+03  0.23760531558E+03  0.93150531029E+03  0.85882702098E+02 0.  0.
    5000000    2    1    2    0    0 -0.53033102737E+03 -0.72292393791E+03 -0.23119710586E+03  0.11034292063E+04  0.60019487910E+03 0.  0.
         23    2    4    4    0    0 -0.51777530313E+03 -0.37015194122E+03 -0.33418232304E+03  0.72471790907E+03  0.91839526213E+02 0.  0.
         23    2    4    4    0    0 -0.12555724242E+02 -0.35277199668E+03  0.10298521718E+03  0.37871129720E+03  0.90612161490E+02 0.  0.
          3    1    3    3  502    0  0.27905629713E+03  0.41467351979E+03  0.93404272441E+02  0.50847900949E+03  0.00000000000E+00 0. -1.
         -3    1    3    3    0  502  0.25127473024E+03  0.30825041812E+03  0.14420104314E+03  0.42302630080E+03  0.00000000000E+00 0.  1.
         13    1    5    5    0    0 -0.13012402972E+03 -0.14148368776E+03 -0.11647967861E+03  0.22476078960E+03  0.00000000000E+00 0.  1.
        -13    1    5    5    0    0 -0.38765127341E+03 -0.22866825346E+03 -0.21770264443E+03  0.49995711947E+03  0.00000000000E+00 0. -1.
          1    1    6    6  503    0 -0.36214615607E+02 -0.31676597834E+03  0.10473780287E+03  0.33559229844E+03  0.00000000000E+00 0. -1.
         -1    1    6    6    0  503  0.23658891365E+02 -0.36006018340E+02 -0.17525856903E+01  0.43118998759E+02  0.00000000000E+00 0.  1.
<mgrwt>
<rscale>  0 0.95086122E+03</rscale>
<asrwt>0</asrwt>
<pdfrwt beam="1">  1        2 0.15604049E+00 0.95086122E+03</pdfrwt>
<pdfrwt beam="2">  1       -2 0.15702636E+00 0.95086122E+03</pdfrwt>
<totfact> 0.65111597E+00</totfact>
</mgrwt>
</event>
<event>
12    1  0.1335216E-007  0.1211541E+04  0.7818608E-02  0.9102814E-01
         -2   -1    0    0    0  501 -0.00000000000E+00  0.00000000000E+00  0.13423718361E+04  0.13423718361E+04  0.00000000000E+00 0. -1.
          2   -1    0    0  501    0  0.00000000000E+00 -0.00000000000E+00 -0.12153881295E+04  0.12153881295E+04  0.00000000000E+00 0.  1.
         23    2    1    2    0    0 -0.73875783416E+03  0.92694130540E+03 -0.15709908392E+03  0.11991977084E+04  0.91715322669E+02 0.  0.
    5000000    2    1    2    0    0  0.73875783416E+03 -0.92694130540E+03  0.28408279054E+03  0.13585622572E+04  0.60000421131E+03 0.  0.
         23    2    4    4    0    0  0.25963140661E+03 -0.12133100439E+03  0.28945812851E+03  0.41709403048E+03  0.89731500484E+02 0.  0.
         23    2    4    4    0    0  0.47912642755E+03 -0.80561030101E+03 -0.53753379707E+01  0.94146822671E+03  0.88110368135E+02 0.  0.
          2    1    3    3  502    0 -0.62263917256E+03  0.76959520065E+03 -0.16450808327E+03  0.10035034736E+04  0.00000000000E+00 0. -1.
         -2    1    3    3    0  502 -0.11611866160E+03  0.15734610475E+03  0.74089993514E+01  0.19569423477E+03  0.00000000000E+00 0.  1.
         13    1    5    5    0    0  0.12537680044E+03 -0.11156827990E+02  0.10714901008E+03  0.16530192757E+03  0.00000000000E+00 0.  1.
        -13    1    5    5    0    0  0.13425460617E+03 -0.11017417640E+03  0.18230911844E+03  0.25179210291E+03  0.00000000000E+00 0. -1.
          1    1    6    6  503    0  0.30890066869E+03 -0.48401658567E+03 -0.42233874791E+02  0.57573898470E+03  0.00000000000E+00 0. -1.
         -1    1    6    6    0  503  0.17022575887E+03 -0.32159371534E+03  0.36858536820E+02  0.36572924201E+03  0.00000000000E+00 0.  1.
<mgrwt>
<rscale>  0 0.12115413E+04</rscale>
<asrwt>0</asrwt>
<pdfrwt beam="1">  1        2 0.18698279E+00 0.12115413E+04</pdfrwt>
<pdfrwt beam="2">  1       -2 0.20651874E+00 0.12115413E+04</pdfrwt>
<totfact> 0.21689409E+00</totfact>
</mgrwt>
</event>
<event>
12    1  0.1335216E-007  0.6832537E+03  0.7818608E-02  0.9746307E-01
         -2   -1    0    0    0  501 -0.00000000000E+00  0.00000000000E+00  0.12272721336E+04  0.12272721336E+04  0.00000000000E+00 0.  1.
          2   -1    0    0  501    0  0.00000000000E+00 -0.00000000000E+00 -0.61328060130E+03  0.61328060130E+03  0.00000000000E+00 0. -1.
         23    2    1    2    0    0  0.49908145196E+03 -0.31959136783E+03 -0.23482114308E+03  0.64401411810E+03  0.91609371750E+02 0.  0.
    5000000    2    1    2    0    0 -0.49908145196E+03  0.31959136783E+03  0.84881267542E+03  0.11965386168E+04  0.60000063798E+03 0.  0.
         23    2    4    4    0    0  0.60835533092E+02  0.16584983418E+03  0.57634403794E+02  0.21087038676E+03  0.99686839277E+02 0.  0.
         23    2    4    4    0    0 -0.55991698505E+03  0.15374153365E+03  0.79117827162E+03  0.98566823009E+03  0.91843960087E+02 0.  0.
          2    1    3    3  502    0  0.12855054347E+03 -0.65102898856E+02 -0.18879257060E+02  0.14532740971E+03  0.00000000000E+00 0. -1.
         -2    1    3    3    0  502  0.37053090849E+03 -0.25448846897E+03 -0.21594188602E+03  0.49868670839E+03  0.00000000000E+00 0.  1.
         13    1    5    5    0    0  0.50388926829E+02  0.56583741388E+02 -0.17615489113E+02  0.77788618661E+02  0.00000000000E+00 0. -1.
        -13    1    5    5    0    0  0.10446606263E+02  0.10926609279E+03  0.75249892906E+02  0.13308176809E+03  0.00000000000E+00 0.  1.
          4    1    6    6  503    0 -0.26344621335E+03  0.11830375262E+03  0.40908486373E+03  0.50074954912E+03  0.00000000000E+00 0.  1.
         -4    1    6    6    0  503 -0.29647077170E+03  0.35437781023E+02  0.38209340789E+03  0.48491868096E+03  0.00000000000E+00 0. -1.
<mgrwt>
<rscale>  0 0.68325372E+03</rscale>
<asrwt>0</asrwt>
<pdfrwt beam="1">  1        2 0.94350862E-01 0.68325372E+03</pdfrwt>
<pdfrwt beam="2">  1       -2 0.18881110E+00 0.68325372E+03</pdfrwt>
<totfact> 0.78293060E+00</totfact>
</mgrwt>
</event>
<event>
12    1  0.1335216E-007  0.4542282E+03  0.7818608E-02  0.1026469E+00
         -2   -1    0    0    0  501 -0.00000000000E+00  0.00000000000E+00  0.26207981880E+03  0.26207981880E+03  0.00000000000E+00 0.  1.
          2   -1    0    0  501    0  0.00000000000E+00 -0.00000000000E+00 -0.12925477253E+04  0.12925477253E+04  0.00000000000E+00 0. -1.
         23    2    1    2    0    0  0.40763894594E+03  0.54379450796E+02 -0.25931542033E+03  0.49443562176E+03  0.89974784943E+02 0.  0.
    5000000    2    1    2    0    0 -0.40763894594E+03 -0.54379450796E+02 -0.77115248614E+03  0.10601919223E+04  0.60017007616E+03 0.  0.
         23    2    4    4    0    0 -0.43124798634E+03 -0.66545821337E+02 -0.21288806393E+03  0.49376780294E+03  0.89900741903E+02 0.  0.
         23    2    4    4    0    0  0.23609040396E+02  0.12166370541E+02 -0.55826442221E+03  0.56642411936E+03  0.92041895527E+02 0.  0.
          4    1    3    3  502    0  0.10131831945E+03 -0.13369623476E+02 -0.98324881306E+02  0.14181653984E+03  0.00000000000E+00 0. -1.
         -4    1    3    3    0  502  0.30632062649E+03  0.67749074271E+02 -0.16099053903E+03  0.35261908192E+03  0.00000000000E+00 0.  1.
         11    1    5    5    0    0 -0.25649030908E+03 -0.82745593051E+02 -0.11741512944E+03  0.29397350976E+03  0.00000000000E+00 0.  1.
        -11    1    5    5    0    0 -0.17475767726E+03  0.16199771714E+02 -0.95472934492E+02  0.19979429318E+03  0.00000000000E+00 0. -1.
          1    1    6    6  503    0  0.16741347312E+02  0.26662002903E+02 -0.58761345692E+02  0.66663564683E+02  0.00000000000E+00 0. -1.
         -1    1    6    6    0  503  0.68676930839E+01 -0.14495632361E+02 -0.49950307652E+03  0.49976055468E+03  0.00000000000E+00 0.  1.
<mgrwt>
<rscale>  0 0.45422822E+03</rscale>
<asrwt>0</asrwt>
<pdfrwt beam="1">  1        2 0.19885350E+00 0.45422822E+03</pdfrwt>
<pdfrwt beam="2">  1       -2 0.40319971E-01 0.45422822E+03</pdfrwt>
<totfact> 0.10194292E+02</totfact>
</mgrwt>
</event>
<event>
12    1  0.1335216E-007  0.1148268E+04  0.7818608E-02  0.9159383E-01
         -1   -1    0    0    0  501 -0.00000000000E+00  0.00000000000E+00  0.60791924303E+03  0.60791924303E+03  0.00000000000E+00 0.  1.
          1   -1    0    0  501    0  0.00000000000E+00 -0.00000000000E+00 -0.23039025390E+04  0.23039025390E+04  0.00000000000E+00 0. -1.
         23    2    1    2    0    0 -0.33423216670E+03  0.10220271931E+04 -0.47906594804E+03  0.11806051269E+04  0.89852983181E+02 0.  0.
    5000000    2    1    2    0    0  0.33423216670E+03 -0.10220271931E+04 -0.12169173479E+04  0.17312166551E+04  0.59997712506E+03 0.  0.
         23    2    4    4    0    0  0.49374112962E+03 -0.76021087853E+03 -0.88615867300E+03  0.12708436451E+04  0.89808092821E+02 0.  0.
         23    2    4    4    0    0 -0.15950896291E+03 -0.26181631452E+03 -0.33075867492E+03  0.46037301004E+03  0.92472241965E+02 0.  0.
          1    1    3    3  502    0 -0.80312115520E+02  0.38309537941E+03 -0.18057901105E+03  0.43106946639E+03  0.00000000000E+00 0. -1.
         -1    1    3    3    0  502 -0.25392005118E+03  0.63893181364E+03 -0.29848693699E+03  0.74953566055E+03  0.00000000000E+00 0.  1.
         13    1    5    5    0    0  0.30461904389E+02 -0.98825679215E+02 -0.10078880491E+03  0.14440507500E+03  0.00000000000E+00 0.  1.
        -13    1    5    5    0    0  0.46327922523E+03 -0.66138519931E+03 -0.78536986809E+03  0.11264385701E+04  0.00000000000E+00 0. -1.
          1    1    6    6  503    0 -0.12804286242E+03 -0.20463949525E+03 -0.30784441631E+03  0.39120388839E+03  0.00000000000E+00 0. -1.
         -1    1    6    6    0  503 -0.31466100489E+02 -0.57176819276E+02 -0.22914258610E+02  0.69169121652E+02  0.00000000000E+00 0.  1.
<mgrwt>
<rscale>  0 0.11482683E+04</rscale>
<asrwt>0</asrwt>
<pdfrwt beam="1">  1        1 0.35444655E+00 0.11482683E+04</pdfrwt>
<pdfrwt beam="2">  1       -1 0.93526037E-01 0.11482683E+04</pdfrwt>
<totfact> 0.20417088E+00</totfact>
</mgrwt>
</event>
<event>
12    1  0.1335216E-007  0.6463567E+03  0.7818608E-02  0.9813640E-01
          1   -1    0    0  501    0  0.00000000000E+00  0.00000000000E+00  0.12585704171E+04  0.12585704171E+04  0.00000000000E+00 0. -1.
         -1   -1    0    0    0  501 -0.00000000000E+00 -0.00000000000E+00 -0.57106152971E+03  0.57106152971E+03  0.00000000000E+00 0.  1.
         23    2    1    2    0    0 -0.36527967355E+03 -0.36219704655E+03 -0.27012447025E+03  0.58793062389E+03  0.89884640728E+02 0.  0.
    5000000    2    1    2    0    0  0.36527967355E+03  0.36219704655E+03  0.95763335762E+03  0.12417013229E+04  0.60012047728E+03 0.  0.
         23    2    4    4    0    0  0.40003586014E+03  0.19247970353E+01  0.58059602756E+03  0.71098272122E+03  0.91500209943E+02 0.  0.
         23    2    4    4    0    0 -0.34756186594E+02  0.36027224951E+03  0.37703733006E+03  0.53071860168E+03  0.92200865697E+02 0.  0.
          3    1    3    3  502    0 -0.28256192060E+03 -0.24671606132E+03 -0.15830235265E+03  0.40714823926E+03  0.00000000000E+00 0. -1.
         -3    1    3    3    0  502 -0.82717752950E+02 -0.11548098523E+03 -0.11182211761E+03  0.18078238462E+03  0.00000000000E+00 0.  1.
         11    1    5    5    0    0  0.24622707796E+03 -0.18635864951E+02  0.42308064177E+03  0.48986967535E+03  0.00000000000E+00 0. -1.
        -11    1    5    5    0    0  0.15380878218E+03  0.20560661986E+02  0.15751538579E+03  0.22111304588E+03  0.00000000000E+00 0.  1.
          1    1    6    6  503    0 -0.55455849649E+02  0.11904194184E+03  0.12800172983E+03  0.18338696251E+03  0.00000000000E+00 0. -1.
         -1    1    6    6    0  503  0.20699663055E+02  0.24123030767E+03  0.24903560024E+03  0.34733163918E+03  0.00000000000E+00 0.  1.
<mgrwt>
<rscale>  0 0.64635665E+03</rscale>
<asrwt>0</asrwt>
<pdfrwt beam="1">  1        1 0.19362622E+00 0.64635665E+03</pdfrwt>
<pdfrwt beam="2">  1       -1 0.87855620E-01 0.64635665E+03</pdfrwt>
<totfact> 0.12960210E+01</totfact>
</mgrwt>
</event>
<event>
12    1  0.1335216E-007  0.1612483E+04  0.7818608E-02  0.8812916E-01
         -2   -1    0    0    0  501 -0.00000000000E+00  0.00000000000E+00  0.15853029672E+04  0.15853029672E+04  0.00000000000E+00 0.  1.
          2   -1    0    0  501    0  0.00000000000E+00 -0.00000000000E+00 -0.17288859917E+04  0.17288859917E+04  0.00000000000E+00 0. -1.
         23    2    1    2    0    0 -0.15068778579E+04  0.50308050953E+03  0.11949004707E+03  0.15957551947E+04  0.91574519374E+02 0.  0.
    5000000    2    1    2    0    0  0.15068778579E+04 -0.50308050953E+03 -0.26307307161E+03  0.17184337641E+04  0.60003023515E+03 0.  0.
         23    2    4    4    0    0  0.12426245582E+04 -0.26026869246E+03 -0.14492950083E+02  0.12728484044E+04  0.89874523614E+02 0.  0.
         23    2    4    4    0    0  0.26425329968E+03 -0.24281181707E+03 -0.24858012152E+03  0.44558535977E+03  0.89257218884E+02 0.  0.
          3    1    3    3  502    0 -0.62228174547E+03  0.25519227022E+03  0.45873696070E+02  0.67413801370E+03  0.00000000000E+00 0. -1.
         -3    1    3    3    0  502 -0.88459611240E+03  0.24788823931E+03  0.73616351005E+02  0.92161718104E+03  0.00000000000E+00 0.  1.
         11    1    5    5    0    0  0.20642451945E+02  0.13722440094E+01 -0.10418483478E+02  0.23163304468E+02  0.00000000000E+00 0.  1.
        -11    1    5    5    0    0  0.12219821062E+04 -0.26164093647E+03 -0.40744666056E+01  0.12496850999E+04  0.00000000000E+00 0. -1.
          3    1    6    6  503    0  0.16690943250E+03 -0.18890445057E+03 -0.20909942160E+03  0.32751521830E+03  0.00000000000E+00 0. -1.
         -3    1    6    6    0  503  0.97343867178E+02 -0.53907366494E+02 -0.39480699922E+02  0.11807014147E+03  0.00000000000E+00 0.  1.
<mgrwt>
<rscale>  0 0.16124833E+04</rscale>
<asrwt>0</asrwt>
<pdfrwt beam="1">  1        2 0.26598246E+00 0.16124833E+04</pdfrwt>
<pdfrwt beam="2">  1       -2 0.24389277E+00 0.16124833E+04</pdfrwt>
<totfact> 0.61498118E-01</totfact>
</mgrwt>
</event>
<event>
12    1  0.1335216E-007  0.4848378E+03  0.7818608E-02  0.1017814E+00
          2   -1    0    0  501    0  0.00000000000E+00  0.00000000000E+00  0.94667435716E+03  0.94667435716E+03  0.00000000000E+00 0.  1.
         -2   -1    0    0    0  501 -0.00000000000E+00 -0.00000000000E+00 -0.37721464235E+03  0.37721464235E+03  0.00000000000E+00 0. -1.
         23    2    1    2    0    0  0.44479875731E+02  0.38254843153E+03 -0.23639840105E+02  0.39645278104E+03  0.91072519130E+02 0.  0.
    5000000    2    1    2    0    0 -0.44479875731E+02 -0.38254843153E+03  0.59309955491E+03  0.92743621847E+03  0.60004091150E+03 0.  0.
         23    2    4    4    0    0 -0.22405769519E+03 -0.15867505894E+03  0.55591305270E+03  0.62650709613E+03  0.89956624197E+02 0.  0.
         23    2    4    4    0    0  0.17957781946E+03 -0.22387337259E+03  0.37186502213E+02  0.30092912233E+03  0.82510729761E+02 0.  0.
          1    1    3    3  502    0  0.71043008176E+02  0.22495032905E+03 -0.16248125637E+02  0.23646090826E+03  0.00000000000E+00 0. -1.
         -1    1    3    3    0  502 -0.26563132445E+02  0.15759810248E+03 -0.73917144677E+01  0.15999187277E+03  0.00000000000E+00 0.  1.
         11    1    5    5    0    0 -0.14542735175E+03 -0.66018649674E+02  0.38483859205E+03  0.41666331573E+03  0.00000000000E+00 0. -1.
        -11    1    5    5    0    0 -0.78630343439E+02 -0.92656409265E+02  0.17107446065E+03  0.20984378040E+03  0.00000000000E+00 0.  1.
          1    1    6    6  503    0  0.17963024087E+03 -0.19992381008E+03  0.50583384775E+02  0.27348716987E+03  0.00000000000E+00 0. -1.
         -1    1    6    6    0  503 -0.52421407814E-01 -0.23949562512E+02 -0.13396882562E+02  0.27441952461E+02  0.00000000000E+00 0.  1.
<mgrwt>
<rscale>  0 0.48483779E+03</rscale>
<asrwt>0</asrwt>
<pdfrwt beam="1">  1        2 0.14564221E+00 0.48483779E+03</pdfrwt>
<pdfrwt beam="2">  1       -2 0.58033022E-01 0.48483779E+03</pdfrwt>
<totfact> 0.78827225E+01</totfact>
</mgrwt>
</event>
<event>
12    1  0.1335216E-007  0.9909142E+03  0.7818608E-02  0.9318566E-01
         -1   -1    0    0    0  501 -0.00000000000E+00  0.00000000000E+00  0.62670493568E+03  0.62670493568E+03  0.00000000000E+00 0.  1.
          1   -1    0    0  501    0  0.00000000000E+00 -0.00000000000E+00 -0.34525465882E+04  0.34525465882E+04  0.00000000000E+00 0. -1.
         23    2    1    2    0    0 -0.83027126414E+03 -0.48251563870E+03 -0.27839043445E+04  0.29460718193E+04  0.83928847372E+02 0.  0.
    5000000    2    1    2    0    0  0.83027126414E+03  0.48251563870E+03 -0.41937308076E+02  0.11331797047E+04  0.60013814376E+03 0.  0.
         23    2    4    4    0    0  0.60690147505E+03  0.16968703729E+03  0.20430898533E+03  0.66932120224E+03  0.95528107053E+02 0.  0.
         23    2    4    4    0    0  0.22336978909E+03  0.31282860141E+03 -0.24624629340E+03  0.46385850241E+03  0.82290198149E+02 0.  0.
          1    1    3    3  502    0 -0.44110074263E+03 -0.25685527011E+03 -0.16070794645E+04  0.16861936129E+04  0.00000000000E+00 0. -1.
         -1    1    3    3    0  502 -0.38917052151E+03 -0.22566036859E+03 -0.11768248799E+04  0.12598782063E+04  0.00000000000E+00 0.  1.
         13    1    5    5    0    0  0.13296324902E+03  0.55501763747E+02  0.96838020862E+01  0.14440722763E+03  0.00000000000E+00 0.  1.
        -13    1    5    5    0    0  0.47393822604E+03  0.11418527354E+03  0.19462518324E+03  0.52491397461E+03  0.00000000000E+00 0. -1.
          1    1    6    6  503    0  0.32012673211E+02  0.93753180758E+02 -0.37945201920E+02  0.10608632568E+03  0.00000000000E+00 0. -1.
         -1    1    6    6    0  503  0.19135711587E+03  0.21907542065E+03 -0.20830109148E+03  0.35777217673E+03  0.00000000000E+00 0.  1.
<mgrwt>
<rscale>  0 0.99091423E+03</rscale>
<asrwt>0</asrwt>
<pdfrwt beam="1">  1        1 0.53116101E+00 0.99091423E+03</pdfrwt>
<pdfrwt beam="2">  1       -1 0.96416144E-01 0.99091423E+03</pdfrwt>
<totfact> 0.29335454E-01</totfact>
</mgrwt>
</event>
<event>
12    1  0.1335216E-007  0.7258411E+03  0.7818608E-02  0.9674033E-01
         -1   -1    0    0    0  501 -0.00000000000E+00  0.00000000000E+00  0.79022678943E+03  0.79022678943E+03  0.00000000000E+00 0. -1.
          1   -1    0    0  501    0  0.00000000000E+00 -0.00000000000E+00 -0.11128475833E+04  0.11128475833E+04  0.00000000000E+00 0.  1.
         23    2    1    2    0    0  0.62276050776E+03 -0.16952889923E+03  0.39825083919E+03  0.76457294831E+03  0.96940005557E+02 0.  0.
    5000000    2    1    2    0    0 -0.62276050776E+03  0.16952889923E+03 -0.72087163308E+03  0.11385014244E+04  0.59996573599E+03 0.  0.
         23    2    4    4    0    0 -0.60878719217E+03 -0.15736179931E+01 -0.32496113403E+03  0.69732426411E+03  0.10018517386E+03 0.  0.
         23    2    4    4    0    0 -0.13973315586E+02  0.17110251723E+03 -0.39591049905E+03  0.44117716032E+03  0.91765127273E+02 0.  0.
          2    1    3    3  502    0  0.39124588423E+03 -0.13374563488E+03  0.29845859881E+03  0.50993996900E+03  0.00000000000E+00 0.  1.
         -2    1    3    3    0  502  0.23151462353E+03 -0.35783264355E+02  0.99792240377E+02  0.25463297932E+03  0.00000000000E+00 0. -1.
         13    1    5    5    0    0 -0.35897206167E+03  0.24376276537E+02 -0.14298527910E+03  0.38716912836E+03  0.00000000000E+00 0. -1.
        -13    1    5    5    0    0 -0.24981513051E+03 -0.25949894531E+02 -0.18197585493E+03  0.31015513575E+03  0.00000000000E+00 0.  1.
          2    1    6    6  503    0  0.29743813577E+02  0.12866614973E+03 -0.24280582897E+03  0.27639526609E+03  0.00000000000E+00 0. -1.
         -2    1    6    6    0  503 -0.43717129163E+02  0.42436367496E+02 -0.15310467007E+03  0.16478189423E+03  0.00000000000E+00 0.  1.
<mgrwt>
<rscale>  0 0.72584106E+03</rscale>
<asrwt>0</asrwt>
<pdfrwt beam="1">  1        1 0.17120732E+00 0.72584106E+03</pdfrwt>
<pdfrwt beam="2">  1       -1 0.12157335E+00 0.72584106E+03</pdfrwt>
<totfact> 0.77222924E+00</totfact>
</mgrwt>
</event>
<event>
12    1  0.1335216E-007  0.6020875E+03  0.7818608E-02  0.9901085E-01
          1   -1    0    0  501    0  0.00000000000E+00  0.00000000000E+00  0.27988177943E+04  0.27988177943E+04  0.00000000000E+00 0. -1.
         -1   -1    0    0    0  501 -0.00000000000E+00 -0.00000000000E+00 -0.16314336002E+03  0.16314336002E+03  0.00000000000E+00 0.  1.
         23    2    1    2    0    0  0.37790937565E+03 -0.36216172851E+03  0.13433158704E+04  0.14440612893E+04  0.82697434021E+02 0.  0.
    5000000    2    1    2    0    0 -0.37790937565E+03  0.36216172851E+03  0.12923585639E+04  0.15178998651E+04  0.59987726163E+03 0.  0.
         23    2    4    4    0    0 -0.35889972630E+02 -0.83701975411E+02  0.63609720096E+03  0.64908693888E+03  0.91652028513E+02 0.  0.
         23    2    4    4    0    0 -0.34201940302E+03  0.44586370392E+03  0.65626136291E+03  0.86881292621E+03  0.91570791110E+02 0.  0.
          3    1    3    3  502    0  0.16312765246E+03 -0.17605607223E+03  0.72162676092E+03  0.76049428245E+03  0.00000000000E+00 0. -1.
         -3    1    3    3    0  502  0.21478172319E+03 -0.18610565628E+03  0.62168910951E+03  0.68356700681E+03  0.00000000000E+00 0.  1.
         13    1    5    5    0    0 -0.54348327452E+02 -0.65170947882E+02  0.29428407936E+03  0.30627457046E+03  0.00000000000E+00 0. -1.
        -13    1    5    5    0    0  0.18458354822E+02 -0.18531027529E+02  0.34181312160E+03  0.34281236842E+03  0.00000000000E+00 0.  1.
          1    1    6    6  503    0 -0.22614302764E+03  0.22211465855E+03  0.34949952039E+03  0.47183207314E+03  0.00000000000E+00 0. -1.
         -1    1    6    6    0  503 -0.11587637538E+03  0.22374904537E+03  0.30676184252E+03  0.39698085307E+03  0.00000000000E+00 0.  1.
<mgrwt>
<rscale>  0 0.60208745E+03</rscale>
<asrwt>0</asrwt>
<pdfrwt beam="1">  1        1 0.43058732E+00 0.60208745E+03</pdfrwt>
<pdfrwt beam="2">  1       -1 0.25098981E-01 0.60208745E+03</pdfrwt>
<totfact> 0.12604543E+01</totfact>
</mgrwt>
</event>
<event>
12    1  0.1335216E-007  0.9910605E+03  0.7818608E-02  0.9318404E-01
          2   -1    0    0  501    0  0.00000000000E+00  0.00000000000E+00  0.64876201363E+03  0.64876201363E+03  0.00000000000E+00 0. -1.
         -2   -1    0    0    0  501 -0.00000000000E+00 -0.00000000000E+00 -0.18796366110E+04  0.18796366110E+04  0.00000000000E+00 0.  1.
         23    2    1    2    0    0 -0.90939835050E+03 -0.22282074376E+03 -0.10355686479E+04  0.13990043788E+04  0.90312698607E+02 0.  0.
    5000000    2    1    2    0    0  0.90939835050E+03  0.22282074376E+03 -0.19530594944E+03  0.11293942458E+04  0.60061011055E+03 0.  0.
         23    2    4    4    0    0  0.57437553786E+03  0.34923654189E+03  0.60088879370E+02  0.68108207561E+03  0.91589844517E+02 0.  0.
         23    2    4    4    0    0  0.33502281265E+03 -0.12641579812E+03 -0.25539482881E+03  0.44831217023E+03  0.86810393279E+02 0.  0.
          1    1    3    3  502    0 -0.82844255947E+03 -0.20642351870E+03 -0.97848202448E+03  0.12985972492E+04  0.00000000000E+00 0. -1.
         -1    1    3    3    0  502 -0.80955791031E+02 -0.16397225067E+02 -0.57086623405E+02  0.10040712954E+03  0.00000000000E+00 0.  1.
         13    1    5    5    0    0  0.41213016687E+03  0.20541956649E+03  0.59139676375E+02  0.46426929046E+03  0.00000000000E+00 0. -1.
        -13    1    5    5    0    0  0.16224537098E+03  0.14381697540E+03  0.94920299500E+00  0.21681278515E+03  0.00000000000E+00 0.  1.
          4    1    6    6  503    0  0.10445773329E+03 -0.83941717227E+02 -0.93562050141E+02  0.16343649275E+03  0.00000000000E+00 0. -1.
         -4    1    6    6    0  503  0.23056507936E+03 -0.42474080896E+02 -0.16183277867E+03  0.28487567748E+03  0.00000000000E+00 0.  1.
<mgrwt>
<rscale>  0 0.99106051E+03</rscale>
<asrwt>0</asrwt>
<pdfrwt beam="1">  1        2 0.99809540E-01 0.99106051E+03</pdfrwt>
<pdfrwt beam="2">  1       -2 0.28917487E+00 0.99106051E+03</pdfrwt>
<totfact> 0.16767919E+00</totfact>
</mgrwt>
</event>
<event>
12    1  0.1335216E-007  0.1586942E+04  0.7818608E-02  0.8828610E-01
         -2   -1    0    0    0  501 -0.00000000000E+00  0.00000000000E+00  0.86437101755E+03  0.86437101755E+03  0.00000000000E+00 0.  1.
          2   -1    0    0  501    0  0.00000000000E+00 -0.00000000000E+00 -0.40127375423E+04  0.40127375423E+04  0.00000000000E+00 0. -1.
         23    2    1    2    0    0  0.19737832880E+03 -0.15244888330E+04 -0.27928321809E+04  0.31891198044E+04  0.86885728582E+02 0.  0.
    5000000    2    1    2    0    0 -0.19737832880E+03  0.15244888330E+04 -0.35553434385E+03  0.16879887554E+04  0.59989745945E+03 0.  0.
         23    2    4    4    0    0  0.19019567393E+03  0.57307450138E+03 -0.21306735580E+03  0.64679011866E+03  0.91383701867E+02 0.  0.
         23    2    4    4    0    0 -0.38757400273E+03  0.95141433166E+03 -0.14246698804E+03  0.10411986367E+04  0.91623797846E+02 0.  0.
          1    1    3    3  502    0 -0.30357887847E+00 -0.21753930645E+03 -0.41745601870E+03  0.47073662441E+03  0.00000000000E+00 0. -1.
         -1    1    3    3    0  502  0.19768190768E+03 -0.13069495266E+04 -0.23753761622E+04  0.27183831800E+04  0.00000000000E+00 0.  1.
         11    1    5    5    0    0  0.84489840104E+02  0.25174937632E+03 -0.14203064568E+03  0.30114612046E+03  0.00000000000E+00 0.  1.
        -11    1    5    5    0    0  0.10570583383E+03  0.32132512506E+03 -0.71036710121E+02  0.34564399819E+03  0.00000000000E+00 0. -1.
          3    1    6    6  503    0 -0.74885255222E+02  0.10993088521E+03 -0.56764965645E+01  0.13313460702E+03  0.00000000000E+00 0. -1.
         -3    1    6    6    0  503 -0.31268874751E+03  0.84148344644E+03 -0.13679049148E+03  0.90806402969E+03  0.00000000000E+00 0.  1.
<mgrwt>
<rscale>  0 0.15869423E+04</rscale>
<asrwt>0</asrwt>
<pdfrwt beam="1">  1        2 0.61734424E+00 0.15869423E+04</pdfrwt>
<pdfrwt beam="2">  1       -2 0.13298016E+00 0.15869423E+04</pdfrwt>
<totfact> 0.13051961E-01</totfact>
</mgrwt>
</event>
<event>
12    1  0.1335216E-007  0.6712104E+03  0.7818608E-02  0.9767774E-01
         -1   -1    0    0    0  501 -0.00000000000E+00  0.00000000000E+00  0.11047324809E+04  0.11047324809E+04  0.00000000000E+00 0.  1.
          1   -1    0    0  501    0  0.00000000000E+00 -0.00000000000E+00 -0.69276042217E+03  0.69276042217E+03  0.00000000000E+00 0. -1.
         23    2    1    2    0    0  0.44450846293E+03  0.48098684840E+03 -0.23139506563E+03  0.70057137866E+03  0.91216545953E+02 0.  0.
    5000000    2    1    2    0    0 -0.44450846293E+03 -0.48098684840E+03  0.64336712438E+03  0.10969215244E+04  0.60031612678E+03 0.  0.
         23    2    4    4    0    0 -0.40855447339E+03 -0.43125804605E+03  0.73807431980E+03  0.95187463531E+03  0.91713465697E+02 0.  0.
         23    2    4    4    0    0 -0.35953989540E+02 -0.49728802343E+02 -0.94707195418E+02  0.14504688912E+03  0.91123564640E+02 0.  0.
          1    1    3    3  502    0  0.12741630447E+03  0.16250053005E+03 -0.11483004124E+03  0.23627796190E+03  0.00000000000E+00 0. -1.
         -1    1    3    3    0  502  0.31709215846E+03  0.31848631835E+03 -0.11656502439E+03  0.46429341676E+03  0.00000000000E+00 0.  1.
         13    1    5    5    0    0 -0.38754856243E+03 -0.40589235284E+03  0.72406274476E+03  0.91608370179E+03  0.00000000000E+00 0.  1.
        -13    1    5    5    0    0 -0.21005910957E+02 -0.25365693214E+02  0.14011575044E+02  0.35790933525E+02  0.00000000000E+00 0. -1.
          3    1    6    6  503    0  0.17208268215E+02 -0.31989947433E+02 -0.15828968447E+01  0.36359136322E+02  0.00000000000E+00 0. -1.
         -3    1    6    6    0  503 -0.53162257755E+02 -0.17738854910E+02 -0.93124298573E+02  0.10868775280E+03  0.00000000000E+00 0.  1.
<mgrwt>
<rscale>  0 0.67121035E+03</rscale>
<asrwt>0</asrwt>
<pdfrwt beam="1">  1        1 0.10657853E+00 0.67121035E+03</pdfrwt>
<pdfrwt beam="2">  1       -1 0.16995884E+00 0.67121035E+03</pdfrwt>
<totfact> 0.71234713E+00</totfact>
</mgrwt>
</event>
<event>
12    1  0.1335216E-007  0.1488442E+04  0.7818608E-02  0.8892175E-01
          1   -1    0    0  501    0  0.00000000000E+00  0.00000000000E+00  0.33659262143E+04  0.33659262143E+04  0.00000000000E+00 0. -1.
         -1   -1    0    0    0  501 -0.00000000000E+00 -0.00000000000E+00 -0.77307974030E+03  0.77307974030E+03  0.00000000000E+00 0.  1.
         23    2    1    2    0    0  0.11143945815E+04  0.91880099288E+03  0.50998752550E+03  0.15342872395E+04  0.88766600074E+02 0.  0.
    5000000    2    1    2    0    0 -0.11143945815E+04 -0.91880099288E+03  0.20828589485E+04  0.26047187151E+04  0.60015634428E+03 0.  0.
         23    2    4    4    0    0 -0.14005405539E+03 -0.38443612293E+03  0.81581469337E+03  0.91722089079E+03  0.91292264360E+02 0.  0.
         23    2    4    4    0    0 -0.97434052613E+03 -0.53436486996E+03  0.12670442551E+04  0.16874978243E+04  0.85804938611E+02 0.  0.
          3    1    3    3  502    0  0.81741092833E+03  0.69428065633E+03  0.41584882418E+03  0.11502680123E+04  0.00000000000E+00 0. -1.
         -3    1    3    3    0  502  0.29698365318E+03  0.22452033655E+03  0.94138701314E+02  0.38401922721E+03  0.00000000000E+00 0.  1.
         11    1    5    5    0    0 -0.17674671844E+02 -0.17317710212E+03  0.37097502198E+03  0.40978673680E+03  0.00000000000E+00 0.  1.
        -11    1    5    5    0    0 -0.12237938354E+03 -0.21125902081E+03  0.44483967139E+03  0.50743415399E+03  0.00000000000E+00 0. -1.
          4    1    6    6  503    0 -0.70448214242E+03 -0.42474550067E+03  0.96104784600E+03  0.12650362808E+04  0.00000000000E+00 0. -1.
         -4    1    6    6    0  503 -0.26985838371E+03 -0.10961936929E+03  0.30599640911E+03  0.42246154354E+03  0.00000000000E+00 0.  1.
<mgrwt>
<rscale>  0 0.14884423E+04</rscale>
<asrwt>0</asrwt>
<pdfrwt beam="1">  1        1 0.51783480E+00 0.14884423E+04</pdfrwt>
<pdfrwt beam="2">  1       -1 0.11893535E+00 0.14884423E+04</pdfrwt>
<totfact> 0.19315596E-01</totfact>
</mgrwt>
</event>
<event>
12    1  0.1335216E-007  0.7127528E+03  0.7818608E-02  0.9695668E-01
          2   -1    0    0  501    0  0.00000000000E+00  0.00000000000E+00  0.10638630772E+04  0.10638630772E+04  0.00000000000E+00 0. -1.
         -2   -1    0    0    0  501 -0.00000000000E+00 -0.00000000000E+00 -0.55643467542E+03  0.55643467542E+03  0.00000000000E+00 0.  1.
         23    2    1    2    0    0  0.27514783612E+03 -0.58643977373E+03  0.18089567713E+03  0.67894809394E+03  0.92894178130E+02 0.  0.
    5000000    2    1    2    0    0 -0.27514783612E+03  0.58643977373E+03  0.32653272461E+03  0.94134965865E+03  0.59991467699E+03 0.  0.
         23    2    4    4    0    0  0.50960643517E+02  0.21601579042E+01  0.23571752688E+03  0.25855928365E+03  0.93212108728E+02 0.  0.
         23    2    4    4    0    0 -0.32610847963E+03  0.58427961582E+03  0.90815197733E+02  0.68279037500E+03  0.10112312345E+03 0.  0.
          4    1    3    3  502    0  0.17432809451E+03 -0.26235027777E+03  0.85394808269E+02  0.32635904470E+03  0.00000000000E+00 0. -1.
         -4    1    3    3    0  502  0.10081974161E+03 -0.32408949596E+03  0.95500868864E+02  0.35258904924E+03  0.00000000000E+00 0.  1.
         13    1    5    5    0    0 -0.10690758289E+02  0.26891846313E+02  0.13388127557E+03  0.13697320782E+03  0.00000000000E+00 0. -1.
        -13    1    5    5    0    0  0.61651401805E+02 -0.24731688408E+02  0.10183625131E+03  0.12158607584E+03  0.00000000000E+00 0.  1.
          4    1    6    6  503    0 -0.29954978639E+03  0.46201028778E+03  0.88215217580E+02  0.55764281144E+03  0.00000000000E+00 0. -1.
         -4    1    6    6    0  503 -0.26558693238E+02  0.12226932804E+03  0.25999801533E+01  0.12514756355E+03  0.00000000000E+00 0.  1.
<mgrwt>
<rscale>  0 0.71275284E+03</rscale>
<asrwt>0</asrwt>
<pdfrwt beam="1">  1        2 0.16367124E+00 0.71275284E+03</pdfrwt>
<pdfrwt beam="2">  1       -2 0.85605335E-01 0.71275284E+03</pdfrwt>
<totfact> 0.27769195E+01</totfact>
</mgrwt>
</event>
<event>
12    1  0.1335216E-007  0.1512319E+04  0.7818608E-02  0.8876302E-01
          1   -1    0    0  501    0  0.00000000000E+00  0.00000000000E+00  0.21934773468E+04  0.21934773468E+04  0.00000000000E+00 0. -1.
         -1   -1    0    0    0  501 -0.00000000000E+00 -0.00000000000E+00 -0.11821111702E+04  0.11821111702E+04  0.00000000000E+00 0.  1.
         23    2    1    2    0    0  0.14336371469E+04 -0.25498950136E+03  0.10544054454E+04  0.18000771377E+04  0.90397695945E+02 0.  0.
    5000000    2    1    2    0    0 -0.14336371469E+04  0.25498950136E+03 -0.43039268914E+02  0.15755113793E+04  0.60004050944E+03 0.  0.
         23    2    4    4    0    0 -0.13209745222E+03 -0.13802290060E+03 -0.18072737100E+02  0.21274566728E+03  0.91837014023E+02 0.  0.
         23    2    4    4    0    0 -0.13015396947E+04  0.39301240197E+03 -0.24966531814E+02  0.13627657121E+04  0.89681287487E+02 0.  0.
          3    1    3    3  502    0  0.52810264462E+02 -0.24010877462E+02  0.30054705353E+02  0.65335530785E+02  0.00000000000E+00 0. -1.
         -3    1    3    3    0  502  0.13808268824E+04 -0.23097862390E+03  0.10243507401E+04  0.17347416069E+04  0.00000000000E+00 0.  1.
         11    1    5    5    0    0 -0.38575965855E+02  0.13093770209E+01 -0.22876619073E+02  0.44868243893E+02  0.00000000000E+00 0. -1.
        -11    1    5    5    0    0 -0.93521486364E+02 -0.13933227762E+03  0.48038819731E+01  0.16787742338E+03  0.00000000000E+00 0.  1.
          1    1    6    6  503    0 -0.32019903068E+03  0.78254119330E+02 -0.40234327135E+02  0.33206916075E+03  0.00000000000E+00 0. -1.
         -1    1    6    6    0  503 -0.98134066399E+03  0.31475828264E+03  0.15267795321E+02  0.10306965513E+04  0.00000000000E+00 0.  1.
<mgrwt>
<rscale>  0 0.15123188E+04</rscale>
<asrwt>0</asrwt>
<pdfrwt beam="1">  1        1 0.33745805E+00 0.15123188E+04</pdfrwt>
<pdfrwt beam="2">  1       -1 0.18186326E+00 0.15123188E+04</pdfrwt>
<totfact> 0.41983083E-01</totfact>
</mgrwt>
</event>
<event>
12    1  0.1335216E-007  0.1827205E+03  0.7818608E-02  0.1165196E+00
         -2   -1    0    0    0  501 -0.00000000000E+00  0.00000000000E+00  0.67109816362E+03  0.67109816362E+03  0.00000000000E+00 0. -1.
          2   -1    0    0  501    0  0.00000000000E+00 -0.00000000000E+00 -0.12590132898E+04  0.12590132898E+04  0.00000000000E+00 0.  1.
         23    2    1    2    0    0 -0.46930498061E+02  0.78718875054E+02  0.59071505697E+03  0.60437021637E+03  0.88994083878E+02 0.  0.
    5000000    2    1    2    0    0  0.46930498061E+02 -0.78718875054E+02 -0.11786301832E+04  0.13257412371E+04  0.60001798808E+03 0.  0.
         23    2    4    4    0    0  0.68647848864E+02 -0.13582376460E+03 -0.12017343130E+04  0.12154854118E+04  0.10039325188E+03 0.  0.
         23    2    4    4    0    0 -0.21717350803E+02  0.57104889541E+02  0.23104129788E+02  0.11025582532E+03  0.88825303085E+02 0.  0.
          1    1    3    3  502    0 -0.61727195835E+02  0.30430583101E+02  0.22812863691E+03  0.23828332310E+03  0.00000000000E+00 0. -1.
         -1    1    3    3    0  502  0.14796697774E+02  0.48288291954E+02  0.36258642007E+03  0.36608689327E+03  0.00000000000E+00 0.  1.
         13    1    5    5    0    0  0.38183569905E+02 -0.11803240676E+03 -0.59856609806E+03  0.61128635500E+03  0.00000000000E+00 0. -1.
        -13    1    5    5    0    0  0.30464278959E+02 -0.17791357840E+02 -0.60316821493E+03  0.60419905677E+03  0.00000000000E+00 0.  1.
          4    1    6    6  503    0 -0.43498312625E+02  0.36174959168E+02  0.45541285317E+02  0.72627402132E+02  0.00000000000E+00 0. -1.
         -4    1    6    6    0  503  0.21780961823E+02  0.20929930373E+02 -0.22437155529E+02  0.37628423188E+02  0.00000000000E+00 0.  1.
<mgrwt>
<rscale>  0 0.18272054E+03</rscale>
<asrwt>0</asrwt>
<pdfrwt beam="1">  1        2 0.19369435E+00 0.18272054E+03</pdfrwt>
<pdfrwt beam="2">  1       -2 0.10324587E+00 0.18272054E+03</pdfrwt>
<totfact> 0.15554805E+01</totfact>
</mgrwt>
</event>
<event>
12    1  0.1335216E-007  0.7515384E+03  0.7818608E-02  0.9632940E-01
         -1   -1    0    0    0  501 -0.00000000000E+00  0.00000000000E+00  0.74616685480E+03  0.74616685480E+03  0.00000000000E+00 0.  1.
          1   -1    0    0  501    0  0.00000000000E+00 -0.00000000000E+00 -0.11633924561E+04  0.11633924561E+04  0.00000000000E+00 0. -1.
         23    2    1    2    0    0 -0.67678625158E+03 -0.10545136946E+03  0.29683523034E+03  0.75231359717E+03  0.93300444047E+02 0.  0.
    5000000    2    1    2    0    0  0.67678625158E+03  0.10545136946E+03 -0.71406083159E+03  0.11572457137E+04  0.60014593973E+03 0.  0.
         23    2    4    4    0    0  0.66756724485E+03 -0.22432025054E+02 -0.35044212773E+03  0.75982916843E+03  0.91550304006E+02 0.  0.
         23    2    4    4    0    0  0.92190067363E+01  0.12788339451E+03 -0.36361870386E+03  0.39741654526E+03  0.96344153799E+02 0.  0.
          3    1    3    3  502    0 -0.44257502806E+03 -0.26651938084E+02  0.17328125840E+03  0.47603505730E+03  0.00000000000E+00 0. -1.
         -3    1    3    3    0  502 -0.23421122352E+03 -0.78799431373E+02  0.12355397194E+03  0.27627853987E+03  0.00000000000E+00 0.  1.
         11    1    5    5    0    0  0.35137830042E+03  0.33379093883E+02 -0.17544992222E+03  0.39416183114E+03  0.00000000000E+00 0.  1.
        -11    1    5    5    0    0  0.31618894442E+03 -0.55811118937E+02 -0.17499220551E+03  0.36566733729E+03  0.00000000000E+00 0. -1.
          3    1    6    6  503    0  0.20340305316E+02  0.15382463382E+02 -0.17992602292E+03  0.18172430196E+03  0.00000000000E+00 0. -1.
         -3    1    6    6    0  503 -0.11121298580E+02  0.11250093113E+03 -0.18369268094E+03  0.21569224330E+03  0.00000000000E+00 0.  1.
<mgrwt>
<rscale>  0 0.75153841E+03</rscale>
<asrwt>0</asrwt>
<pdfrwt beam="1">  1        1 0.17898345E+00 0.75153841E+03</pdfrwt>
<pdfrwt beam="2">  1       -1 0.11479490E+00 0.75153841E+03</pdfrwt>
<totfact> 0.81122936E+00</totfact>
</mgrwt>
</event>
<event>
12    1  0.1335216E-007  0.5588322E+03  0.7818608E-02  0.9994701E-01
         -2   -1    0    0    0  501 -0.00000000000E+00  0.00000000000E+00  0.44766690132E+03  0.44766690132E+03  0.00000000000E+00 0.  1.
          2   -1    0    0  501    0  0.00000000000E+00 -0.00000000000E+00 -0.99274763222E+03  0.99274763222E+03  0.00000000000E+00 0. -1.
         23    2    1    2    0    0  0.49427733253E+03 -0.17789966130E+03 -0.17733509363E+03  0.56221038097E+03  0.93136491711E+02 0.  0.
    5000000    2    1    2    0    0 -0.49427733253E+03  0.17789966130E+03 -0.36774563726E+03  0.87820415257E+03  0.60003942280E+03 0.  0.
         23    2    4    4    0    0 -0.29509163011E+03 -0.25949133484E+02 -0.47094335100E+03  0.56327863239E+03  0.87992898412E+02 0.  0.
         23    2    4    4    0    0 -0.19918570243E+03  0.20384879478E+03  0.10319771374E+03  0.31492552018E+03  0.85434419016E+02 0.  0.
          3    1    3    3  502    0  0.20773868671E+03 -0.11164371535E+03 -0.46766941401E+02  0.24043050543E+03  0.00000000000E+00 0. -1.
         -3    1    3    3    0  502  0.28653864583E+03 -0.66255945945E+02 -0.13056815223E+03  0.32177987554E+03  0.00000000000E+00 0.  1.
         13    1    5    5    0    0 -0.19700055525E+03 -0.43570709956E+02 -0.36994955704E+03  0.42139091149E+03  0.00000000000E+00 0. -1.
        -13    1    5    5    0    0 -0.98091074854E+02  0.17621576473E+02 -0.10099379397E+03  0.14188772090E+03  0.00000000000E+00 0.  1.
          4    1    6    6  503    0 -0.13111866173E+03  0.15200127381E+03  0.31302238136E+02  0.20316574712E+03  0.00000000000E+00 0.  1.
         -4    1    6    6    0  503 -0.68067040699E+02  0.51847520976E+02  0.71895475602E+02  0.11175977305E+03  0.00000000000E+00 0. -1.
<mgrwt>
<rscale>  0 0.55883215E+03</rscale>
<asrwt>0</asrwt>
<pdfrwt beam="1">  1        2 0.15273040E+00 0.55883215E+03</pdfrwt>
<pdfrwt beam="2">  1       -2 0.68871832E-01 0.55883215E+03</pdfrwt>
<totfact> 0.50755707E+01</totfact>
</mgrwt>
</event>
<event>
12    1  0.1335216E-007  0.8709028E+03  0.7818608E-02  0.9462704E-01
         -2   -1    0    0    0  501 -0.00000000000E+00  0.00000000000E+00  0.44769138866E+03  0.44769138866E+03  0.00000000000E+00 0.  1.
          2   -1    0    0  501    0  0.00000000000E+00 -0.00000000000E+00 -0.25291708480E+04  0.25291708480E+04  0.00000000000E+00 0. -1.
         23    2    1    2    0    0  0.27695404803E+03 -0.72065176278E+03 -0.12218335398E+03  0.78719410575E+03  0.93291372668E+02 0.  0.
    5000000    2    1    2    0    0 -0.27695404803E+03  0.72065176278E+03 -0.19592961054E+04  0.21896681309E+04  0.59980229003E+03 0.  0.
         23    2    4    4    0    0  0.27513181786E+02  0.63780108655E+03 -0.11847779661E+04  0.13489296198E+04  0.91460859746E+02 0.  0.
         23    2    4    4    0    0 -0.30446722982E+03  0.82850676235E+02 -0.77451813927E+03  0.84073851119E+03  0.86013763729E+02 0.  0.
          1    1    3    3  502    0  0.20622114061E+03 -0.55344937973E+03 -0.53315751094E+02  0.59302271800E+03  0.00000000000E+00 0. -1.
         -1    1    3    3    0  502  0.70732907421E+02 -0.16720238306E+03 -0.68867602884E+02  0.19417138774E+03  0.00000000000E+00 0.  1.
         13    1    5    5    0    0 -0.26659533901E+02  0.37033151466E+03 -0.71420322909E+03  0.80494870268E+03  0.00000000000E+00 0.  1.
        -13    1    5    5    0    0  0.54172715688E+02  0.26746957188E+03 -0.47057473704E+03  0.54398091708E+03  0.00000000000E+00 0. -1.
          3    1    6    6  503    0 -0.64630010140E+02 -0.15111912632E+02 -0.12658668384E+03  0.14293213998E+03  0.00000000000E+00 0. -1.
         -3    1    6    6    0  503 -0.23983721967E+03  0.97962588867E+02 -0.64793145544E+03  0.69780637121E+03  0.00000000000E+00 0.  1.
<mgrwt>
<rscale>  0 0.87090276E+03</rscale>
<asrwt>0</asrwt>
<pdfrwt beam="1">  1        2 0.38910321E+00 0.87090276E+03</pdfrwt>
<pdfrwt beam="2">  1       -2 0.68875598E-01 0.87090276E+03</pdfrwt>
<totfact> 0.66402974E+00</totfact>
</mgrwt>
</event>
<event>
12    1  0.1335216E-007  0.8169257E+03  0.7818608E-02  0.9535836E-01
         -1   -1    0    0    0  501 -0.00000000000E+00  0.00000000000E+00  0.33733214547E+03  0.33733214547E+03  0.00000000000E+00 0.  1.
          1   -1    0    0  501    0  0.00000000000E+00 -0.00000000000E+00 -0.23246827777E+04  0.23246827777E+04  0.00000000000E+00 0. -1.
         23    2    1    2    0    0  0.73227103942E+02  0.77005104967E+03 -0.72202546242E+03  0.10622141776E+04  0.92937413809E+02 0.  0.
    5000000    2    1    2    0    0 -0.73227103942E+02 -0.77005104967E+03 -0.12653251698E+04  0.15998007455E+04  0.59997817646E+03 0.  0.
         23    2    4    4    0    0  0.50701731913E+02 -0.67424342685E+03 -0.59640480707E+03  0.90609541622E+03  0.90196148102E+02 0.  0.
         23    2    4    4    0    0 -0.12392883585E+03 -0.95807622822E+02 -0.66892036271E+03  0.69370532930E+03  0.96099819456E+02 0.  0.
          3    1    3    3  502    0  0.36392186429E+02  0.32117254460E+03 -0.36450316011E+03  0.48717424847E+03  0.00000000000E+00 0. -1.
         -3    1    3    3    0  502  0.36834917512E+02  0.44887850507E+03 -0.35752230230E+03  0.57503992914E+03  0.00000000000E+00 0.  1.
         13    1    5    5    0    0  0.27898637600E+02 -0.23277308103E+03 -0.26356305396E+03  0.35274229211E+03  0.00000000000E+00 0. -1.
        -13    1    5    5    0    0  0.22803094313E+02 -0.44147034582E+03 -0.33284175311E+03  0.55335312411E+03  0.00000000000E+00 0.  1.
          4    1    6    6  503    0 -0.11862089725E+01 -0.54085572872E+02 -0.19084030640E+03  0.19835997286E+03  0.00000000000E+00 0. -1.
         -4    1    6    6    0  503 -0.12274262688E+03 -0.41722049950E+02 -0.47808005631E+03  0.49534535644E+03  0.00000000000E+00 0.  1.
<mgrwt>
<rscale>  0 0.81692567E+03</rscale>
<asrwt>0</asrwt>
<pdfrwt beam="1">  1        1 0.35764351E+00 0.81692567E+03</pdfrwt>
<pdfrwt beam="2">  1       -1 0.51897252E-01 0.81692567E+03</pdfrwt>
<totfact> 0.69714624E+00</totfact>
</mgrwt>
</event>
<event>
12    1  0.1335216E-007  0.1288001E+04  0.7818608E-02  0.9039135E-01
         -2   -1    0    0    0  501 -0.00000000000E+00  0.00000000000E+00  0.11857269797E+04  0.11857269797E+04  0.00000000000E+00 0.  1.
          2   -1    0    0  501    0  0.00000000000E+00 -0.00000000000E+00 -0.17787982962E+04  0.17787982962E+04  0.00000000000E+00 0. -1.
         23    2    1    2    0    0  0.32003429463E+03  0.11984023289E+04  0.35321529666E+03  0.12926976322E+04  0.87840941411E+02 0.  0.
    5000000    2    1    2    0    0 -0.32003429463E+03 -0.11984023289E+04 -0.94628661314E+03  0.16718276438E+04  0.60079882214E+03 0.  0.
         23    2    4    4    0    0 -0.14090025171E+03 -0.11151886486E+04 -0.64208613262E+03  0.12977400671E+04  0.91411580830E+02 0.  0.
         23    2    4    4    0    0 -0.17913404293E+03 -0.83213680211E+02 -0.30420048051E+03  0.37408757664E+03  0.91597274741E+02 0.  0.
          2    1    3    3  502    0  0.18660682500E+03  0.52967996885E+03  0.15665706958E+03  0.58303037141E+03  0.00000000000E+00 0. -1.
         -2    1    3    3    0  502  0.13342746964E+03  0.66872236000E+03  0.19655822708E+03  0.70966726080E+03  0.00000000000E+00 0.  1.
         13    1    5    5    0    0 -0.98098010541E+02 -0.64685789696E+03 -0.42167175078E+03  0.77836715240E+03  0.00000000000E+00 0.  1.
        -13    1    5    5    0    0 -0.42802241168E+02 -0.46833075168E+03 -0.22041438185E+03  0.51937291472E+03  0.00000000000E+00 0. -1.
          1    1    6    6  503    0 -0.22094355905E+02  0.11163628437E+02 -0.83988613165E+01  0.26140543876E+02  0.00000000000E+00 0. -1.
         -1    1    6    6    0  503 -0.15703968702E+03 -0.94377308648E+02 -0.29580161920E+03  0.34794703276E+03  0.00000000000E+00 0.  1.
<mgrwt>
<rscale>  0 0.12880008E+04</rscale>
<asrwt>0</asrwt>
<pdfrwt beam="1">  1        2 0.27366127E+00 0.12880008E+04</pdfrwt>
<pdfrwt beam="2">  1       -2 0.18241954E+00 0.12880008E+04</pdfrwt>
<totfact> 0.14872329E+00</totfact>
</mgrwt>
</event>
<event>
12    1  0.1335216E-007  0.4950583E+03  0.7818608E-02  0.1015077E+00
          1   -1    0    0  501    0  0.00000000000E+00  0.00000000000E+00  0.22584459537E+03  0.22584459537E+03  0.00000000000E+00 0. -1.
         -1   -1    0    0    0  501 -0.00000000000E+00 -0.00000000000E+00 -0.16417353694E+04  0.16417353694E+04  0.00000000000E+00 0.  1.
         23    2    1    2    0    0  0.15012698569E+03 -0.30590143847E+03 -0.76702059569E+02  0.36091861380E+03  0.90913354108E+02 0.  0.
    5000000    2    1    2    0    0 -0.15012698569E+03  0.30590143847E+03 -0.13391887145E+04  0.15066613510E+04  0.60040670523E+03 0.  0.
         23    2    4    4    0    0  0.50103334047E+02  0.40892963382E+03 -0.63607226999E+03  0.76296685671E+03  0.88298937007E+02 0.  0.
         23    2    4    4    0    0 -0.20023031974E+03 -0.10302819536E+03 -0.70311644446E+03  0.74369449426E+03  0.89452648602E+02 0.  0.
          2    1    3    3  502    0  0.66823277512E+02 -0.65918229155E+02  0.52082639512E+01  0.94008985559E+02  0.00000000000E+00 0. -1.
         -2    1    3    3    0  502  0.83303708182E+02 -0.23998320931E+03 -0.81910323520E+02  0.26690962824E+03  0.00000000000E+00 0.  1.
         11    1    5    5    0    0  0.28828426565E+02  0.16813216812E+03 -0.34287666654E+03  0.38296724741E+03  0.00000000000E+00 0. -1.
        -11    1    5    5    0    0  0.21274907482E+02  0.24079746570E+03 -0.29319560345E+03  0.37999960929E+03  0.00000000000E+00 0.  1.
          3    1    6    6  503    0 -0.49915944154E+02 -0.43832207964E+01 -0.73833557945E+02  0.89231207457E+02  0.00000000000E+00 0. -1.
         -3    1    6    6    0  503 -0.15031437559E+03 -0.98644974559E+02 -0.62928288651E+03  0.65446328680E+03  0.00000000000E+00 0.  1.
<mgrwt>
<rscale>  0 0.49505825E+03</rscale>
<asrwt>0</asrwt>
<pdfrwt beam="1">  1        1 0.34745321E-01 0.49505825E+03</pdfrwt>
<pdfrwt beam="2">  1       -1 0.25257468E+00 0.49505825E+03</pdfrwt>
<totfact> 0.91644235E+00</totfact>
</mgrwt>
</event>
<event>
12    1  0.1335216E-007  0.8031331E+03  0.7818608E-02  0.9555493E-01
         -1   -1    0    0    0  501 -0.00000000000E+00  0.00000000000E+00  0.67965007479E+03  0.67965007479E+03  0.00000000000E+00 0.  1.
          1   -1    0    0  501    0  0.00000000000E+00 -0.00000000000E+00 -0.19693783084E+04  0.19693783084E+04  0.00000000000E+00 0. -1.
         23    2    1    2    0    0  0.32603800435E+03 -0.71998135654E+03  0.23463343990E+03  0.83009994748E+03  0.96639213760E+02 0.  0.
    5000000    2    1    2    0    0 -0.32603800435E+03  0.71998135654E+03 -0.15243616735E+04  0.18189284357E+04  0.60012349440E+03 0.  0.
         23    2    4    4    0    0 -0.14106654364E+03  0.21197303220E+03 -0.90037871878E+02  0.28328537028E+03  0.85506996935E+02 0.  0.
         23    2    4    4    0    0 -0.18497146071E+03  0.50800832434E+03 -0.14343238016E+04  0.15356430654E+04  0.92886800090E+02 0.  0.
          3    1    3    3  502    0  0.26990058609E+03 -0.54005735317E+03  0.14262491031E+03  0.62036290680E+03  0.00000000000E+00 0. -1.
         -3    1    3    3    0  502  0.56137418264E+02 -0.17992400337E+03  0.92008529588E+02  0.20973704068E+03  0.00000000000E+00 0.  1.
         13    1    5    5    0    0 -0.25969371190E+02  0.10684820048E+03 -0.57345671935E+02  0.12401400032E+03  0.00000000000E+00 0. -1.
        -13    1    5    5    0    0 -0.11509717245E+03  0.10512483172E+03 -0.32692199943E+02  0.15927136995E+03  0.00000000000E+00 0.  1.
          1    1    6    6  503    0 -0.29944796434E+02  0.21154349136E+03 -0.58607847741E+03  0.62380711863E+03  0.00000000000E+00 0. -1.
         -1    1    6    6    0  503 -0.15502666428E+03  0.29646483298E+03 -0.84824532419E+03  0.91183594678E+03  0.00000000000E+00 0.  1.
<mgrwt>
<rscale>  0 0.80313309E+03</rscale>
<asrwt>0</asrwt>
<pdfrwt beam="1">  1        1 0.30298128E+00 0.80313309E+03</pdfrwt>
<pdfrwt beam="2">  1       -1 0.10456155E+00 0.80313309E+03</pdfrwt>
<totfact> 0.28008465E+00</totfact>
</mgrwt>
</event>
<event>
12    1  0.1335216E-007  0.1424556E+04  0.7818608E-02  0.8936233E-01
          2   -1    0    0  501    0  0.00000000000E+00  0.00000000000E+00  0.17499657381E+04  0.17499657381E+04  0.00000000000E+00 0. -1.
         -2   -1    0    0    0  501 -0.00000000000E+00 -0.00000000000E+00 -0.16869423016E+04  0.16869423016E+04  0.00000000000E+00 0.  1.
         23    2    1    2    0    0 -0.13643703645E+04  0.29816779999E+02 -0.92243615785E+03  0.16497236892E+04  0.91127677729E+02 0.  0.
    5000000    2    1    2    0    0  0.13643703645E+04 -0.29816779999E+02  0.98545959434E+03  0.17871843505E+04  0.60041798691E+03 0.  0.
         23    2    4    4    0    0  0.55966132476E+03  0.26726292131E+03  0.37002945798E+03  0.72768732081E+03  0.89200726233E+02 0.  0.
         23    2    4    4    0    0  0.80470903970E+03 -0.29707970131E+03  0.61543013636E+03  0.10594970297E+04  0.89256460737E+02 0.  0.
          4    1    3    3  502    0 -0.68051808186E+03  0.48319441267E+02 -0.42325756093E+03  0.80286150177E+03  0.00000000000E+00 0. -1.
         -4    1    3    3    0  502 -0.68385228260E+03 -0.18502661268E+02 -0.49917859692E+03  0.84686218744E+03  0.00000000000E+00 0.  1.
         11    1    5    5    0    0  0.18007984159E+03  0.98279057984E+02  0.76435648291E+02  0.21892905452E+03  0.00000000000E+00 0.  1.
        -11    1    5    5    0    0  0.37958148317E+03  0.16898386333E+03  0.29359380969E+03  0.50875826629E+03  0.00000000000E+00 0. -1.
          4    1    6    6  503    0  0.61051627398E+03 -0.26394272380E+03  0.46298251103E+03  0.81040032561E+03  0.00000000000E+00 0. -1.
         -4    1    6    6    0  503  0.19419276572E+03 -0.33136977513E+02  0.15244762533E+03  0.24909670412E+03  0.00000000000E+00 0.  1.
<mgrwt>
<rscale>  0 0.14245557E+04</rscale>
<asrwt>0</asrwt>
<pdfrwt beam="1">  1        2 0.26922550E+00 0.14245557E+04</pdfrwt>
<pdfrwt beam="2">  1       -2 0.25952958E+00 0.14245557E+04</pdfrwt>
<totfact> 0.48889935E-01</totfact>
</mgrwt>
</event>
<event>
12    1  0.1335216E-007  0.1590680E+04  0.7818608E-02  0.8826294E-01
          2   -1    0    0  501    0  0.00000000000E+00  0.00000000000E+00  0.21766813506E+04  0.21766813506E+04  0.00000000000E+00 0.  1.
         -2   -1    0    0    0  501 -0.00000000000E+00 -0.00000000000E+00 -0.13937740272E+04  0.13937740272E+04  0.00000000000E+00 0. -1.
         23    2    1    2    0    0 -0.13454995551E+04 -0.75655552130E+03 -0.32220964787E+03  0.15794804811E+04  0.90521949847E+02 0.  0.
    5000000    2    1    2    0    0  0.13454995551E+04  0.75655552130E+03  0.11051169712E+04  0.19909748967E+04  0.59996017336E+03 0.  0.
         23    2    4    4    0    0  0.69781972309E+03  0.93584384448E+02  0.60923633406E+03  0.93540101715E+03  0.89976381356E+02 0.  0.
         23    2    4    4    0    0  0.64767983203E+03  0.66297113685E+03  0.49588063712E+03  0.10555738795E+04  0.96533495608E+02 0.  0.
          3    1    3    3  502    0 -0.45481325570E+03 -0.29005810359E+03 -0.80827227303E+02  0.54545562761E+03  0.00000000000E+00 0.  1.
         -3    1    3    3    0  502 -0.89068629942E+03 -0.46649741771E+03 -0.24138242056E+03  0.10340248535E+04  0.00000000000E+00 0. -1.
         11    1    5    5    0    0  0.24424004185E+03  0.17626610318E+02  0.16006399223E+03  0.29254807647E+03  0.00000000000E+00 0.  1.
        -11    1    5    5    0    0  0.45357968124E+03  0.75957774129E+02  0.44917234183E+03  0.64285294068E+03  0.00000000000E+00 0. -1.
          1    1    6    6  503    0  0.59114529857E+03  0.56026950017E+03  0.42720430149E+03  0.91970549203E+03  0.00000000000E+00 0. -1.
         -1    1    6    6    0  503  0.56534533457E+02  0.10270163668E+03  0.68676335629E+02  0.13586838751E+03  0.00000000000E+00 0.  1.
<mgrwt>
<rscale>  0 0.15906803E+04</rscale>
<asrwt>0</asrwt>
<pdfrwt beam="1">  1        2 0.33487406E+00 0.15906803E+04</pdfrwt>
<pdfrwt beam="2">  1       -2 0.21442677E+00 0.15906803E+04</pdfrwt>
<totfact> 0.53062136E-01</totfact>
</mgrwt>
</event>
<event>
12    1  0.1335216E-007  0.4377574E+03  0.7818608E-02  0.1031437E+00
         -2   -1    0    0    0  501 -0.00000000000E+00  0.00000000000E+00  0.15649254238E+03  0.15649254238E+03  0.00000000000E+00 0.  1.
          2   -1    0    0  501    0  0.00000000000E+00 -0.00000000000E+00 -0.17565991385E+04  0.17565991385E+04  0.00000000000E+00 0. -1.
         23    2    1    2    0    0 -0.35499065669E+02 -0.29459331167E+03 -0.86507767883E+03  0.91900161357E+03  0.90328137282E+02 0.  0.
    5000000    2    1    2    0    0  0.35499065669E+02  0.29459331167E+03 -0.73502891725E+03  0.99409006726E+03  0.59991845253E+03 0.  0.
         23    2    4    4    0    0 -0.10174616843E+03  0.36670265042E+03 -0.71135849965E+03  0.81276623229E+03  0.98665681528E+02 0.  0.
         23    2    4    4    0    0  0.13724523410E+03 -0.72109338750E+02 -0.23670417593E+02  0.18132383497E+03  0.91005678070E+02 0.  0.
          1    1    3    3  502    0 -0.63656627004E+02 -0.20047329047E+03 -0.63138165122E+03  0.66549567681E+03  0.00000000000E+00 0. -1.
         -1    1    3    3    0  502  0.28157561335E+02 -0.94120021203E+02 -0.23369602761E+03  0.25350593676E+03  0.00000000000E+00 0.  1.
         11    1    5    5    0    0 -0.10862769363E+03  0.26050976764E+03 -0.56762086443E+03  0.63392330813E+03  0.00000000000E+00 0. -1.
        -11    1    5    5    0    0  0.68815252006E+01  0.10619288278E+03 -0.14373763522E+03  0.17884292416E+03  0.00000000000E+00 0.  1.
          2    1    6    6  503    0  0.89812062024E+02 -0.90402433289E+02 -0.27416859946E+02  0.13034757627E+03  0.00000000000E+00 0. -1.
         -2    1    6    6    0  503  0.47433172073E+02  0.18293094539E+02  0.37464423529E+01  0.50976258699E+02  0.00000000000E+00 0.  1.
<mgrwt>
<rscale>  0 0.43775742E+03</rscale>
<asrwt>0</asrwt>
<pdfrwt beam="1">  1        2 0.27024602E+00 0.43775742E+03</pdfrwt>
<pdfrwt beam="2">  1       -2 0.24075776E-01 0.43775742E+03</pdfrwt>
<totfact> 0.14807103E+02</totfact>
</mgrwt>
</event>
<event>
12    1  0.1335216E-007  0.6915940E+03  0.7818608E-02  0.9731717E-01
         -1   -1    0    0    0  501 -0.00000000000E+00  0.00000000000E+00  0.20943213891E+04  0.20943213891E+04  0.00000000000E+00 0.  1.
          1   -1    0    0  501    0  0.00000000000E+00 -0.00000000000E+00 -0.39745792439E+03  0.39745792439E+03  0.00000000000E+00 0. -1.
         23    2    1    2    0    0 -0.59291917096E+03 -0.21150657359E+03  0.14572667640E+04  0.15897675783E+04  0.86292281666E+02 0.  0.
    5000000    2    1    2    0    0  0.59291917096E+03  0.21150657359E+03  0.23959670073E+03  0.90201173512E+03  0.59994201165E+03 0.  0.
         23    2    4    4    0    0  0.59195934169E+03  0.26344793925E+03  0.14919312053E+02  0.65458476545E+03  0.91858316935E+02 0.  0.
         23    2    4    4    0    0  0.95982926973E+00 -0.51941365657E+02  0.22467738868E+03  0.24742696967E+03  0.89673572454E+02 0.  0.
          4    1    3    3  502    0 -0.51103176315E+03 -0.19501660038E+03  0.11886427102E+04  0.13084557424E+04  0.00000000000E+00 0. -1.
         -4    1    3    3    0  502 -0.81887407802E+02 -0.16489973206E+02  0.26862405376E+03  0.28131183592E+03  0.00000000000E+00 0.  1.
         13    1    5    5    0    0  0.14640779949E+03  0.10106249173E+03  0.28500047573E+02  0.18016970805E+03  0.00000000000E+00 0.  1.
        -13    1    5    5    0    0  0.44555154219E+03  0.16238544752E+03 -0.13580735520E+02  0.47441505741E+03  0.00000000000E+00 0. -1.
          4    1    6    6  503    0 -0.18809822999E+02 -0.70787190049E+02  0.13382036780E+03  0.15255335641E+03  0.00000000000E+00 0. -1.
         -4    1    6    6    0  503  0.19769652269E+02  0.18845824393E+02  0.90857020886E+02  0.94873613255E+02  0.00000000000E+00 0.  1.
<mgrwt>
<rscale>  0 0.69159396E+03</rscale>
<asrwt>0</asrwt>
<pdfrwt beam="1">  1        1 0.61147374E-01 0.69159396E+03</pdfrwt>
<pdfrwt beam="2">  1       -1 0.32220329E+00 0.69159396E+03</pdfrwt>
<totfact> 0.15293130E+00</totfact>
</mgrwt>
</event>
<event>
12    1  0.1335216E-007  0.1575397E+04  0.7818608E-02  0.8835807E-01
          2   -1    0    0  501    0  0.00000000000E+00  0.00000000000E+00  0.14559356542E+04  0.14559356542E+04  0.00000000000E+00 0. -1.
         -2   -1    0    0    0  501 -0.00000000000E+00 -0.00000000000E+00 -0.18623634144E+04  0.18623634144E+04  0.00000000000E+00 0.  1.
         23    2    1    2    0    0  0.45746990289E+03  0.14861310285E+04 -0.53314956013E+03  0.16465304992E+04  0.94604890265E+02 0.  0.
    5000000    2    1    2    0    0 -0.45746990289E+03 -0.14861310285E+04  0.12672179993E+03  0.16717685694E+04  0.60073920216E+03 0.  0.
         23    2    4    4    0    0  0.57221205073E+02 -0.18011658459E+03  0.16173472517E+03  0.26510235243E+03  0.91678163073E+02 0.  0.
         23    2    4    4    0    0 -0.51469110796E+03 -0.13060144439E+04 -0.35012925236E+02  0.14066662170E+04  0.83085959126E+02 0.  0.
          2    1    3    3  502    0  0.81346111951E+02  0.39161246624E+03 -0.11861084693E+03  0.41718826284E+03  0.00000000000E+00 0. -1.
         -2    1    3    3    0  502  0.37612379094E+03  0.10945185623E+04 -0.41453871320E+03  0.12293422363E+04  0.00000000000E+00 0.  1.
         13    1    5    5    0    0  0.30631410940E+02 -0.89357127260E+02  0.13861834232E+03  0.16774392494E+03  0.00000000000E+00 0. -1.
        -13    1    5    5    0    0  0.26589794133E+02 -0.90759457327E+02  0.23116382851E+02  0.97358427485E+02  0.00000000000E+00 0.  1.
          4    1    6    6  503    0 -0.21862103830E+03 -0.49712520093E+03  0.20972640636E+02  0.54347812785E+03  0.00000000000E+00 0. -1.
         -4    1    6    6    0  503 -0.29607006966E+03 -0.80888924301E+03 -0.55985565872E+02  0.86318808911E+03  0.00000000000E+00 0.  1.
<mgrwt>
<rscale>  0 0.15753967E+04</rscale>
<asrwt>0</asrwt>
<pdfrwt beam="1">  1        2 0.22399010E+00 0.15753967E+04</pdfrwt>
<pdfrwt beam="2">  1       -2 0.28651745E+00 0.15753967E+04</pdfrwt>
<totfact> 0.48254606E-01</totfact>
</mgrwt>
</event>
<event>
12    1  0.1335216E-007  0.1370490E+04  0.7818608E-02  0.8975461E-01
         -2   -1    0    0    0  501 -0.00000000000E+00  0.00000000000E+00  0.73776073246E+03  0.73776073246E+03  0.00000000000E+00 0.  1.
          2   -1    0    0  501    0  0.00000000000E+00 -0.00000000000E+00 -0.45838871200E+04  0.45838871200E+04  0.00000000000E+00 0. -1.
         23    2    1    2    0    0  0.12985962774E+04  0.16918059893E+03 -0.36362993279E+04  0.38659936072E+04  0.90881252043E+02 0.  0.
    5000000    2    1    2    0    0 -0.12985962774E+04 -0.16918059893E+03 -0.20982705964E+03  0.14556542452E+04  0.59993959688E+03 0.  0.
         23    2    4    4    0    0 -0.13275068406E+04 -0.13412401475E+03 -0.20868985335E+03  0.13536001667E+04  0.91751258620E+02 0.  0.
         23    2    4    4    0    0  0.28910563113E+02 -0.35056584186E+02 -0.11372062864E+01  0.10205407850E+03  0.91372626899E+02 0.  0.
          2    1    3    3  502    0  0.11080229379E+04  0.11214700629E+03 -0.30669425690E+04  0.32628865294E+04  0.00000000000E+00 0.  1.
         -2    1    3    3    0  502  0.19057333953E+03  0.57033592645E+02 -0.56935675888E+03  0.60310707781E+03  0.00000000000E+00 0. -1.
         13    1    5    5    0    0 -0.99799192105E+03 -0.62629100446E+02 -0.14403345376E+03  0.10102751677E+04  0.00000000000E+00 0. -1.
        -13    1    5    5    0    0 -0.32951491951E+03 -0.71494914299E+02 -0.64656399590E+02  0.34332499903E+03  0.00000000000E+00 0.  1.
          1    1    6    6  503    0  0.21498941232E+02 -0.60776900532E+02 -0.21999172131E+02  0.68117543165E+02  0.00000000000E+00 0.  1.
         -1    1    6    6    0  503  0.74116218812E+01  0.25720316346E+02  0.20861965844E+02  0.33936535338E+02  0.00000000000E+00 0. -1.
<mgrwt>
<rscale>  0 0.13704899E+04</rscale>
<asrwt>0</asrwt>
<pdfrwt beam="1">  1        2 0.70521340E+00 0.13704899E+04</pdfrwt>
<pdfrwt beam="2">  1       -2 0.11350165E+00 0.13704899E+04</pdfrwt>
<totfact> 0.61809843E-02</totfact>
</mgrwt>
</event>
<event>
12    1  0.1335216E-007  0.7634733E+03  0.7818608E-02  0.9614447E-01
         -2   -1    0    0    0  501 -0.00000000000E+00  0.00000000000E+00  0.35326196100E+03  0.35326196100E+03  0.00000000000E+00 0.  1.
          2   -1    0    0  501    0  0.00000000000E+00 -0.00000000000E+00 -0.17174311894E+04  0.17174311894E+04  0.00000000000E+00 0. -1.
         23    2    1    2    0    0 -0.89191643313E+02  0.64531792336E+03 -0.72204271554E+03  0.97673792661E+03  0.90999575568E+02 0.  0.
    5000000    2    1    2    0    0  0.89191643313E+02 -0.64531792336E+03 -0.64212651290E+03  0.10939552238E+04  0.60001766786E+03 0.  0.
         23    2    4    4    0    0 -0.24196771620E+03 -0.26003353657E+03 -0.22171614859E+03  0.42821598197E+03  0.89694263166E+02 0.  0.
         23    2    4    4    0    0  0.33115935951E+03 -0.38528438679E+03 -0.42041036431E+03  0.66573924187E+03  0.91396299978E+02 0.  0.
          2    1    3    3  502    0 -0.43146521111E+02  0.26974407783E+03 -0.23768861947E+03  0.36210408674E+03  0.00000000000E+00 0. -1.
         -2    1    3    3    0  502 -0.46045122202E+02  0.37557384553E+03 -0.48435409607E+03  0.61463383987E+03  0.00000000000E+00 0.  1.
         13    1    5    5    0    0 -0.16612840943E+03 -0.13407893011E+03 -0.93206912963E+02  0.23294492169E+03  0.00000000000E+00 0. -1.
        -13    1    5    5    0    0 -0.75839306770E+02 -0.12595460647E+03 -0.12850923562E+03  0.19527106028E+03  0.00000000000E+00 0.  1.
          4    1    6    6  503    0  0.21777313924E+03 -0.30972698808E+03 -0.28762140412E+03  0.47548082971E+03  0.00000000000E+00 0. -1.
         -4    1    6    6    0  503  0.11338622027E+03 -0.75557398715E+02 -0.13278896020E+03  0.19025841216E+03  0.00000000000E+00 0.  1.
<mgrwt>
<rscale>  0 0.76347332E+03</rscale>
<asrwt>0</asrwt>
<pdfrwt beam="1">  1        2 0.26422018E+00 0.76347332E+03</pdfrwt>
<pdfrwt beam="2">  1       -2 0.54347995E-01 0.76347332E+03</pdfrwt>
<totfact> 0.31337583E+01</totfact>
</mgrwt>
</event>
<event>
12    1  0.1335216E-007  0.1004545E+04  0.7818608E-02  0.9303574E-01
         -2   -1    0    0    0  501 -0.00000000000E+00  0.00000000000E+00  0.35753792872E+03  0.35753792872E+03  0.00000000000E+00 0.  1.
          2   -1    0    0  501    0  0.00000000000E+00 -0.00000000000E+00 -0.32599452055E+04  0.32599452055E+04  0.00000000000E+00 0. -1.
         23    2    1    2    0    0  0.71307266514E+03  0.57704760512E+03 -0.70101222630E+03  0.11583058644E+04  0.93796426585E+02 0.  0.
    5000000    2    1    2    0    0 -0.71307266514E+03 -0.57704760512E+03 -0.22013950505E+04  0.24591772699E+04  0.59996342560E+03 0.  0.
         23    2    4    4    0    0 -0.78501519701E+03 -0.39798655952E+03 -0.17425674538E+04  0.19543719517E+04  0.91576380591E+02 0.  0.
         23    2    4    4    0    0  0.71942531879E+02 -0.17906104560E+03 -0.45882759668E+03  0.50480531817E+03  0.84065806540E+02 0.  0.
          1    1    3    3  502    0  0.37697321289E+03  0.28267202507E+03 -0.30505445829E+03  0.56131141046E+03  0.00000000000E+00 0. -1.
         -1    1    3    3    0  502  0.33609945224E+03  0.29437558005E+03 -0.39595776802E+03  0.59699445389E+03  0.00000000000E+00 0.  1.
         11    1    5    5    0    0 -0.28490033173E+03 -0.18423357303E+03 -0.61080010831E+03  0.69870378614E+03  0.00000000000E+00 0.  1.
        -11    1    5    5    0    0 -0.50011486529E+03 -0.21375298648E+03 -0.11317673455E+04  0.12556681656E+04  0.00000000000E+00 0. -1.
          2    1    6    6  503    0  0.22516920671E+02 -0.14774305864E+03 -0.29216597104E+03  0.32817065336E+03  0.00000000000E+00 0. -1.
         -2    1    6    6    0  503  0.49425611207E+02 -0.31317986961E+02 -0.16666162564E+03  0.17663466481E+03  0.00000000000E+00 0.  1.
<mgrwt>
<rscale>  0 0.10045452E+04</rscale>
<asrwt>0</asrwt>
<pdfrwt beam="1">  1        2 0.50153003E+00 0.10045452E+04</pdfrwt>
<pdfrwt beam="2">  1       -2 0.55005836E-01 0.10045452E+04</pdfrwt>
<totfact> 0.37883903E+00</totfact>
</mgrwt>
</event>
<event>
12    1  0.1335216E-007  0.5394773E+03  0.7818608E-02  0.1003959E+00
         -1   -1    0    0    0  501 -0.00000000000E+00  0.00000000000E+00  0.20072539484E+03  0.20072539484E+03  0.00000000000E+00 0.  1.
          1   -1    0    0  501    0  0.00000000000E+00 -0.00000000000E+00 -0.25574963147E+04  0.25574963147E+04  0.00000000000E+00 0. -1.
         23    2    1    2    0    0 -0.37710665342E+03 -0.23297510467E+03 -0.24173166637E+03  0.51544136152E+03  0.10372449659E+03 0.  0.
    5000000    2    1    2    0    0  0.37710665342E+03  0.23297510467E+03 -0.21150392535E+04  0.22427803480E+04  0.60015482849E+03 0.  0.
         23    2    4    4    0    0  0.15158984591E+03  0.31968732018E+03 -0.17883591690E+04  0.18254437814E+04  0.94005411938E+02 0.  0.
         23    2    4    4    0    0  0.22551680751E+03 -0.86712215510E+02 -0.32668008447E+03  0.41733656664E+03  0.95252787235E+02 0.  0.
          1    1    3    3  502    0 -0.53728902117E+02 -0.77761658618E+02 -0.70818655415E+02  0.11810568330E+03  0.00000000000E+00 0. -1.
         -1    1    3    3    0  502 -0.32337775130E+03 -0.15521344605E+03 -0.17091301095E+03  0.39733567822E+03  0.00000000000E+00 0.  1.
         13    1    5    5    0    0 -0.31150399887E+01  0.84284197853E+02 -0.39917539322E+03  0.40798838713E+03  0.00000000000E+00 0.  1.
        -13    1    5    5    0    0  0.15470488590E+03  0.23540312233E+03 -0.13891837758E+04  0.14174553942E+04  0.00000000000E+00 0. -1.
          1    1    6    6  503    0  0.11595567038E+03  0.61050082309E+01 -0.14507670879E+03  0.18582314186E+03  0.00000000000E+00 0. -1.
         -1    1    6    6    0  503  0.10956113712E+03 -0.92817223741E+02 -0.18160337569E+03  0.23151342478E+03  0.00000000000E+00 0.  1.
<mgrwt>
<rscale>  0 0.53947727E+03</rscale>
<asrwt>0</asrwt>
<pdfrwt beam="1">  1        1 0.39346095E+00 0.53947727E+03</pdfrwt>
<pdfrwt beam="2">  1       -1 0.30880832E-01 0.53947727E+03</pdfrwt>
<totfact> 0.13115800E+01</totfact>
</mgrwt>
</event>
<event>
12    1  0.1335216E-007  0.1139469E+04  0.7818608E-02  0.9167554E-01
         -2   -1    0    0    0  501 -0.00000000000E+00  0.00000000000E+00  0.94486987782E+03  0.94486987782E+03  0.00000000000E+00 0.  1.
          2   -1    0    0  501    0  0.00000000000E+00 -0.00000000000E+00 -0.22648565022E+04  0.22648565022E+04  0.00000000000E+00 0. -1.
         23    2    1    2    0    0 -0.10134494539E+04  0.36805915261E+03  0.34729179027E+03  0.11355064306E+04  0.78841175662E+02 0.  0.
    5000000    2    1    2    0    0  0.10134494539E+04 -0.36805915261E+03 -0.16672784146E+04  0.20742199494E+04  0.60001979242E+03 0.  0.
         23    2    4    4    0    0  0.81220873593E+03 -0.49320203736E+03 -0.11259249339E+04  0.14761934285E+04  0.92243163778E+02 0.  0.
         23    2    4    4    0    0  0.20124071792E+03  0.12514288474E+03 -0.54135348075E+03  0.59802652090E+03  0.91725462275E+02 0.  0.
          4    1    3    3  502    0 -0.38970811630E+03  0.12732925517E+03  0.16988362750E+03  0.44378553607E+03  0.00000000000E+00 0. -1.
         -4    1    3    3    0  502 -0.62374133755E+03  0.24072989744E+03  0.17740816277E+03  0.69172089452E+03  0.00000000000E+00 0.  1.
         13    1    5    5    0    0  0.55773646832E+03 -0.31865389977E+03 -0.69765733523E+03  0.94833329233E+03  0.00000000000E+00 0. -1.
        -13    1    5    5    0    0  0.25447226761E+03 -0.17454813758E+03 -0.42826759864E+03  0.52786013617E+03  0.00000000000E+00 0.  1.
          2    1    6    6  503    0  0.18758226528E+03  0.82969031350E+02 -0.48297223688E+03  0.52472197211E+03  0.00000000000E+00 0.  1.
         -2    1    6    6    0  503  0.13658452640E+02  0.42173853393E+02 -0.58381243866E+02  0.73304548794E+02  0.00000000000E+00 0. -1.
<mgrwt>
<rscale>  0 0.11394691E+04</rscale>
<asrwt>0</asrwt>
<pdfrwt beam="1">  1        2 0.34843946E+00 0.11394691E+04</pdfrwt>
<pdfrwt beam="2">  1       -2 0.14536460E+00 0.11394691E+04</pdfrwt>
<totfact> 0.15188164E+00</totfact>
</mgrwt>
</event>
<event>
12    1  0.1335216E-007  0.6261261E+03  0.7818608E-02  0.9852638E-01
         -1   -1    0    0    0  501 -0.00000000000E+00  0.00000000000E+00  0.33193804328E+03  0.33193804328E+03  0.00000000000E+00 0.  1.
          1   -1    0    0  501    0  0.00000000000E+00 -0.00000000000E+00 -0.14276844223E+04  0.14276844223E+04  0.00000000000E+00 0. -1.
         23    2    1    2    0    0 -0.27766586910E+03  0.40609901443E+03 -0.77059207725E+03  0.91831980560E+03  0.86512261857E+02 0.  0.
    5000000    2    1    2    0    0  0.27766586910E+03 -0.40609901443E+03 -0.32515430173E+03  0.84130265993E+03  0.60004174962E+03 0.  0.
         23    2    4    4    0    0  0.44914070140E+03 -0.27441498792E+03 -0.27091541891E+03  0.59917366637E+03  0.92644282191E+02 0.  0.
         23    2    4    4    0    0 -0.17147483230E+03 -0.13168402651E+03 -0.54238882817E+02  0.24212899356E+03  0.94553118219E+02 0.  0.
          1    1    3    3  502    0 -0.23208484901E+03  0.32908576308E+03 -0.56235695114E+03  0.69166910955E+03  0.00000000000E+00 0. -1.
         -1    1    3    3    0  502 -0.45581020087E+02  0.77013251346E+02 -0.20823512611E+03  0.22665069605E+03  0.00000000000E+00 0.  1.
         11    1    5    5    0    0  0.13672081764E+03 -0.67331622964E+02 -0.12443192001E+03  0.19674712741E+03  0.00000000000E+00 0. -1.
        -11    1    5    5    0    0  0.31241988376E+03 -0.20708336496E+03 -0.14648349890E+03  0.40242653896E+03  0.00000000000E+00 0.  1.
          3    1    6    6  503    0 -0.86504669756E+02 -0.13900423898E+02 -0.39635645156E+02  0.96162695683E+02  0.00000000000E+00 0. -1.
         -3    1    6    6    0  503 -0.84970162540E+02 -0.11778360261E+03 -0.14603237661E+02  0.14596629788E+03  0.00000000000E+00 0.  1.
<mgrwt>
<rscale>  0 0.62612613E+03</rscale>
<asrwt>0</asrwt>
<pdfrwt beam="1">  1        1 0.21964375E+00 0.62612613E+03</pdfrwt>
<pdfrwt beam="2">  1       -1 0.51067392E-01 0.62612613E+03</pdfrwt>
<totfact> 0.29693568E+01</totfact>
</mgrwt>
</event>
<event>
12    1  0.1335216E-007  0.3693741E+03  0.7818608E-02  0.1054933E+00
          1   -1    0    0  501    0  0.00000000000E+00  0.00000000000E+00  0.15212739812E+04  0.15212739812E+04  0.00000000000E+00 0. -1.
         -1   -1    0    0    0  501 -0.00000000000E+00 -0.00000000000E+00 -0.17330991530E+03  0.17330991530E+03  0.00000000000E+00 0.  1.
         23    2    1    2    0    0 -0.12705214385E+03  0.28912279698E+03  0.29296178166E+03  0.44046522888E+03  0.91917209235E+02 0.  0.
    5000000    2    1    2    0    0  0.12705214385E+03 -0.28912279698E+03  0.10550022843E+04  0.12541186677E+04  0.60004131000E+03 0.  0.
         23    2    4    4    0    0  0.17784712339E+03 -0.25922277112E+03  0.10914057253E+04  0.11393831579E+04  0.90562016564E+02 0.  0.
         23    2    4    4    0    0 -0.50794979547E+02 -0.29900025861E+02 -0.36403441028E+02  0.11473550977E+03  0.91459746280E+02 0.  0.
          2    1    3    3  502    0 -0.12563027272E+03  0.28416713933E+03  0.29989660879E+03  0.43182392762E+03  0.00000000000E+00 0. -1.
         -2    1    3    3    0  502 -0.14218711312E+01  0.49556576491E+01 -0.69348271317E+01  0.86413012675E+01  0.00000000000E+00 0.  1.
         13    1    5    5    0    0  0.11814625243E+02 -0.19923486863E+02  0.20610026717E+03  0.20739780815E+03  0.00000000000E+00 0.  1.
        -13    1    5    5    0    0  0.16603249815E+03 -0.23929928426E+03  0.88530545815E+03  0.93198534974E+03  0.00000000000E+00 0. -1.
          3    1    6    6  503    0 -0.16841150155E+02 -0.60478353141E+02 -0.16612922420E+02  0.64940316664E+02  0.00000000000E+00 0. -1.
         -3    1    6    6    0  503 -0.33953829392E+02  0.30578327279E+02 -0.19790518608E+02  0.49795193105E+02  0.00000000000E+00 0.  1.
<mgrwt>
<rscale>  0 0.36937414E+03</rscale>
<asrwt>0</asrwt>
<pdfrwt beam="1">  1        1 0.23404214E+00 0.36937414E+03</pdfrwt>
<pdfrwt beam="2">  1       -1 0.26663065E-01 0.36937414E+03</pdfrwt>
<totfact> 0.85493623E+01</totfact>
</mgrwt>
</event>
<event>
12    1  0.1335216E-007  0.2576898E+04  0.7818608E-02  0.8376091E-01
          1   -1    0    0  501    0  0.00000000000E+00  0.00000000000E+00  0.23291266960E+04  0.23291266960E+04  0.00000000000E+00 0. -1.
         -1   -1    0    0    0  501 -0.00000000000E+00 -0.00000000000E+00 -0.28897822533E+04  0.28897822533E+04  0.00000000000E+00 0.  1.
         23    2    1    2    0    0  0.21670810603E+04 -0.13595589216E+04 -0.33704392602E+03  0.25817576153E+04  0.85047002632E+02 0.  0.
    5000000    2    1    2    0    0 -0.21670810603E+04  0.13595589216E+04 -0.22361163127E+03  0.26371513341E+04  0.59993684154E+03 0.  0.
         23    2    4    4    0    0 -0.49768643397E+03  0.51362052325E+03 -0.24956936722E+03  0.76324082044E+03  0.93562024651E+02 0.  0.
         23    2    4    4    0    0 -0.16693946264E+04  0.84593839832E+03  0.25957735958E+02  0.18739105136E+04  0.91523858945E+02 0.  0.
          3    1    3    3  502    0  0.66639161428E+03 -0.45362550977E+03 -0.13198961811E+03  0.81686911190E+03  0.00000000000E+00 0. -1.
         -3    1    3    3    0  502  0.15006894461E+04 -0.90593341180E+03 -0.20505430791E+03  0.17648885034E+04  0.00000000000E+00 0.  1.
         13    1    5    5    0    0 -0.43472523501E+02  0.91040032120E+02 -0.36100364842E+02  0.10715122066E+03  0.00000000000E+00 0. -1.
        -13    1    5    5    0    0 -0.45421391047E+03  0.42258049113E+03 -0.21346900238E+03  0.65608959977E+03  0.00000000000E+00 0.  1.
          2    1    6    6  503    0 -0.87042299039E+03  0.39314052509E+03  0.29522072525E+02  0.95554550254E+03  0.00000000000E+00 0. -1.
         -2    1    6    6    0  503 -0.79897163598E+03  0.45279787323E+03 -0.35643365672E+01  0.91836501109E+03  0.00000000000E+00 0.  1.
<mgrwt>
<rscale>  0 0.25768980E+04</rscale>
<asrwt>0</asrwt>
<pdfrwt beam="1">  1        1 0.35832718E+00 0.25768980E+04</pdfrwt>
<pdfrwt beam="2">  1       -1 0.44458189E+00 0.25768980E+04</pdfrwt>
<totfact> 0.52134160E-03</totfact>
</mgrwt>
</event>
<event>
12    1  0.1335216E-007  0.4702908E+03  0.7818608E-02  0.1021838E+00
          2   -1    0    0  501    0  0.00000000000E+00  0.00000000000E+00  0.17504639771E+04  0.17504639771E+04  0.00000000000E+00 0.  1.
         -2   -1    0    0    0  501 -0.00000000000E+00 -0.00000000000E+00 -0.29294613089E+03  0.29294613089E+03  0.00000000000E+00 0. -1.
         23    2    1    2    0    0 -0.38369062855E+03  0.19851803116E+03  0.11693860851E+04  0.12499210315E+04  0.90613806873E+02 0.  0.
    5000000    2    1    2    0    0  0.38369062855E+03 -0.19851803116E+03  0.28813176114E+03  0.79348907646E+03  0.59998091265E+03 0.  0.
         23    2    4    4    0    0  0.13068923018E+03 -0.18646392179E+03  0.42494620428E+03  0.49170862145E+03  0.96693447888E+02 0.  0.
         23    2    4    4    0    0  0.25300139837E+03 -0.12054109371E+02 -0.13681444314E+03  0.30178045500E+03  0.90544144137E+02 0.  0.
          4    1    3    3  502    0 -0.36452129326E+03  0.18419284809E+03  0.11454112257E+04  0.12160467320E+04  0.00000000000E+00 0. -1.
         -4    1    3    3    0  502 -0.19169335293E+02  0.14325183070E+02  0.23974859386E+02  0.33874299523E+02  0.00000000000E+00 0.  1.
         13    1    5    5    0    0 -0.40640481328E+01 -0.43295218546E+02  0.38310374644E+02  0.57954095986E+02  0.00000000000E+00 0.  1.
        -13    1    5    5    0    0  0.13475327831E+03 -0.14316870324E+03  0.38663582964E+03  0.43375452547E+03  0.00000000000E+00 0. -1.
          1    1    6    6  503    0  0.22112587709E+03 -0.41219664109E+02 -0.10566462234E+03  0.24851705503E+03  0.00000000000E+00 0. -1.
         -1    1    6    6    0  503  0.31875521282E+02  0.29165554738E+02 -0.31149820802E+02  0.53263399968E+02  0.00000000000E+00 0.  1.
<mgrwt>
<rscale>  0 0.47029084E+03</rscale>
<asrwt>0</asrwt>
<pdfrwt beam="1">  1        2 0.26930215E+00 0.47029084E+03</pdfrwt>
<pdfrwt beam="2">  1       -2 0.45068636E-01 0.47029084E+03</pdfrwt>
<totfact> 0.45867107E+01</totfact>
</mgrwt>
</event>
<event>
12    1  0.1335216E-007  0.8152112E+03  0.7818608E-02  0.9538257E-01
          1   -1    0    0  501    0  0.00000000000E+00  0.00000000000E+00  0.27349214874E+04  0.27349214874E+04  0.00000000000E+00 0. -1.
         -1   -1    0    0    0  501 -0.00000000000E+00 -0.00000000000E+00 -0.28991349138E+03  0.28991349138E+03  0.00000000000E+00 0.  1.
         23    2    1    2    0    0  0.38873258250E+03 -0.65887865723E+03  0.13965365505E+04  0.15949830211E+04  0.91773607153E+02 0.  0.
    5000000    2    1    2    0    0 -0.38873258250E+03  0.65887865723E+03  0.10484714455E+04  0.14298519577E+04  0.59995845127E+03 0.  0.
         23    2    4    4    0    0 -0.43147789675E+03  0.37347023168E+03  0.94949558989E+03  0.11115343364E+04  0.91178486786E+02 0.  0.
         23    2    4    4    0    0  0.42745314254E+02  0.28540842555E+03  0.98975855599E+02  0.31831762128E+03  0.90800642957E+02 0.  0.
          2    1    3    3  502    0  0.19177005795E+03 -0.29754535085E+03  0.73666066770E+03  0.81729916816E+03  0.00000000000E+00 0. -1.
         -2    1    3    3    0  502  0.19696252455E+03 -0.36133330638E+03  0.65987588280E+03  0.77768385291E+03  0.00000000000E+00 0.  1.
         13    1    5    5    0    0 -0.15477237655E+03  0.97663348074E+02  0.36781757413E+03  0.41083133515E+03  0.00000000000E+00 0. -1.
        -13    1    5    5    0    0 -0.27670552020E+03  0.27580688361E+03  0.58167801576E+03  0.70070300126E+03  0.00000000000E+00 0.  1.
          4    1    6    6  503    0 -0.64616673370E+01  0.14612692780E+02 -0.13572963715E+02  0.20964476599E+02  0.00000000000E+00 0. -1.
         -4    1    6    6    0  503  0.49206981591E+02  0.27079573277E+03  0.11254881931E+03  0.29735314468E+03  0.00000000000E+00 0.  1.
<mgrwt>
<rscale>  0 0.81521121E+03</rscale>
<asrwt>0</asrwt>
<pdfrwt beam="1">  1        1 0.42075714E+00 0.81521121E+03</pdfrwt>
<pdfrwt beam="2">  1       -1 0.44602077E-01 0.81521121E+03</pdfrwt>
<totfact> 0.48518964E+00</totfact>
</mgrwt>
</event>
<event>
12    1  0.1335216E-007  0.4723362E+03  0.7818608E-02  0.1021263E+00
         -2   -1    0    0    0  501 -0.00000000000E+00  0.00000000000E+00  0.25918192050E+03  0.25918192050E+03  0.00000000000E+00 0.  1.
          2   -1    0    0  501    0  0.00000000000E+00 -0.00000000000E+00 -0.10407862540E+04  0.10407862540E+04  0.00000000000E+00 0. -1.
         23    2    1    2    0    0 -0.20963492202E+03  0.24919866690E+03 -0.14829786240E+03  0.36802504703E+03  0.86043030674E+02 0.  0.
    5000000    2    1    2    0    0  0.20963492202E+03 -0.24919866690E+03 -0.63330647113E+03  0.93194312751E+03  0.60116065276E+03 0.  0.
         23    2    4    4    0    0 -0.12017520083E+03 -0.23708344114E+03 -0.48024632546E+03  0.55653143131E+03  0.91869820713E+02 0.  0.
         23    2    4    4    0    0  0.32981012285E+03 -0.12115225759E+02 -0.15306014567E+03  0.37541169620E+03  0.92655478092E+02 0.  0.
          4    1    3    3  502    0 -0.19456173496E+03  0.18678470301E+03 -0.99885288691E+02  0.28761061331E+03  0.00000000000E+00 0. -1.
         -4    1    3    3    0  502 -0.15073187061E+02  0.62413963887E+02 -0.48412573714E+02  0.80414433716E+02  0.00000000000E+00 0.  1.
         11    1    5    5    0    0 -0.98913761481E+02 -0.15408186886E+03 -0.39642888438E+03  0.43667037327E+03  0.00000000000E+00 0. -1.
        -11    1    5    5    0    0 -0.21261439352E+02 -0.83001572286E+02 -0.83817441084E+02  0.11986105804E+03  0.00000000000E+00 0.  1.
          2    1    6    6  503    0  0.21320643667E+03  0.35283091084E+02 -0.84132816826E+02  0.23190561015E+03  0.00000000000E+00 0. -1.
         -2    1    6    6    0  503  0.11660368619E+03 -0.47398316843E+02 -0.68927328844E+02  0.14350608605E+03  0.00000000000E+00 0.  1.
<mgrwt>
<rscale>  0 0.47233622E+03</rscale>
<asrwt>0</asrwt>
<pdfrwt beam="1">  1        2 0.16012097E+00 0.47233622E+03</pdfrwt>
<pdfrwt beam="2">  1       -2 0.39874141E-01 0.47233622E+03</pdfrwt>
<totfact> 0.14624907E+02</totfact>
</mgrwt>
</event>
<event>
12    1  0.1335216E-007  0.5501123E+03  0.7818608E-02  0.1001468E+00
          3   -1    0    0  501    0  0.00000000000E+00  0.00000000000E+00  0.38909127771E+03  0.38909127771E+03  0.00000000000E+00 0. -1.
         -3   -1    0    0    0  501 -0.00000000000E+00 -0.00000000000E+00 -0.11496897102E+04  0.11496897102E+04  0.00000000000E+00 0.  1.
         23    2    1    2    0    0  0.35322662607E+03  0.17166820291E+03 -0.71614167502E+03  0.82038464639E+03  0.77026281727E+02 0.  0.
    5000000    2    1    2    0    0 -0.35322662607E+03 -0.17166820291E+03 -0.44456757439E+02  0.71839634150E+03  0.59989822382E+03 0.  0.
         23    2    4    4    0    0 -0.47996525410E+03 -0.18544121173E+02 -0.78927317238E+02  0.49525603478E+03  0.91315327325E+02 0.  0.
         23    2    4    4    0    0  0.12673862803E+03 -0.15312408174E+03  0.34470559799E+02  0.22314030672E+03  0.95360960282E+02 0.  0.
          4    1    3    3  502    0  0.12411129211E+03  0.22699312274E+02 -0.20322198250E+03  0.23920293848E+03  0.00000000000E+00 0. -1.
         -4    1    3    3    0  502  0.22911533396E+03  0.14896889064E+03 -0.51291969252E+03  0.58118170791E+03  0.00000000000E+00 0.  1.
         13    1    5    5    0    0 -0.15152906374E+03 -0.47788553381E+02 -0.17492733777E+02  0.15984617208E+03  0.00000000000E+00 0.  1.
        -13    1    5    5    0    0 -0.32843619036E+03  0.29244432207E+02 -0.61434583461E+02  0.33540986270E+03  0.00000000000E+00 0. -1.
          3    1    6    6  503    0  0.44060252844E+02 -0.75079384962E+01  0.33213234197E+02  0.55684773026E+02  0.00000000000E+00 0. -1.
         -3    1    6    6    0  503  0.82678375187E+02 -0.14561614324E+03  0.12573256023E+01  0.16745553369E+03  0.00000000000E+00 0.  1.
<mgrwt>
<rscale>  0 0.55011226E+03</rscale>
<asrwt>0</asrwt>
<pdfrwt beam="1">  1        3 0.59860197E-01 0.55011226E+03</pdfrwt>
<pdfrwt beam="2">  1       -3 0.17687534E+00 0.55011226E+03</pdfrwt>
<totfact> 0.14904869E+00</totfact>
</mgrwt>
</event>
<event>
12    1  0.1335216E-007  0.7209069E+03  0.7818608E-02  0.9682132E-01
          1   -1    0    0  501    0  0.00000000000E+00  0.00000000000E+00  0.11894697737E+04  0.11894697737E+04  0.00000000000E+00 0. -1.
         -1   -1    0    0    0  501 -0.00000000000E+00 -0.00000000000E+00 -0.57034746649E+03  0.57034746649E+03  0.00000000000E+00 0.  1.
         23    2    1    2    0    0 -0.53296436768E+03  0.31420484700E+03  0.64382343893E+03  0.89763737437E+03  0.92024628491E+02 0.  0.
    5000000    2    1    2    0    0  0.53296436768E+03 -0.31420484700E+03 -0.24701131752E+02  0.86217986579E+03  0.59997355939E+03 0.  0.
         23    2    4    4    0    0 -0.84733543216E+02  0.52673731665E+02 -0.24586206677E+02  0.13829110451E+03  0.92550811306E+02 0.  0.
         23    2    4    4    0    0  0.61769791090E+03 -0.36687857866E+03 -0.11492507464E+00  0.72388876128E+03  0.88681028932E+02 0.  0.
          2    1    3    3  502    0 -0.27428510880E+03  0.19856201198E+03  0.39761962175E+03  0.52226483426E+03  0.00000000000E+00 0.  1.
         -2    1    3    3    0  502 -0.25867925889E+03  0.11564283501E+03  0.24620381718E+03  0.37537254010E+03  0.00000000000E+00 0. -1.
         13    1    5    5    0    0 -0.28131452229E+02  0.79216611238E+01 -0.53175352858E+02  0.60677421427E+02  0.00000000000E+00 0.  1.
        -13    1    5    5    0    0 -0.56602090987E+02  0.44752070541E+02  0.28589146181E+02  0.77613683079E+02  0.00000000000E+00 0. -1.
          4    1    6    6  503    0  0.37594123513E+03 -0.21953504895E+03  0.43159168569E+02  0.43748161541E+03  0.00000000000E+00 0. -1.
         -4    1    6    6    0  503  0.24175667577E+03 -0.14734352971E+03 -0.43274093644E+02  0.28640714587E+03  0.00000000000E+00 0.  1.
<mgrwt>
<rscale>  0 0.72090694E+03</rscale>
<asrwt>0</asrwt>
<pdfrwt beam="1">  1        1 0.18299535E+00 0.72090694E+03</pdfrwt>
<pdfrwt beam="2">  1       -1 0.87745765E-01 0.72090694E+03</pdfrwt>
<totfact> 0.14405151E+01</totfact>
</mgrwt>
</event>
<event>
12    1  0.1335216E-007  0.1242282E+04  0.7818608E-02  0.9076632E-01
          1   -1    0    0  501    0  0.00000000000E+00  0.00000000000E+00  0.32091496717E+04  0.32091496717E+04  0.00000000000E+00 0. -1.
         -1   -1    0    0    0  501 -0.00000000000E+00 -0.00000000000E+00 -0.52767181284E+03  0.52767181284E+03  0.00000000000E+00 0.  1.
         23    2    1    2    0    0  0.74055822677E+03  0.93535377062E+03  0.83968496925E+03  0.14618865019E+04  0.93424479679E+02 0.  0.
    5000000    2    1    2    0    0 -0.74055822677E+03 -0.93535377062E+03  0.18417928896E+04  0.22749349826E+04  0.59984578313E+03 0.  0.
         23    2    4    4    0    0 -0.40358358380E+03 -0.83142468356E+03  0.10388485857E+04  0.13934623437E+04  0.91565308589E+02 0.  0.
         23    2    4    4    0    0 -0.33697464297E+03 -0.10392908706E+03  0.80294430394E+03  0.88147263896E+03  0.89001645297E+02 0.  0.
          1    1    3    3  502    0  0.24641712649E+03  0.38162376426E+03  0.30410553757E+03  0.54666102445E+03  0.00000000000E+00 0. -1.
         -1    1    3    3    0  502  0.49414110028E+03  0.55373000636E+03  0.53557943168E+03  0.91522547745E+03  0.00000000000E+00 0.  1.
         11    1    5    5    0    0 -0.64634800231E+02 -0.19564893146E+03  0.27222295998E+03  0.34141104511E+03  0.00000000000E+00 0.  1.
        -11    1    5    5    0    0 -0.33894878357E+03 -0.63577575210E+03  0.76662562567E+03  0.10520512986E+04  0.00000000000E+00 0. -1.
          2    1    6    6  503    0 -0.17100355039E+03 -0.94486039265E+02  0.48041963509E+03  0.51862592651E+03  0.00000000000E+00 0. -1.
         -2    1    6    6    0  503 -0.16597109258E+03 -0.94430477941E+01  0.32252466884E+03  0.36284671245E+03  0.00000000000E+00 0.  1.
<mgrwt>
<rscale>  0 0.12422819E+04</rscale>
<asrwt>0</asrwt>
<pdfrwt beam="1">  1        1 0.49371533E+00 0.12422819E+04</pdfrwt>
<pdfrwt beam="2">  1       -1 0.81180280E-01 0.12422819E+04</pdfrwt>
<totfact> 0.62939033E-01</totfact>
</mgrwt>
</event>
<event>
12    1  0.1335216E-007  0.1170065E+04  0.7818608E-02  0.9139470E-01
         -2   -1    0    0    0  501 -0.00000000000E+00  0.00000000000E+00  0.96770272747E+03  0.96770272747E+03  0.00000000000E+00 0.  1.
          2   -1    0    0  501    0  0.00000000000E+00 -0.00000000000E+00 -0.20620807447E+04  0.20620807447E+04  0.00000000000E+00 0. -1.
         23    2    1    2    0    0 -0.77492126547E+03 -0.81094006529E+03 -0.13238280989E+04  0.17372653514E+04  0.86274612061E+02 0.  0.
    5000000    2    1    2    0    0  0.77492126547E+03  0.81094006529E+03  0.22945008160E+03  0.12925181208E+04  0.59985747930E+03 0.  0.
         23    2    4    4    0    0 -0.26622599250E+02  0.33574149193E+02 -0.82887714841E+02  0.12973912187E+03  0.90143664149E+02 0.  0.
         23    2    4    4    0    0  0.80154386472E+03  0.77736591609E+03  0.31233779644E+03  0.11627789989E+04  0.87919091740E+02 0.  0.
          1    1    3    3  502    0 -0.46536769807E+03 -0.43345943735E+03 -0.71567100007E+03  0.95741274202E+03  0.00000000000E+00 0. -1.
         -1    1    3    3    0  502 -0.30955356741E+03 -0.37748062793E+03 -0.60815709879E+03  0.77985260939E+03  0.00000000000E+00 0.  1.
         11    1    5    5    0    0  0.79976652621E+00 -0.28314982656E+02 -0.94465702782E+01  0.29859932340E+02  0.00000000000E+00 0.  1.
        -11    1    5    5    0    0 -0.27422365776E+02  0.61889131849E+02 -0.73441144563E+02  0.99879189527E+02  0.00000000000E+00 0. -1.
          1    1    6    6  503    0  0.58145495926E+03  0.61586213331E+03  0.23038491946E+03  0.87775466277E+03  0.00000000000E+00 0. -1.
         -1    1    6    6    0  503  0.22008890546E+03  0.16150378278E+03  0.81952876983E+02  0.28502433617E+03  0.00000000000E+00 0.  1.
<mgrwt>
<rscale>  0 0.11700649E+04</rscale>
<asrwt>0</asrwt>
<pdfrwt beam="1">  1        2 0.31724319E+00 0.11700649E+04</pdfrwt>
<pdfrwt beam="2">  1       -2 0.14887734E+00 0.11700649E+04</pdfrwt>
<totfact> 0.18427401E+00</totfact>
</mgrwt>
</event>
<event>
12    1  0.1335216E-007  0.9653678E+03  0.7818608E-02  0.9347366E-01
         -1   -1    0    0    0  501 -0.00000000000E+00  0.00000000000E+00  0.44130151116E+03  0.44130151116E+03  0.00000000000E+00 0.  1.
          1   -1    0    0  501    0  0.00000000000E+00 -0.00000000000E+00 -0.22131476404E+04  0.22131476404E+04  0.00000000000E+00 0. -1.
         23    2    1    2    0    0 -0.26895506766E+03 -0.83083242767E+03 -0.10675078350E+04  0.13821820110E+04  0.90745702676E+02 0.  0.
    5000000    2    1    2    0    0  0.26895506766E+03  0.83083242767E+03 -0.70433829426E+03  0.12722671405E+04  0.59995990934E+03 0.  0.
         23    2    4    4    0    0 -0.15107547419E+03  0.45269894091E+03 -0.35616840354E+03  0.60240926361E+03  0.90999226405E+02 0.  0.
         23    2    4    4    0    0  0.42003054186E+03  0.37813348676E+03 -0.34816989073E+03  0.66985787692E+03  0.89870532195E+02 0.  0.
          4    1    3    3  502    0 -0.68502534933E+02 -0.21868396584E+03 -0.34568061275E+03  0.41474131725E+03  0.00000000000E+00 0. -1.
         -4    1    3    3    0  502 -0.20045253273E+03 -0.61214846183E+03 -0.72182722223E+03  0.96744069376E+03  0.00000000000E+00 0.  1.
         13    1    5    5    0    0 -0.21127474681E+02  0.19913813641E+03 -0.13158621969E+03  0.23961907431E+03  0.00000000000E+00 0.  1.
        -13    1    5    5    0    0 -0.12994799951E+03  0.25356080450E+03 -0.22458218385E+03  0.36279018930E+03  0.00000000000E+00 0. -1.
          2    1    6    6  503    0  0.10083503464E+03  0.14663210373E+03 -0.10796314045E+03  0.20814590496E+03  0.00000000000E+00 0.  1.
         -2    1    6    6    0  503  0.31919550721E+03  0.23150138303E+03 -0.24020675028E+03  0.46171197196E+03  0.00000000000E+00 0. -1.
<mgrwt>
<rscale>  0 0.96536782E+03</rscale>
<asrwt>0</asrwt>
<pdfrwt beam="1">  1        1 0.34048426E+00 0.96536782E+03</pdfrwt>
<pdfrwt beam="2">  1       -1 0.67892539E-01 0.96536782E+03</pdfrwt>
<totfact> 0.47770322E+00</totfact>
</mgrwt>
</event>
<event>
12    1  0.1335216E-007  0.6605415E+03  0.7818608E-02  0.9787198E-01
         -1   -1    0    0    0  501 -0.00000000000E+00  0.00000000000E+00  0.65313864397E+03  0.65313864397E+03  0.00000000000E+00 0.  1.
          1   -1    0    0  501    0  0.00000000000E+00 -0.00000000000E+00 -0.75316831117E+03  0.75316831117E+03  0.00000000000E+00 0. -1.
         23    2    1    2    0    0  0.51644609863E+03  0.22910048753E+03  0.24842840973E+02  0.57280870939E+03  0.91044190513E+02 0.  0.
    5000000    2    1    2    0    0 -0.51644609863E+03 -0.22910048753E+03 -0.12487250817E+03  0.83349824576E+03  0.59993547670E+03 0.  0.
         23    2    4    4    0    0 -0.14103208349E+03  0.16026638680E+03  0.84501018260E+02  0.24614223933E+03  0.88714241159E+02 0.  0.
         23    2    4    4    0    0 -0.37541401514E+03 -0.38936687433E+03 -0.20937352643E+03  0.58735600643E+03  0.92776932105E+02 0.  0.
          2    1    3    3  502    0  0.18910236297E+03  0.10539248763E+03 -0.30138715032E+02  0.21857635341E+03  0.00000000000E+00 0. -1.
         -2    1    3    3    0  502  0.32734373566E+03  0.12370799990E+03  0.54981556005E+02  0.35423235597E+03  0.00000000000E+00 0.  1.
         13    1    5    5    0    0 -0.62475273500E+02  0.77124879642E+02 -0.72330766664E+01  0.99517457046E+02  0.00000000000E+00 0.  1.
        -13    1    5    5    0    0 -0.78556809993E+02  0.83141507156E+02  0.91734094926E+02  0.14662478229E+03  0.00000000000E+00 0. -1.
          4    1    6    6  503    0 -0.17418284061E+03 -0.18967007030E+03 -0.50659468187E+02  0.26245147980E+03  0.00000000000E+00 0. -1.
         -4    1    6    6    0  503 -0.20123117453E+03 -0.19969680402E+03 -0.15871405824E+03  0.32490452663E+03  0.00000000000E+00 0.  1.
<mgrwt>
<rscale>  0 0.66054145E+03</rscale>
<asrwt>0</asrwt>
<pdfrwt beam="1">  1        1 0.11587205E+00 0.66054145E+03</pdfrwt>
<pdfrwt beam="2">  1       -1 0.10048287E+00 0.66054145E+03</pdfrwt>
<totfact> 0.23790584E+01</totfact>
</mgrwt>
</event>
<event>
12    1  0.1335216E-007  0.1826060E+04  0.7818608E-02  0.8692563E-01
          2   -1    0    0  501    0  0.00000000000E+00  0.00000000000E+00  0.19083038481E+04  0.19083038481E+04  0.00000000000E+00 0. -1.
         -2   -1    0    0    0  501 -0.00000000000E+00 -0.00000000000E+00 -0.20093075090E+04  0.20093075090E+04  0.00000000000E+00 0.  1.
         23    2    1    2    0    0 -0.98228605310E+03 -0.15326791862E+04 -0.63200253980E+03  0.19291360702E+04  0.90262890214E+02 0.  0.
    5000000    2    1    2    0    0  0.98228605310E+03  0.15326791862E+04  0.53099887882E+03  0.19884752869E+04  0.59840018329E+03 0.  0.
         23    2    4    4    0    0  0.85652925432E+03  0.14210793800E+04  0.62431481948E+03  0.17752184180E+04  0.92317225012E+02 0.  0.
         23    2    4    4    0    0  0.12575679878E+03  0.11159980620E+03 -0.93315940655E+02  0.21325686889E+03  0.92202701510E+02 0.  0.
          3    1    3    3  502    0 -0.62217629226E+03 -0.99508247493E+03 -0.45075946257E+03  0.12571700616E+04  0.00000000000E+00 0. -1.
         -3    1    3    3    0  502 -0.36010976084E+03 -0.53759671124E+03 -0.18124307723E+03  0.67196600868E+03  0.00000000000E+00 0.  1.
         13    1    5    5    0    0  0.58558803576E+03  0.91777257650E+03  0.37291951168E+03  0.11507774815E+04  0.00000000000E+00 0. -1.
        -13    1    5    5    0    0  0.27094121856E+03  0.50330680347E+03  0.25139530780E+03  0.62444093645E+03  0.00000000000E+00 0.  1.
          1    1    6    6  503    0  0.11222900558E+03  0.11070273551E+03 -0.46261253142E+02  0.16428800591E+03  0.00000000000E+00 0. -1.
         -1    1    6    6    0  503  0.13527793201E+02  0.89707068438E+00 -0.47054687513E+02  0.48968862981E+02  0.00000000000E+00 0.  1.
<mgrwt>
<rscale>  0 0.18260596E+04</rscale>
<asrwt>0</asrwt>
<pdfrwt beam="1">  1        2 0.29358521E+00 0.18260596E+04</pdfrwt>
<pdfrwt beam="2">  1       -2 0.30912423E+00 0.18260596E+04</pdfrwt>
<totfact> 0.19019987E-01</totfact>
</mgrwt>
</event>
<event>
12    1  0.1335216E-007  0.1528352E+04  0.7818608E-02  0.8865815E-01
          2   -1    0    0  501    0  0.00000000000E+00  0.00000000000E+00  0.15666486135E+04  0.15666486135E+04  0.00000000000E+00 0. -1.
         -2   -1    0    0    0  501 -0.00000000000E+00 -0.00000000000E+00 -0.19169466604E+04  0.19169466604E+04  0.00000000000E+00 0.  1.
         23    2    1    2    0    0 -0.25082042652E+03 -0.14615207417E+04 -0.96320770563E+03  0.17705159606E+04  0.89464617933E+02 0.  0.
    5000000    2    1    2    0    0  0.25082042652E+03  0.14615207417E+04  0.61290965871E+03  0.17130793133E+04  0.60002393222E+03 0.  0.
         23    2    4    4    0    0  0.39556809118E+03  0.81300417522E+03  0.21238248536E+03  0.93293984070E+03  0.88433718620E+02 0.  0.
         23    2    4    4    0    0 -0.14474766466E+03  0.64851656646E+03  0.40052717335E+03  0.78013947261E+03  0.81669803114E+02 0.  0.
          2    1    3    3  502    0 -0.11135005542E+03 -0.43930668594E+03 -0.31917676016E+03  0.55431309148E+03  0.00000000000E+00 0. -1.
         -2    1    3    3    0  502 -0.13947037111E+03 -0.10222140557E+04 -0.64403094547E+03  0.12162028691E+04  0.00000000000E+00 0.  1.
         13    1    5    5    0    0  0.21602524020E+03  0.46243093272E+03  0.75484572207E+02  0.51595270382E+03  0.00000000000E+00 0. -1.
        -13    1    5    5    0    0  0.17954285099E+03  0.35057324250E+03  0.13689791315E+03  0.41698713688E+03  0.00000000000E+00 0.  1.
          4    1    6    6  503    0 -0.16175870569E+02  0.20857302747E+03  0.15341271011E+03  0.25942210045E+03  0.00000000000E+00 0. -1.
         -4    1    6    6    0  503 -0.12857179409E+03  0.43994353899E+03  0.24711446324E+03  0.52071737217E+03  0.00000000000E+00 0.  1.
<mgrwt>
<rscale>  0 0.15283524E+04</rscale>
<asrwt>0</asrwt>
<pdfrwt beam="1">  1        2 0.24102286E+00 0.15283524E+04</pdfrwt>
<pdfrwt beam="2">  1       -2 0.29491487E+00 0.15283524E+04</pdfrwt>
<totfact> 0.37260947E-01</totfact>
</mgrwt>
</event>
<event>
12    1  0.1335216E-007  0.3781970E+03  0.7818608E-02  0.1051602E+00
          2   -1    0    0  501    0  0.00000000000E+00  0.00000000000E+00  0.70601872601E+03  0.70601872601E+03  0.00000000000E+00 0. -1.
         -2   -1    0    0    0  501 -0.00000000000E+00 -0.00000000000E+00 -0.31628900475E+03  0.31628900475E+03  0.00000000000E+00 0.  1.
         23    2    1    2    0    0 -0.16898266722E+03  0.20736913277E+03  0.16488157913E+03  0.32798225821E+03  0.93964501348E+02 0.  0.
    5000000    2    1    2    0    0  0.16898266722E+03 -0.20736913277E+03  0.22484814213E+03  0.69432547256E+03  0.59997839609E+03 0.  0.
         23    2    4    4    0    0 -0.52442737980E+02 -0.24217759022E+03  0.33681644661E+03  0.42779553206E+03  0.90351937298E+02 0.  0.
         23    2    4    4    0    0  0.22142540520E+03  0.34808457451E+02 -0.11196830448E+03  0.26652994049E+03  0.90887123372E+02 0.  0.
          4    1    3    3  502    0 -0.43160830413E+02  0.56941309642E+02  0.96958580366E+02  0.12044142283E+03  0.00000000000E+00 0. -1.
         -4    1    3    3    0  502 -0.12582183680E+03  0.15042782313E+03  0.67922998767E+02  0.20754083538E+03  0.00000000000E+00 0.  1.
         13    1    5    5    0    0 -0.47315642330E+02 -0.10237326407E+03  0.21281869324E+03  0.24085441951E+03  0.00000000000E+00 0. -1.
        -13    1    5    5    0    0 -0.51270956498E+01 -0.13980432616E+03  0.12399775337E+03  0.18694111255E+03  0.00000000000E+00 0.  1.
          3    1    6    6  503    0  0.11512590068E+03 -0.19532514435E+02 -0.84191253567E+02  0.14395714398E+03  0.00000000000E+00 0. -1.
         -3    1    6    6    0  503  0.10629950452E+03  0.54340971886E+02 -0.27777050910E+02  0.12257279651E+03  0.00000000000E+00 0.  1.
<mgrwt>
<rscale>  0 0.37819699E+03</rscale>
<asrwt>0</asrwt>
<pdfrwt beam="1">  1        2 0.10861826E+00 0.37819699E+03</pdfrwt>
<pdfrwt beam="2">  1       -2 0.48659847E-01 0.37819699E+03</pdfrwt>
<totfact> 0.16810513E+02</totfact>
</mgrwt>
</event>
<event>
12    1  0.1335216E-007  0.1523500E+04  0.7818608E-02  0.8868975E-01
         -1   -1    0    0    0  501 -0.00000000000E+00  0.00000000000E+00  0.79700329594E+03  0.79700329594E+03  0.00000000000E+00 0.  1.
          1   -1    0    0  501    0  0.00000000000E+00 -0.00000000000E+00 -0.31141810055E+04  0.31141810055E+04  0.00000000000E+00 0. -1.
         23    2    1    2    0    0  0.13962942116E+04  0.58395959366E+03 -0.12502447817E+04  0.19647233993E+04  0.79872957544E+02 0.  0.
    5000000    2    1    2    0    0 -0.13962942116E+04 -0.58395959366E+03 -0.10669329279E+04  0.19464609021E+04  0.59976481913E+03 0.  0.
         23    2    4    4    0    0 -0.24401483388E+03 -0.22768793907E+02  0.21930338297E+02  0.26236799154E+03  0.91073410589E+02 0.  0.
         23    2    4    4    0    0 -0.11522793778E+04 -0.56119079975E+03 -0.10888632662E+04  0.16840929105E+04  0.88672660890E+02 0.  0.
          2    1    3    3  502    0  0.88492500826E+03  0.36160846026E+03 -0.83811113305E+03  0.12713312787E+04  0.00000000000E+00 0. -1.
         -2    1    3    3    0  502  0.51136920337E+03  0.22235113340E+03 -0.41213364860E+03  0.69339212066E+03  0.00000000000E+00 0.  1.
         13    1    5    5    0    0 -0.24342080393E+03 -0.28407400149E+02  0.56600819426E+01  0.24513813391E+03  0.00000000000E+00 0.  1.
        -13    1    5    5    0    0 -0.59402994630E+00  0.56386062414E+01  0.16270256354E+02  0.17229857624E+02  0.00000000000E+00 0. -1.
          4    1    6    6  503    0 -0.13294116548E+03 -0.83270582219E+02 -0.16573131576E+03  0.22819774838E+03  0.00000000000E+00 0. -1.
         -4    1    6    6    0  503 -0.10193382123E+04 -0.47792021753E+03 -0.92313195040E+03  0.14558951622E+04  0.00000000000E+00 0.  1.
<mgrwt>
<rscale>  0 0.15234997E+04</rscale>
<asrwt>0</asrwt>
<pdfrwt beam="1">  1        1 0.47910475E+00 0.15234997E+04</pdfrwt>
<pdfrwt beam="2">  1       -1 0.12261590E+00 0.15234997E+04</pdfrwt>
<totfact> 0.27574320E-01</totfact>
</mgrwt>
</event>
<event>
12    1  0.1335216E-007  0.1282824E+04  0.7818608E-02  0.9043298E-01
          1   -1    0    0  501    0  0.00000000000E+00  0.00000000000E+00  0.12535168391E+04  0.12535168391E+04  0.00000000000E+00 0. -1.
         -1   -1    0    0    0  501 -0.00000000000E+00 -0.00000000000E+00 -0.15259494078E+04  0.15259494078E+04  0.00000000000E+00 0.  1.
         23    2    1    2    0    0 -0.12114793354E+04 -0.38628380193E+03  0.21192875465E+03  0.12923341475E+04  0.91194277558E+02 0.  0.
    5000000    2    1    2    0    0  0.12114793354E+04  0.38628380193E+03 -0.48436132332E+03  0.14871320993E+04  0.60004885936E+03 0.  0.
         23    2    4    4    0    0  0.71822298667E+03  0.29857095633E+03 -0.57259236963E+03  0.97012074664E+03  0.91013003225E+02 0.  0.
         23    2    4    4    0    0  0.49325634869E+03  0.87712845595E+02  0.88231046315E+02  0.51701135266E+03  0.92307380221E+02 0.  0.
          1    1    3    3  502    0 -0.91508232628E+03 -0.32709330430E+03  0.18111315324E+03  0.98851791479E+03  0.00000000000E+00 0. -1.
         -1    1    3    3    0  502 -0.29639700907E+03 -0.59190497621E+02  0.30815601404E+02  0.30381623275E+03  0.00000000000E+00 0.  1.
         13    1    5    5    0    0  0.51622497182E+03  0.25646178160E+03 -0.43441558849E+03  0.72178789854E+03  0.00000000000E+00 0. -1.
        -13    1    5    5    0    0  0.20199801485E+03  0.42109174726E+02 -0.13817678115E+03  0.24833284810E+03  0.00000000000E+00 0.  1.
          1    1    6    6  503    0  0.30712899135E+03  0.98152836055E+02  0.44042022611E+02  0.32542571550E+03  0.00000000000E+00 0. -1.
         -1    1    6    6    0  503  0.18612735733E+03 -0.10439990460E+02  0.44189023705E+02  0.19158563715E+03  0.00000000000E+00 0.  1.
<mgrwt>
<rscale>  0 0.12828235E+04</rscale>
<asrwt>0</asrwt>
<pdfrwt beam="1">  1        1 0.19284875E+00 0.12828235E+04</pdfrwt>
<pdfrwt beam="2">  1       -1 0.23476145E+00 0.12828235E+04</pdfrwt>
<totfact> 0.83254602E-01</totfact>
</mgrwt>
</event>
<event>
12    1  0.1335216E-007  0.4934685E+03  0.7818608E-02  0.1015498E+00
          1   -1    0    0  501    0  0.00000000000E+00  0.00000000000E+00  0.73150726843E+03  0.73150726843E+03  0.00000000000E+00 0. -1.
         -1   -1    0    0    0  501 -0.00000000000E+00 -0.00000000000E+00 -0.37148667245E+03  0.37148667245E+03  0.00000000000E+00 0.  1.
         23    2    1    2    0    0 -0.33317223172E+03  0.56497209949E+02  0.75913162363E+02  0.35830932201E+03  0.91799190106E+02 0.  0.
    5000000    2    1    2    0    0  0.33317223172E+03 -0.56497209949E+02  0.28410743362E+03  0.74468461886E+03  0.59970199017E+03 0.  0.
         23    2    4    4    0    0  0.88486308125E+02 -0.29225360247E+03  0.21632734849E+03  0.38606861696E+03  0.94918177464E+02 0.  0.
         23    2    4    4    0    0  0.24468592359E+03  0.23575639252E+03  0.67780085130E+02  0.35861600190E+03  0.92514966702E+02 0.  0.
          2    1    3    3  502    0 -0.17413860251E+03  0.34833244265E+02 -0.68589462035E+01  0.17772071611E+03  0.00000000000E+00 0.  1.
         -2    1    3    3    0  502 -0.15903362920E+03  0.21663965685E+02  0.82772108566E+02  0.18058860591E+03  0.00000000000E+00 0. -1.
         11    1    5    5    0    0  0.68305973347E+01 -0.48182581392E+02 -0.18028855874E+01  0.48697726907E+02  0.00000000000E+00 0.  1.
        -11    1    5    5    0    0  0.81655710791E+02 -0.24407102108E+03  0.21813023408E+03  0.33737089005E+03  0.00000000000E+00 0. -1.
          1    1    6    6  503    0  0.96208801455E+02  0.12416773198E+03  0.72088905793E+02  0.17283104316E+03  0.00000000000E+00 0. -1.
         -1    1    6    6    0  503  0.14847712213E+03  0.11158866054E+03 -0.43088206628E+01  0.18578495874E+03  0.00000000000E+00 0.  1.
<mgrwt>
<rscale>  0 0.49346847E+03</rscale>
<asrwt>0</asrwt>
<pdfrwt beam="1">  1        1 0.11253958E+00 0.49346847E+03</pdfrwt>
<pdfrwt beam="2">  1       -1 0.57151796E-01 0.49346847E+03</pdfrwt>
<totfact> 0.82509242E+01</totfact>
</mgrwt>
</event>
<event>
12    1  0.1335216E-007  0.9273802E+03  0.7818608E-02  0.9391988E-01
         -1   -1    0    0    0  501 -0.00000000000E+00  0.00000000000E+00  0.95138454939E+03  0.95138454939E+03  0.00000000000E+00 0.  1.
          1   -1    0    0  501    0  0.00000000000E+00 -0.00000000000E+00 -0.19459390535E+04  0.19459390535E+04  0.00000000000E+00 0. -1.
         23    2    1    2    0    0 -0.89379524079E+03 -0.80492109380E+02  0.51708290931E+03  0.10396947588E+04  0.90782950928E+02 0.  0.
    5000000    2    1    2    0    0  0.89379524079E+03  0.80492109380E+02 -0.15116374134E+04  0.18576288441E+04  0.60032353000E+03 0.  0.
         23    2    4    4    0    0  0.81006422720E+03 -0.21229511052E+02 -0.14859822716E+04  0.16949531819E+04  0.89823343170E+02 0.  0.
         23    2    4    4    0    0  0.83731013595E+02  0.10172162043E+03 -0.25655141747E+02  0.16267566215E+03  0.91907638730E+02 0.  0.
          3    1    3    3  502    0 -0.69789542269E+03 -0.81012466132E+02  0.44111430872E+03  0.82957993830E+03  0.00000000000E+00 0. -1.
         -3    1    3    3    0  502 -0.19589981811E+03  0.52035675229E+00  0.75968600591E+02  0.21011482047E+03  0.00000000000E+00 0.  1.
         11    1    5    5    0    0  0.72104887738E+03  0.94902439273E+01 -0.13187229164E+04  0.15030075444E+04  0.00000000000E+00 0.  1.
        -11    1    5    5    0    0  0.89015349819E+02 -0.30719754980E+02 -0.16725935527E+03  0.19194563755E+03  0.00000000000E+00 0. -1.
          3    1    6    6  503    0  0.62585722854E+02  0.36534550936E+02  0.25856962119E+02  0.76943671652E+02  0.00000000000E+00 0. -1.
         -3    1    6    6    0  503  0.21145290740E+02  0.65187069497E+02 -0.51512103866E+02  0.85731990498E+02  0.00000000000E+00 0.  1.
<mgrwt>
<rscale>  0 0.92738019E+03</rscale>
<asrwt>0</asrwt>
<pdfrwt beam="1">  1        1 0.29937523E+00 0.92738019E+03</pdfrwt>
<pdfrwt beam="2">  1       -1 0.14636686E+00 0.92738019E+03</pdfrwt>
<totfact> 0.12350769E+00</totfact>
</mgrwt>
</event>
<event>
12    1  0.1335216E-007  0.5761746E+03  0.7818608E-02  0.9956107E-01
          1   -1    0    0  501    0  0.00000000000E+00  0.00000000000E+00  0.40889675266E+03  0.40889675266E+03  0.00000000000E+00 0. -1.
         -1   -1    0    0    0  501 -0.00000000000E+00 -0.00000000000E+00 -0.13299888403E+04  0.13299888403E+04  0.00000000000E+00 0.  1.
         23    2    1    2    0    0 -0.50283765118E+03 -0.23550321383E+03 -0.68823566349E+03  0.88894849497E+03  0.90849496670E+02 0.  0.
    5000000    2    1    2    0    0  0.50283765118E+03  0.23550321383E+03 -0.23285642415E+03  0.84993709800E+03  0.59988623015E+03 0.  0.
         23    2    4    4    0    0  0.16151894106E+03 -0.75002468366E+01 -0.35767777652E+03  0.40334338683E+03  0.92778628242E+02 0.  0.
         23    2    4    4    0    0  0.34131871011E+03  0.24300346066E+03  0.12482135237E+03  0.44659371117E+03  0.91194457522E+02 0.  0.
          4    1    3    3  502    0 -0.28205056694E+03 -0.84619847159E+02 -0.38352953902E+03  0.48353691497E+03  0.00000000000E+00 0. -1.
         -4    1    3    3    0  502 -0.22078708424E+03 -0.15088336667E+03 -0.30470612448E+03  0.40541158000E+03  0.00000000000E+00 0.  1.
         11    1    5    5    0    0  0.91186160048E+02 -0.30038415861E+02 -0.11569880027E+03  0.15034438665E+03  0.00000000000E+00 0.  1.
        -11    1    5    5    0    0  0.70332781017E+02  0.22538169024E+02 -0.24197897624E+03  0.25299900018E+03  0.00000000000E+00 0. -1.
          2    1    6    6  503    0  0.11094456736E+03  0.58348272487E+02 -0.17425858672E+01  0.12536448674E+03  0.00000000000E+00 0. -1.
         -2    1    6    6    0  503  0.23037414275E+03  0.18465518818E+03  0.12656393823E+03  0.32122922443E+03  0.00000000000E+00 0.  1.
<mgrwt>
<rscale>  0 0.57617459E+03</rscale>
<asrwt>0</asrwt>
<pdfrwt beam="1">  1        1 0.62907194E-01 0.57617459E+03</pdfrwt>
<pdfrwt beam="2">  1       -1 0.20461366E+00 0.57617459E+03</pdfrwt>
<totfact> 0.86329890E+00</totfact>
</mgrwt>
</event>
<event>
12    1  0.1335216E-007  0.9704541E+03  0.7818608E-02  0.9341557E-01
          1   -1    0    0  501    0  0.00000000000E+00  0.00000000000E+00  0.68612563258E+03  0.68612563258E+03  0.00000000000E+00 0. -1.
         -1   -1    0    0    0  501 -0.00000000000E+00 -0.00000000000E+00 -0.16001816169E+04  0.16001816169E+04  0.00000000000E+00 0.  1.
         23    2    1    2    0    0 -0.61918058116E+03  0.73144588208E+03 -0.46563705171E+03  0.10699009014E+04  0.97326277891E+02 0.  0.
    5000000    2    1    2    0    0  0.61918058116E+03 -0.73144588208E+03 -0.44841893262E+03  0.12164063481E+04  0.60013931221E+03 0.  0.
         23    2    4    4    0    0  0.21236220822E+03 -0.34092721825E+03 -0.49417534322E+03  0.64344572553E+03  0.92108936738E+02 0.  0.
         23    2    4    4    0    0  0.40681837294E+03 -0.39051866383E+03  0.45756410596E+02  0.57296062257E+03  0.90466626731E+02 0.  0.
          1    1    3    3  502    0 -0.22341424628E+03  0.19539196271E+03 -0.13523548086E+03  0.32616035905E+03  0.00000000000E+00 0. -1.
         -1    1    3    3    0  502 -0.39576633488E+03  0.53605391937E+03 -0.33040157086E+03  0.74374054234E+03  0.00000000000E+00 0.  1.
         13    1    5    5    0    0  0.97471494433E+02 -0.23708716375E+03 -0.28744908216E+03  0.38514671267E+03  0.00000000000E+00 0. -1.
        -13    1    5    5    0    0  0.11489071379E+03 -0.10384005450E+03 -0.20672626105E+03  0.25829901285E+03  0.00000000000E+00 0.  1.
          1    1    6    6  503    0  0.30108137756E+03 -0.32062052223E+03  0.51285651857E+01  0.43985658727E+03  0.00000000000E+00 0. -1.
         -1    1    6    6    0  503  0.10573699538E+03 -0.69898141600E+02  0.40627845410E+02  0.13310403530E+03  0.00000000000E+00 0.  1.
<mgrwt>
<rscale>  0 0.97045412E+03</rscale>
<asrwt>0</asrwt>
<pdfrwt beam="1">  1        1 0.10555779E+00 0.97045412E+03</pdfrwt>
<pdfrwt beam="2">  1       -1 0.24618178E+00 0.97045412E+03</pdfrwt>
<totfact> 0.20979238E+00</totfact>
</mgrwt>
</event>
<event>
12    1  0.1335216E-007  0.4164027E+03  0.7818608E-02  0.1038243E+00
          1   -1    0    0  501    0  0.00000000000E+00  0.00000000000E+00  0.43702632194E+03  0.43702632194E+03  0.00000000000E+00 0. -1.
         -1   -1    0    0    0  501 -0.00000000000E+00 -0.00000000000E+00 -0.66520561989E+03  0.66520561989E+03  0.00000000000E+00 0.  1.
         23    2    1    2    0    0  0.14129014940E+03  0.33189877827E+03 -0.19386429974E+02  0.37161698866E+03  0.87198894821E+02 0.  0.
    5000000    2    1    2    0    0 -0.14129014940E+03 -0.33189877827E+03 -0.20879286798E+03  0.73061495317E+03  0.60007003153E+03 0.  0.
         23    2    4    4    0    0  0.24483967758E+02 -0.25102794394E+03  0.15461008436E+03  0.31287986987E+03  0.10185794750E+03 0.  0.
         23    2    4    4    0    0 -0.16577411716E+03 -0.80870834330E+02 -0.36340295234E+03  0.41773508330E+03  0.91759164576E+02 0.  0.
          4    1    3    3  502    0  0.10941727909E+03  0.14632747759E+03 -0.50273694739E+01  0.18278168974E+03  0.00000000000E+00 0. -1.
         -4    1    3    3    0  502  0.31872870308E+02  0.18557130068E+03 -0.14359060501E+02  0.18883529892E+03  0.00000000000E+00 0.  1.
         13    1    5    5    0    0  0.64007055831E+01 -0.29266823929E+01  0.37100516845E+02  0.37762188124E+02  0.00000000000E+00 0.  1.
        -13    1    5    5    0    0  0.18083262175E+02 -0.24810126155E+03  0.11750956751E+03  0.27511768175E+03  0.00000000000E+00 0. -1.
          2    1    6    6  503    0 -0.53668355794E+02  0.17922499429E+02 -0.10111864404E+03  0.11587272575E+03  0.00000000000E+00 0. -1.
         -2    1    6    6    0  503 -0.11210576136E+03 -0.98793333759E+02 -0.26228430830E+03  0.30186235755E+03  0.00000000000E+00 0.  1.
<mgrwt>
<rscale>  0 0.41640272E+03</rscale>
<asrwt>0</asrwt>
<pdfrwt beam="1">  1        1 0.67234818E-01 0.41640272E+03</pdfrwt>
<pdfrwt beam="2">  1       -1 0.10233933E+00 0.41640272E+03</pdfrwt>
<totfact> 0.50979057E+01</totfact>
</mgrwt>
</event>
<event>
12    1  0.1335216E-007  0.5140509E+03  0.7818608E-02  0.1010175E+00
         -2   -1    0    0    0  501 -0.00000000000E+00  0.00000000000E+00  0.13524113332E+03  0.13524113332E+03  0.00000000000E+00 0.  1.
          2   -1    0    0  501    0  0.00000000000E+00 -0.00000000000E+00 -0.21905742230E+04  0.21905742230E+04  0.00000000000E+00 0. -1.
         23    2    1    2    0    0 -0.35481221397E+03  0.96077429260E+02 -0.60063041676E+03  0.70985975921E+03  0.89562272269E+02 0.  0.
    5000000    2    1    2    0    0  0.35481221397E+03 -0.96077429260E+02 -0.14547026730E+04  0.16159555971E+04  0.60002503751E+03 0.  0.
         23    2    4    4    0    0 -0.13105369619E+03 -0.95484953141E+02 -0.60619852766E+03  0.63404721571E+03  0.90811724238E+02 0.  0.
         23    2    4    4    0    0  0.48586591016E+03 -0.59247611915E+00 -0.84850414530E+03  0.98190838143E+03  0.90104113364E+02 0.  0.
          4    1    3    3  502    0 -0.25670123337E+03  0.69256233153E+02 -0.35122594608E+03  0.44051289907E+03  0.00000000000E+00 0. -1.
         -4    1    3    3    0  502 -0.98110980605E+02  0.26821196107E+02 -0.24940447068E+03  0.26934686015E+03  0.00000000000E+00 0.  1.
         11    1    5    5    0    0 -0.96074917854E+02 -0.47878819540E+02 -0.23731579269E+03  0.26046411780E+03  0.00000000000E+00 0.  1.
        -11    1    5    5    0    0 -0.34978778337E+02 -0.47606133601E+02 -0.36888273496E+03  0.37358309791E+03  0.00000000000E+00 0. -1.
          2    1    6    6  503    0  0.44534291459E+03 -0.26272550640E+02 -0.76155819516E+03  0.88260491904E+03  0.00000000000E+00 0. -1.
         -2    1    6    6    0  503  0.40522995576E+02  0.25680074521E+02 -0.86945950137E+02  0.99303462392E+02  0.00000000000E+00 0.  1.
<mgrwt>
<rscale>  0 0.51405091E+03</rscale>
<asrwt>0</asrwt>
<pdfrwt beam="1">  1        2 0.33701140E+00 0.51405091E+03</pdfrwt>
<pdfrwt beam="2">  1       -2 0.20806329E-01 0.51405091E+03</pdfrwt>
<totfact> 0.11053081E+02</totfact>
</mgrwt>
</event>
<event>
12    1  0.1335216E-007  0.1015404E+04  0.7818608E-02  0.9291810E-01
         -1   -1    0    0    0  501 -0.00000000000E+00  0.00000000000E+00  0.19389407545E+04  0.19389407545E+04  0.00000000000E+00 0.  1.
          1   -1    0    0  501    0  0.00000000000E+00 -0.00000000000E+00 -0.62004739640E+03  0.62004739640E+03  0.00000000000E+00 0. -1.
         23    2    1    2    0    0 -0.94612817224E+03  0.24500989828E+03  0.30458391456E+03  0.10279887362E+04  0.93814242532E+02 0.  0.
    5000000    2    1    2    0    0  0.94612817224E+03 -0.24500989828E+03  0.10143094436E+04  0.15309994148E+04  0.59995599184E+03 0.  0.
         23    2    4    4    0    0  0.44953508238E+03  0.60615842019E+02  0.75614644910E+03  0.88666106988E+03  0.93028650204E+02 0.  0.
         23    2    4    4    0    0  0.49659308986E+03 -0.30562574030E+03  0.25816299447E+03  0.64433834489E+03  0.92260397540E+02 0.  0.
          1    1    3    3  502    0 -0.41066471240E+03  0.14674298805E+03  0.16208420338E+03  0.46524219449E+03  0.00000000000E+00 0. -1.
         -1    1    3    3    0  502 -0.53546345984E+03  0.98266910226E+02  0.14249971118E+03  0.56274654166E+03  0.00000000000E+00 0.  1.
         11    1    5    5    0    0  0.30735093094E+03  0.83515142646E+02  0.50067514433E+03  0.59339276533E+03  0.00000000000E+00 0. -1.
        -11    1    5    5    0    0  0.14218415144E+03 -0.22899300627E+02  0.25547130477E+03  0.29326830454E+03  0.00000000000E+00 0.  1.
          4    1    6    6  503    0  0.92939812289E+02 -0.25209084031E+02  0.65327781897E+02  0.11636591302E+03  0.00000000000E+00 0.  1.
         -4    1    6    6    0  503  0.40365327757E+03 -0.28041665627E+03  0.19283521258E+03  0.52797243187E+03  0.00000000000E+00 0. -1.
<mgrwt>
<rscale>  0 0.10154039E+04</rscale>
<asrwt>0</asrwt>
<pdfrwt beam="1">  1        1 0.95391908E-01 0.10154039E+04</pdfrwt>
<pdfrwt beam="2">  1       -1 0.29829857E+00 0.10154039E+04</pdfrwt>
<totfact> 0.11189165E+00</totfact>
</mgrwt>
</event>
<event>
12    1  0.1335216E-007  0.4842883E+03  0.7818608E-02  0.1017963E+00
         -1   -1    0    0    0  501 -0.00000000000E+00  0.00000000000E+00  0.28353123322E+03  0.28353123322E+03  0.00000000000E+00 0.  1.
          1   -1    0    0  501    0  0.00000000000E+00 -0.00000000000E+00 -0.15730538711E+04  0.15730538711E+04  0.00000000000E+00 0. -1.
         23    2    1    2    0    0  0.25503883677E+03 -0.33555028709E+03 -0.96059996767E+03  0.10530163441E+04  0.91936497606E+02 0.  0.
    5000000    2    1    2    0    0 -0.25503883677E+03  0.33555028709E+03 -0.32892267025E+03  0.80356876028E+03  0.59991151520E+03 0.  0.
         23    2    4    4    0    0  0.62011773682E+02  0.91280130203E+02 -0.36459086425E+03  0.39153207398E+03  0.90517094589E+02 0.  0.
         23    2    4    4    0    0 -0.31705061046E+03  0.24427015689E+03  0.35668193998E+02  0.41203668630E+03  0.91175718589E+02 0.  0.
          2    1    3    3  502    0  0.11224436887E+03 -0.93852706851E+02 -0.40296499401E+03  0.42870492804E+03  0.00000000000E+00 0. -1.
         -2    1    3    3    0  502  0.14279446791E+03 -0.24169758024E+03 -0.55763497366E+03  0.62431141604E+03  0.00000000000E+00 0.  1.
         13    1    5    5    0    0  0.32071335760E+02  0.10341178308E+03 -0.30652342565E+03  0.32508333998E+03  0.00000000000E+00 0.  1.
        -13    1    5    5    0    0  0.29940437922E+02 -0.12131652882E+02 -0.58067438600E+02  0.66448734000E+02  0.00000000000E+00 0. -1.
          3    1    6    6  503    0 -0.17282721147E+03  0.11795282223E+03  0.62668706736E+02  0.21842499880E+03  0.00000000000E+00 0. -1.
         -3    1    6    6    0  503 -0.14422339899E+03  0.12631733466E+03 -0.27000512738E+02  0.19361168751E+03  0.00000000000E+00 0.  1.
<mgrwt>
<rscale>  0 0.48428827E+03</rscale>
<asrwt>0</asrwt>
<pdfrwt beam="1">  1        1 0.24200828E+00 0.48428827E+03</pdfrwt>
<pdfrwt beam="2">  1       -1 0.43620191E-01 0.48428827E+03</pdfrwt>
<totfact> 0.32490747E+01</totfact>
</mgrwt>
</event>
<event>
12    1  0.1335216E-007  0.1480605E+04  0.7818608E-02  0.8897454E-01
         -2   -1    0    0    0  501 -0.00000000000E+00  0.00000000000E+00  0.85119731908E+03  0.85119731908E+03  0.00000000000E+00 0.  1.
          2   -1    0    0  501    0  0.00000000000E+00 -0.00000000000E+00 -0.33380222471E+04  0.33380222471E+04  0.00000000000E+00 0. -1.
         23    2    1    2    0    0 -0.80957274534E+03  0.12216263565E+04 -0.31582533011E+03  0.15020093163E+04  0.92235362577E+02 0.  0.
    5000000    2    1    2    0    0  0.80957274534E+03 -0.12216263565E+04 -0.21709995979E+04  0.26872102499E+04  0.60006723644E+03 0.  0.
         23    2    4    4    0    0  0.36780766458E+03 -0.75956316228E+03 -0.16576225625E+04  0.18623997859E+04  0.92745497770E+02 0.  0.
         23    2    4    4    0    0  0.44176508076E+03 -0.46206319421E+03 -0.51337703540E+03  0.82481046396E+03  0.89986326529E+02 0.  0.
          4    1    3    3  502    0 -0.17170768155E+03  0.32202533735E+03 -0.98543481817E+02  0.37801410504E+03  0.00000000000E+00 0. -1.
         -4    1    3    3    0  502 -0.63786506379E+03  0.89960101914E+03 -0.21728184830E+03  0.11239952112E+04  0.00000000000E+00 0.  1.
         11    1    5    5    0    0  0.28409705762E+03 -0.49266010119E+03 -0.11431974872E+04  0.12768420451E+04  0.00000000000E+00 0. -1.
        -11    1    5    5    0    0  0.83710606955E+02 -0.26690306109E+03 -0.51442507528E+03  0.58555774081E+03  0.00000000000E+00 0.  1.
          3    1    6    6  503    0  0.14605885403E+03 -0.97404112204E+02 -0.12516464448E+03  0.21560829795E+03  0.00000000000E+00 0. -1.
         -3    1    6    6    0  503  0.29570622673E+03 -0.36465908201E+03 -0.38821239091E+03  0.60920216602E+03  0.00000000000E+00 0.  1.
<mgrwt>
<rscale>  0 0.14806052E+04</rscale>
<asrwt>0</asrwt>
<pdfrwt beam="1">  1        2 0.51354189E+00 0.14806052E+04</pdfrwt>
<pdfrwt beam="2">  1       -2 0.13095343E+00 0.14806052E+04</pdfrwt>
<totfact> 0.42822022E-01</totfact>
</mgrwt>
</event>
<event>
12    1  0.1335216E-007  0.1709973E+04  0.7818608E-02  0.8755697E-01
          2   -1    0    0  501    0  0.00000000000E+00  0.00000000000E+00  0.25409522891E+04  0.25409522891E+04  0.00000000000E+00 0. -1.
         -2   -1    0    0    0  501 -0.00000000000E+00 -0.00000000000E+00 -0.11945756690E+04  0.11945756690E+04  0.00000000000E+00 0.  1.
         23    2    1    2    0    0 -0.39345367528E+03 -0.16428122032E+04  0.65525379836E+03  0.18142770867E+04  0.92768946389E+02 0.  0.
    5000000    2    1    2    0    0  0.39345367528E+03  0.16428122032E+04  0.69112282179E+03  0.19212508714E+04  0.59993035136E+03 0.  0.
         23    2    4    4    0    0  0.36532215593E+03  0.82022824785E+03  0.60998869186E+03  0.10892895301E+04  0.90723867121E+02 0.  0.
         23    2    4    4    0    0  0.28131519350E+02  0.82258395534E+03  0.81134129923E+02  0.83196134126E+03  0.90228489673E+02 0.  0.
          1    1    3    3  502    0 -0.38504133968E+03 -0.15064595815E+04  0.61179824445E+03  0.16709202242E+04  0.00000000000E+00 0. -1.
         -1    1    3    3    0  502 -0.84123355968E+01 -0.13635262171E+03  0.43455553909E+02  0.14335686242E+03  0.00000000000E+00 0.  1.
         13    1    5    5    0    0  0.16502691496E+03  0.27952973772E+03  0.24762084495E+03  0.40827299664E+03  0.00000000000E+00 0. -1.
        -13    1    5    5    0    0  0.20029524098E+03  0.54069851013E+03  0.36236784691E+03  0.68101653349E+03  0.00000000000E+00 0.  1.
          4    1    6    6  503    0  0.47432243665E+02  0.76561388351E+03  0.65873903636E+02  0.76990506398E+03  0.00000000000E+00 0. -1.
         -4    1    6    6    0  503 -0.19300724315E+02  0.56970071827E+02  0.15260226287E+02  0.62056277276E+02  0.00000000000E+00 0.  1.
<mgrwt>
<rscale>  0 0.17099730E+04</rscale>
<asrwt>0</asrwt>
<pdfrwt beam="1">  1        2 0.39091574E+00 0.17099730E+04</pdfrwt>
<pdfrwt beam="2">  1       -2 0.18378087E+00 0.17099730E+04</pdfrwt>
<totfact> 0.51849089E-01</totfact>
</mgrwt>
</event>
<event>
12    1  0.1335216E-007  0.1339522E+04  0.7818608E-02  0.8998798E-01
         -2   -1    0    0    0  501 -0.00000000000E+00  0.00000000000E+00  0.81879457444E+03  0.81879457444E+03  0.00000000000E+00 0.  1.
          2   -1    0    0  501    0  0.00000000000E+00 -0.00000000000E+00 -0.31925514279E+04  0.31925514279E+04  0.00000000000E+00 0. -1.
         23    2    1    2    0    0 -0.21625243476E+03  0.12665092815E+04 -0.50039816835E+02  0.12891158314E+04  0.92221296865E+02 0.  0.
    5000000    2    1    2    0    0  0.21625243476E+03 -0.12665092815E+04 -0.23237170366E+04  0.27222301710E+04  0.60005446559E+03 0.  0.
         23    2    4    4    0    0  0.32363067162E+03 -0.12118645388E+04 -0.19701214096E+04  0.23372966771E+04  0.90691324015E+02 0.  0.
         23    2    4    4    0    0 -0.10737823687E+03 -0.54644742771E+02 -0.35359562697E+03  0.38493349382E+03  0.92885917085E+02 0.  0.
          1    1    3    3  502    0 -0.93609294971E+02  0.80328589075E+03 -0.19428373762E+02  0.80895511871E+03  0.00000000000E+00 0. -1.
         -1    1    3    3    0  502 -0.12264313979E+03  0.46322339080E+03 -0.30611443073E+02  0.48016071264E+03  0.00000000000E+00 0.  1.
         13    1    5    5    0    0  0.13953551425E+03 -0.37107092431E+03 -0.59225790269E+03  0.71269433414E+03  0.00000000000E+00 0.  1.
        -13    1    5    5    0    0  0.18409515737E+03 -0.84079361446E+03 -0.13778635069E+04  0.16246023430E+04  0.00000000000E+00 0. -1.
          1    1    6    6  503    0 -0.11436381090E+03 -0.47037416746E+02 -0.35360655648E+03  0.37460538784E+03  0.00000000000E+00 0. -1.
         -1    1    6    6    0  503  0.69855740288E+01 -0.76073260246E+01  0.10929508715E-01  0.10328105984E+02  0.00000000000E+00 0.  1.
<mgrwt>
<rscale>  0 0.13395219E+04</rscale>
<asrwt>0</asrwt>
<pdfrwt beam="1">  1        2 0.49116177E+00 0.13395219E+04</pdfrwt>
<pdfrwt beam="2">  1       -2 0.12596839E+00 0.13395219E+04</pdfrwt>
<totfact> 0.59946685E-01</totfact>
</mgrwt>
</event>
<event>
12    1  0.1335216E-007  0.7356114E+03  0.7818608E-02  0.9658198E-01
         -2   -1    0    0    0  501 -0.00000000000E+00  0.00000000000E+00  0.55061127479E+03  0.55061127479E+03  0.00000000000E+00 0.  1.
          2   -1    0    0  501    0  0.00000000000E+00 -0.00000000000E+00 -0.12570959950E+04  0.12570959950E+04  0.00000000000E+00 0. -1.
         23    2    1    2    0    0  0.65993656107E+03  0.28447231448E+03 -0.33677245252E+03  0.80113608974E+03  0.10937361278E+03 0.  0.
    5000000    2    1    2    0    0 -0.65993656107E+03 -0.28447231448E+03 -0.36971226765E+03  0.10065711800E+04  0.60004801243E+03 0.  0.
         23    2    4    4    0    0 -0.40649792559E+03 -0.26850142337E+03  0.60325330749E+02  0.49908626566E+03  0.90079837799E+02 0.  0.
         23    2    4    4    0    0 -0.25343863548E+03 -0.15970891108E+02 -0.43003759840E+03  0.50748491434E+03  0.90124308225E+02 0.  0.
          4    1    3    3  502    0  0.54138885563E+03  0.26330388731E+03 -0.31247805968E+03  0.67828708366E+03  0.00000000000E+00 0. -1.
         -4    1    3    3    0  502  0.11854770544E+03  0.21168427176E+02 -0.24294392840E+02  0.12284900609E+03  0.00000000000E+00 0.  1.
         11    1    5    5    0    0 -0.42615528862E+02 -0.46560991697E+02 -0.18194105792E+02  0.65688923980E+02  0.00000000000E+00 0.  1.
        -11    1    5    5    0    0 -0.36388239673E+03 -0.22194043168E+03  0.78519436541E+02  0.43339734168E+03  0.00000000000E+00 0. -1.
          4    1    6    6  503    0 -0.21339317771E+03  0.65421545392E+01 -0.29004066608E+03  0.36014307721E+03  0.00000000000E+00 0. -1.
         -4    1    6    6    0  503 -0.40045457766E+02 -0.22513045647E+02 -0.13999693232E+03  0.14734183713E+03  0.00000000000E+00 0.  1.
<mgrwt>
<rscale>  0 0.73561136E+03</rscale>
<asrwt>0</asrwt>
<pdfrwt beam="1">  1        2 0.19339938E+00 0.73561136E+03</pdfrwt>
<pdfrwt beam="2">  1       -2 0.84709428E-01 0.73561136E+03</pdfrwt>
<totfact> 0.21730787E+01</totfact>
</mgrwt>
</event>
<event>
12    1  0.1335216E-007  0.4371722E+03  0.7818608E-02  0.1031618E+00
         -1   -1    0    0    0  501 -0.00000000000E+00  0.00000000000E+00  0.33213829614E+03  0.33213829614E+03  0.00000000000E+00 0.  1.
          1   -1    0    0  501    0  0.00000000000E+00 -0.00000000000E+00 -0.87578369821E+03  0.87578369821E+03  0.00000000000E+00 0. -1.
         23    2    1    2    0    0  0.26613558619E+03 -0.16904224489E+03  0.14897919801E+02  0.32965333149E+03  0.95110147448E+02 0.  0.
    5000000    2    1    2    0    0 -0.26613558619E+03  0.16904224489E+03 -0.55854332187E+03  0.87826866287E+03  0.59998480896E+03 0.  0.
         23    2    4    4    0    0 -0.11453915128E+03  0.32127132006E+03 -0.10521746467E+03  0.36827675219E+03  0.90678404625E+02 0.  0.
         23    2    4    4    0    0 -0.15159643491E+03 -0.15222907516E+03 -0.45332585720E+03  0.50999191068E+03  0.91827260406E+02 0.  0.
          3    1    3    3  502    0  0.12070916444E+03 -0.99950955480E+02 -0.35989458830E+02  0.16079843602E+03  0.00000000000E+00 0. -1.
         -3    1    3    3    0  502  0.14542642176E+03 -0.69091289414E+02  0.50887378631E+02  0.16885489546E+03  0.00000000000E+00 0.  1.
         13    1    5    5    0    0 -0.34409989619E+02  0.11381752271E+03 -0.82511785335E+02  0.14472964652E+03  0.00000000000E+00 0. -1.
        -13    1    5    5    0    0 -0.80129161659E+02  0.20745379734E+03 -0.22705679339E+02  0.22354710567E+03  0.00000000000E+00 0.  1.
          3    1    6    6  503    0 -0.44645160350E+02 -0.54449044053E+02 -0.25385593677E+03  0.26344017418E+03  0.00000000000E+00 0. -1.
         -3    1    6    6    0  503 -0.10695127456E+03 -0.97780031109E+02 -0.19946992043E+03  0.24655173650E+03  0.00000000000E+00 0.  1.
<mgrwt>
<rscale>  0 0.43717218E+03</rscale>
<asrwt>0</asrwt>
<pdfrwt beam="1">  1        1 0.13473595E+00 0.43717218E+03</pdfrwt>
<pdfrwt beam="2">  1       -1 0.51098199E-01 0.43717218E+03</pdfrwt>
<totfact> 0.77509263E+01</totfact>
</mgrwt>
</event>
<event>
12    1  0.1335216E-007  0.1921884E+04  0.7818608E-02  0.8644039E-01
         -1   -1    0    0    0  501 -0.00000000000E+00  0.00000000000E+00  0.18517675627E+04  0.18517675627E+04  0.00000000000E+00 0.  1.
          1   -1    0    0  501    0  0.00000000000E+00 -0.00000000000E+00 -0.23462572048E+04  0.23462572048E+04  0.00000000000E+00 0. -1.
         23    2    1    2    0    0  0.45647572526E+03  0.18647434836E+04 -0.93702668987E+03  0.21382726829E+04  0.92480816193E+02 0.  0.
    5000000    2    1    2    0    0 -0.45647572526E+03 -0.18647434836E+04  0.44253704781E+03  0.20597520847E+04  0.60091701944E+03 0.  0.
         23    2    4    4    0    0 -0.35082629218E+03 -0.14749451432E+04  0.99168862887E+02  0.15221639195E+04  0.92769995124E+02 0.  0.
         23    2    4    4    0    0 -0.10564943308E+03 -0.38979834044E+03  0.34336818492E+03  0.53758816513E+03  0.89413510985E+02 0.  0.
          1    1    3    3  502    0  0.11692076258E+03  0.34253025708E+03 -0.15820397588E+03  0.39500118952E+03  0.00000000000E+00 0. -1.
         -1    1    3    3    0  502  0.33955496268E+03  0.15222132265E+04 -0.77882271399E+03  0.17432714933E+04  0.00000000000E+00 0.  1.
         13    1    5    5    0    0 -0.25073264428E+03 -0.11913769853E+04  0.98431486745E+02  0.12214478039E+04  0.00000000000E+00 0. -1.
        -13    1    5    5    0    0 -0.10009364790E+03 -0.28356815787E+03  0.73737614230E+00  0.30071611568E+03  0.00000000000E+00 0.  1.
          1    1    6    6  503    0 -0.48068899689E+02 -0.19878015797E+03  0.11607149436E+03  0.23515263580E+03  0.00000000000E+00 0. -1.
         -1    1    6    6    0  503 -0.57580533387E+02 -0.19101818248E+03  0.22729669056E+03  0.30243552933E+03  0.00000000000E+00 0.  1.
<mgrwt>
<rscale>  0 0.19218845E+04</rscale>
<asrwt>0</asrwt>
<pdfrwt beam="1">  1        1 0.36096265E+00 0.19218845E+04</pdfrwt>
<pdfrwt beam="2">  1       -1 0.28488732E+00 0.19218845E+04</pdfrwt>
<totfact> 0.64216964E-02</totfact>
</mgrwt>
</event>
<event>
12    1  0.1335216E-007  0.4773639E+03  0.7818608E-02  0.1019862E+00
          1   -1    0    0  501    0  0.00000000000E+00  0.00000000000E+00  0.30927962391E+03  0.30927962391E+03  0.00000000000E+00 0. -1.
         -1   -1    0    0    0  501 -0.00000000000E+00 -0.00000000000E+00 -0.10318353854E+04  0.10318353854E+04  0.00000000000E+00 0.  1.
         23    2    1    2    0    0  0.38074117607E+02  0.39665058957E+03 -0.23075028173E+03  0.46887237850E+03  0.88398451179E+02 0.  0.
    5000000    2    1    2    0    0 -0.38074117607E+02 -0.39665058957E+03 -0.49180547980E+03  0.87224263084E+03  0.60012769346E+03 0.  0.
         23    2    4    4    0    0 -0.20170939030E+03 -0.31225806986E+03 -0.53774639082E+03  0.66184688569E+03  0.10333604852E+03 0.  0.
         23    2    4    4    0    0  0.16363527269E+03 -0.84392519705E+02  0.45940911024E+02  0.21039574515E+03  0.90869149989E+02 0.  0.
          4    1    3    3  502    0  0.19119717757E+02  0.17937292629E+03 -0.54457588842E+02  0.18842993201E+03  0.00000000000E+00 0. -1.
         -4    1    3    3    0  502  0.18954399851E+02  0.21727766327E+03 -0.17629269289E+03  0.28044244649E+03  0.00000000000E+00 0.  1.
         13    1    5    5    0    0 -0.91659267827E+02 -0.14223465332E+03 -0.15820409811E+03  0.23164769509E+03  0.00000000000E+00 0.  1.
        -13    1    5    5    0    0 -0.11005012248E+03 -0.17002341654E+03 -0.37954229272E+03  0.43019919060E+03  0.00000000000E+00 0. -1.
          2    1    6    6  503    0  0.83926466431E+02 -0.49916523874E+02 -0.22042645297E+02  0.10010589061E+03  0.00000000000E+00 0. -1.
         -2    1    6    6    0  503  0.79708806264E+02 -0.34475995831E+02  0.67983556321E+02  0.11028985454E+03  0.00000000000E+00 0.  1.
<mgrwt>
<rscale>  0 0.47736387E+03</rscale>
<asrwt>0</asrwt>
<pdfrwt beam="1">  1        1 0.47581482E-01 0.47736387E+03</pdfrwt>
<pdfrwt beam="2">  1       -1 0.15874390E+00 0.47736387E+03</pdfrwt>
<totfact> 0.26619004E+01</totfact>
</mgrwt>
</event>
<event>
12    1  0.1335216E-007  0.7139815E+03  0.7818608E-02  0.9693616E-01
         -2   -1    0    0    0  501 -0.00000000000E+00  0.00000000000E+00  0.37873646063E+03  0.37873646063E+03  0.00000000000E+00 0.  1.
          2   -1    0    0  501    0  0.00000000000E+00 -0.00000000000E+00 -0.14039952884E+04  0.14039952884E+04  0.00000000000E+00 0. -1.
         23    2    1    2    0    0 -0.50024855814E+03  0.32923319651E+03 -0.35280780457E+03  0.70071909832E+03  0.88830119752E+02 0.  0.
    5000000    2    1    2    0    0  0.50024855814E+03 -0.32923319651E+03 -0.67245102325E+03  0.10820126508E+04  0.59993156287E+03 0.  0.
         23    2    4    4    0    0  0.41725992254E+01  0.12719797123E+03 -0.71427851412E+02  0.17418761326E+03  0.95092860875E+02 0.  0.
         23    2    4    4    0    0  0.49607595891E+03 -0.45643116773E+03 -0.60102317184E+03  0.90782503749E+03  0.92177425259E+02 0.  0.
          1    1    3    3  502    0 -0.17086540815E+03  0.13319949950E+03 -0.17344236115E+03  0.27752359721E+03  0.00000000000E+00 0. -1.
         -1    1    3    3    0  502 -0.32938314999E+03  0.19603369701E+03 -0.17936544342E+03  0.42319550110E+03  0.00000000000E+00 0.  1.
         11    1    5    5    0    0  0.35304651053E+02  0.17983155787E+02  0.74718254907E+00  0.39627901279E+02  0.00000000000E+00 0. -1.
        -11    1    5    5    0    0 -0.31132051828E+02  0.10921481544E+03 -0.72175033961E+02  0.13455971199E+03  0.00000000000E+00 0.  1.
          3    1    6    6  503    0  0.32974820973E+03 -0.32301319799E+03 -0.46322048172E+03  0.65394542783E+03  0.00000000000E+00 0. -1.
         -3    1    6    6    0  503  0.16632774919E+03 -0.13341796974E+03 -0.13780269011E+03  0.25387960966E+03  0.00000000000E+00 0.  1.
<mgrwt>
<rscale>  0 0.71398150E+03</rscale>
<asrwt>0</asrwt>
<pdfrwt beam="1">  1        2 0.21599927E+00 0.71398150E+03</pdfrwt>
<pdfrwt beam="2">  1       -2 0.58267149E-01 0.71398150E+03</pdfrwt>
<totfact> 0.40650901E+01</totfact>
</mgrwt>
</event>
<event>
12    1  0.1335216E-007  0.1461362E+04  0.7818608E-02  0.8910561E-01
          2   -1    0    0  501    0  0.00000000000E+00  0.00000000000E+00  0.25899462532E+04  0.25899462532E+04  0.00000000000E+00 0. -1.
         -2   -1    0    0    0  501 -0.00000000000E+00 -0.00000000000E+00 -0.19924708044E+04  0.19924708044E+04  0.00000000000E+00 0.  1.
         23    2    1    2    0    0 -0.13973729342E+04  0.28308165937E+03  0.20244333279E+04  0.24777683267E+04  0.90660017623E+02 0.  0.
    5000000    2    1    2    0    0  0.13973729342E+04 -0.28308165937E+03 -0.14269578791E+04  0.21046487309E+04  0.60045911506E+03 0.  0.
         23    2    4    4    0    0  0.79573932590E+03 -0.37716759860E+03 -0.10840581331E+04  0.13996450331E+04  0.91475189781E+02 0.  0.
         23    2    4    4    0    0  0.60163360825E+03  0.94085939224E+02 -0.34289974595E+03  0.70500369785E+03  0.92923708850E+02 0.  0.
          4    1    3    3  502    0 -0.47581856220E+03  0.10833618837E+03  0.76579271516E+03  0.90806305752E+03  0.00000000000E+00 0. -1.
         -4    1    3    3    0  502 -0.92155437195E+03  0.17474547101E+03  0.12586406128E+04  0.15697052692E+04  0.00000000000E+00 0.  1.
         11    1    5    5    0    0  0.19813473854E+03 -0.13761814721E+03 -0.31105341996E+03  0.39363734468E+03  0.00000000000E+00 0. -1.
        -11    1    5    5    0    0  0.59760458736E+03 -0.23954945138E+03 -0.77300471317E+03  0.10060076884E+04  0.00000000000E+00 0.  1.
          1    1    6    6  503    0  0.30966456982E+03  0.77664029879E+02 -0.22044775375E+03  0.38797043633E+03  0.00000000000E+00 0. -1.
         -1    1    6    6    0  503  0.29196903843E+03  0.16421909345E+02 -0.12245199221E+03  0.31703326151E+03  0.00000000000E+00 0.  1.
<mgrwt>
<rscale>  0 0.14613623E+04</rscale>
<asrwt>0</asrwt>
<pdfrwt beam="1">  1        2 0.39845327E+00 0.14613623E+04</pdfrwt>
<pdfrwt beam="2">  1       -2 0.30653397E+00 0.14613623E+04</pdfrwt>
<totfact> 0.84386004E-02</totfact>
</mgrwt>
</event>
<event>
12    1  0.1335216E-007  0.6938080E+03  0.7818608E-02  0.9727880E-01
          1   -1    0    0  501    0  0.00000000000E+00  0.00000000000E+00  0.67408970895E+03  0.67408970895E+03  0.00000000000E+00 0. -1.
         -1   -1    0    0    0  501 -0.00000000000E+00 -0.00000000000E+00 -0.73122567341E+03  0.73122567341E+03  0.00000000000E+00 0.  1.
         23    2    1    2    0    0  0.27926927734E+03  0.49430953628E+03 -0.64942960165E+02  0.57901897865E+03  0.93338859172E+02 0.  0.
    5000000    2    1    2    0    0 -0.27926927734E+03 -0.49430953628E+03  0.78069957040E+01  0.82629640371E+03  0.60030954572E+03 0.  0.
         23    2    4    4    0    0 -0.14126502552E+03 -0.60314018358E+03  0.37720580468E+02  0.62732568420E+03  0.91546618649E+02 0.  0.
         23    2    4    4    0    0 -0.13800425182E+03  0.10883064730E+03 -0.29913584764E+02  0.19897071951E+03  0.88347277008E+02 0.  0.
          2    1    3    3  502    0  0.46436471899E+02  0.16332705592E+03 -0.33947422766E+02  0.17316033215E+03  0.00000000000E+00 0. -1.
         -2    1    3    3    0  502  0.23283280544E+03  0.33098248036E+03 -0.30995537399E+02  0.40585864649E+03  0.00000000000E+00 0.  1.
         11    1    5    5    0    0 -0.29684819196E+02 -0.11310791064E+03  0.43361428097E+02  0.12471888945E+03  0.00000000000E+00 0.  1.
        -11    1    5    5    0    0 -0.11158020632E+03 -0.49003227294E+03 -0.56408476292E+01  0.50260679475E+03  0.00000000000E+00 0. -1.
          1    1    6    6  503    0 -0.13108424904E+03  0.59744127705E+02 -0.66471988703E+01  0.14421035467E+03  0.00000000000E+00 0. -1.
         -1    1    6    6    0  503 -0.69200027847E+01  0.49086519596E+02 -0.23266385893E+02  0.54760364837E+02  0.00000000000E+00 0.  1.
<mgrwt>
<rscale>  0 0.69380797E+03</rscale>
<asrwt>0</asrwt>
<pdfrwt beam="1">  1        1 0.10370611E+00 0.69380797E+03</pdfrwt>
<pdfrwt beam="2">  1       -1 0.11249626E+00 0.69380797E+03</pdfrwt>
<totfact> 0.21560412E+01</totfact>
</mgrwt>
</event>
<event>
12    1  0.1335216E-007  0.6095509E+03  0.7818608E-02  0.9885787E-01
          2   -1    0    0  501    0  0.00000000000E+00  0.00000000000E+00  0.23582071432E+04  0.23582071432E+04  0.00000000000E+00 0. -1.
         -2   -1    0    0    0  501 -0.00000000000E+00 -0.00000000000E+00 -0.16395660574E+03  0.16395660574E+03  0.00000000000E+00 0.  1.
         23    2    1    2    0    0 -0.36911279124E+03 -0.29295946136E+03  0.88971990361E+03  0.10109181563E+04  0.91019301206E+02 0.  0.
    5000000    2    1    2    0    0  0.36911279124E+03  0.29295946136E+03  0.13045306338E+04  0.15112455926E+04  0.59999463992E+03 0.  0.
         23    2    4    4    0    0  0.44917758361E+03  0.15943635853E+02  0.84836670155E+03  0.96430697691E+03  0.90261754151E+02 0.  0.
         23    2    4    4    0    0 -0.80064792365E+02  0.27701582550E+03  0.45616393227E+03  0.54693861570E+03  0.88927935362E+02 0.  0.
          3    1    3    3  502    0 -0.12008512556E+03 -0.11918343940E+03  0.40519081847E+03  0.43909535295E+03  0.00000000000E+00 0. -1.
         -3    1    3    3    0  502 -0.24902766568E+03 -0.17377602196E+03  0.48452908515E+03  0.57182280336E+03  0.00000000000E+00 0.  1.
         11    1    5    5    0    0  0.20377818555E+03 -0.22113462267E+02  0.45609706715E+03  0.50003908726E+03  0.00000000000E+00 0. -1.
        -11    1    5    5    0    0  0.24539939806E+03  0.38057098120E+02  0.39226963440E+03  0.46426788965E+03  0.00000000000E+00 0.  1.
          3    1    6    6  503    0 -0.83964594023E+02  0.27654519548E+03  0.45877682179E+03  0.54222086865E+03  0.00000000000E+00 0. -1.
         -3    1    6    6    0  503  0.38998016581E+01  0.47063002327E+00 -0.26128895187E+01  0.47177470501E+01  0.00000000000E+00 0.  1.
<mgrwt>
<rscale>  0 0.60955087E+03</rscale>
<asrwt>0</asrwt>
<pdfrwt beam="1">  1        2 0.36280107E+00 0.60955087E+03</pdfrwt>
<pdfrwt beam="2">  1       -2 0.25224095E-01 0.60955087E+03</pdfrwt>
<totfact> 0.62603260E+01</totfact>
</mgrwt>
</event>
<event>
12    1  0.1335216E-007  0.1037797E+04  0.7818608E-02  0.9268034E-01
         -2   -1    0    0    0  501 -0.00000000000E+00  0.00000000000E+00  0.31244594044E+03  0.31244594044E+03  0.00000000000E+00 0.  1.
          2   -1    0    0  501    0  0.00000000000E+00 -0.00000000000E+00 -0.36967212055E+04  0.36967212055E+04  0.00000000000E+00 0. -1.
         23    2    1    2    0    0  0.87120120484E+03 -0.44008344828E+03 -0.18572752194E+04  0.21001815859E+04  0.92878806663E+02 0.  0.
    5000000    2    1    2    0    0 -0.87120120484E+03  0.44008344828E+03 -0.15270000457E+04  0.19089855600E+04  0.59985977352E+03 0.  0.
         23    2    4    4    0    0 -0.79906309305E+02 -0.10521922356E+03 -0.10647729458E+03  0.19154565665E+03  0.88860683371E+02 0.  0.
         23    2    4    4    0    0 -0.79129489554E+03  0.54530267184E+03 -0.14205227511E+04  0.17174399033E+04  0.90621848726E+02 0.  0.
          1    1    3    3  502    0  0.46035127870E+03 -0.20251510961E+03 -0.87421330100E+03  0.10085556827E+04  0.00000000000E+00 0. -1.
         -1    1    3    3    0  502  0.41084992614E+03 -0.23756833867E+03 -0.98306191836E+03  0.10916259033E+04  0.00000000000E+00 0.  1.
         13    1    5    5    0    0 -0.18155386861E+02 -0.51951118550E+02  0.29044510313E+01  0.55108734575E+02  0.00000000000E+00 0.  1.
        -13    1    5    5    0    0 -0.61750922444E+02 -0.53268105012E+02 -0.10938174561E+03  0.13643692208E+03  0.00000000000E+00 0. -1.
          3    1    6    6  503    0 -0.56840021284E+03  0.37453255362E+03 -0.10723003825E+04  0.12701108400E+04  0.00000000000E+00 0. -1.
         -3    1    6    6    0  503 -0.22289468270E+03  0.17077011822E+03 -0.34822236860E+03  0.44732906327E+03  0.00000000000E+00 0.  1.
<mgrwt>
<rscale>  0 0.10377974E+04</rscale>
<asrwt>0</asrwt>
<pdfrwt beam="1">  1        2 0.56872633E+00 0.10377974E+04</pdfrwt>
<pdfrwt beam="2">  1       -2 0.48068607E-01 0.10377974E+04</pdfrwt>
<totfact> 0.24962103E+00</totfact>
</mgrwt>
</event>
<event>
12    1  0.1335216E-007  0.7660658E+03  0.7818608E-02  0.9610477E-01
         -1   -1    0    0    0  501 -0.00000000000E+00  0.00000000000E+00  0.90926920282E+03  0.90926920282E+03  0.00000000000E+00 0.  1.
          1   -1    0    0  501    0  0.00000000000E+00 -0.00000000000E+00 -0.80312676243E+03  0.80312676243E+03  0.00000000000E+00 0. -1.
         23    2    1    2    0    0  0.27020828374E+02 -0.65739486706E+03 -0.30599678894E+03  0.73107090198E+03  0.89064541044E+02 0.  0.
    5000000    2    1    2    0    0 -0.27020828374E+02  0.65739486706E+03  0.41213922932E+03  0.98132506327E+03  0.60020163200E+03 0.  0.
         23    2    4    4    0    0  0.25277907910E+03  0.18486050317E+03  0.98406314909E+02  0.34158374741E+03  0.94472139902E+02 0.  0.
         23    2    4    4    0    0 -0.27979990747E+03  0.47253436389E+03  0.31373291441E+03  0.63974131586E+03  0.96249136921E+02 0.  0.
          2    1    3    3  502    0  0.59151539579E+02 -0.48309759921E+03 -0.22242886524E+03  0.53512315881E+03  0.00000000000E+00 0. -1.
         -2    1    3    3    0  502 -0.32130711204E+02 -0.17429726785E+03 -0.83567923695E+02  0.19594774317E+03  0.00000000000E+00 0.  1.
         13    1    5    5    0    0  0.20818438770E+03  0.15507840618E+03  0.11711178232E+03  0.28478978371E+03  0.00000000000E+00 0.  1.
        -13    1    5    5    0    0  0.44594691397E+02  0.29782096991E+02 -0.18705467410E+02  0.56793963703E+02  0.00000000000E+00 0. -1.
          1    1    6    6  503    0 -0.17275865305E+03  0.36195392522E+03  0.19864573031E+03  0.44756711492E+03  0.00000000000E+00 0. -1.
         -1    1    6    6    0  503 -0.10704125442E+03  0.11058043867E+03  0.11508718410E+03  0.19217420094E+03  0.00000000000E+00 0.  1.
<mgrwt>
<rscale>  0 0.76606580E+03</rscale>
<asrwt>0</asrwt>
<pdfrwt beam="1">  1        1 0.12355796E+00 0.76606580E+03</pdfrwt>
<pdfrwt beam="2">  1       -1 0.13988757E+00 0.76606580E+03</pdfrwt>
<totfact> 0.94989416E+00</totfact>
</mgrwt>
</event>
<event>
12    1  0.1335216E-007  0.5425357E+03  0.7818608E-02  0.1003237E+00
          2   -1    0    0  501    0  0.00000000000E+00  0.00000000000E+00  0.20111190187E+04  0.20111190187E+04  0.00000000000E+00 0.  1.
         -2   -1    0    0    0  501 -0.00000000000E+00 -0.00000000000E+00 -0.49907273140E+03  0.49907273140E+03  0.00000000000E+00 0. -1.
         23    2    1    2    0    0 -0.42358211347E+03 -0.33607399442E+02 -0.31757943576E+03  0.53833661855E+03  0.91642526713E+02 0.  0.
    5000000    2    1    2    0    0  0.42358211347E+03  0.33607399442E+02  0.18296257231E+04  0.19718551316E+04  0.60010924769E+03 0.  0.
         23    2    4    4    0    0  0.85235748342E+02 -0.20642128325E+03  0.11145970420E+04  0.11403666041E+04  0.90744403990E+02 0.  0.
         23    2    4    4    0    0  0.33834636513E+03  0.24002868269E+03  0.71502868111E+03  0.83148852744E+03  0.89527231283E+02 0.  0.
          3    1    3    3  502    0 -0.14253622925E+03 -0.43546004117E+02 -0.74511993611E+02  0.16662793378E+03  0.00000000000E+00 0. -1.
         -3    1    3    3    0  502 -0.28104588422E+03  0.99386046749E+01 -0.24306744215E+03  0.37170868477E+03  0.00000000000E+00 0.  1.
         13    1    5    5    0    0  0.92510143015E+01 -0.96194135332E+02  0.63973449172E+03  0.64699235917E+03  0.00000000000E+00 0.  1.
        -13    1    5    5    0    0  0.75984734041E+02 -0.11022714792E+03  0.47486255027E+03  0.49337424496E+03  0.00000000000E+00 0. -1.
          2    1    6    6  503    0  0.26176050386E+03  0.22726121751E+03  0.59097295535E+03  0.68513885915E+03  0.00000000000E+00 0.  1.
         -2    1    6    6    0  503  0.76585861274E+02  0.12767465181E+02  0.12405572576E+03  0.14634966829E+03  0.00000000000E+00 0. -1.
<mgrwt>
<rscale>  0 0.54253571E+03</rscale>
<asrwt>0</asrwt>
<pdfrwt beam="1">  1        2 0.30940292E+00 0.54253571E+03</pdfrwt>
<pdfrwt beam="2">  1       -2 0.76780421E-01 0.54253571E+03</pdfrwt>
<totfact> 0.10728697E+01</totfact>
</mgrwt>
</event>
<event>
12    1  0.1335216E-007  0.1205375E+04  0.7818608E-02  0.9108164E-01
          2   -1    0    0  501    0  0.00000000000E+00  0.00000000000E+00  0.39816169190E+04  0.39816169190E+04  0.00000000000E+00 0.  1.
         -2   -1    0    0    0  501 -0.00000000000E+00 -0.00000000000E+00 -0.48652351119E+03  0.48652351119E+03  0.00000000000E+00 0. -1.
         23    2    1    2    0    0 -0.93603078754E+02  0.11879532603E+04  0.73633482618E+03  0.14036885988E+04  0.90322871765E+02 0.  0.
    5000000    2    1    2    0    0  0.93603078754E+02 -0.11879532603E+04  0.27587585816E+04  0.30644518314E+04  0.60010134970E+03 0.  0.
         23    2    4    4    0    0  0.14059881226E+03 -0.46595870918E+03  0.17544432451E+04  0.18229986687E+04  0.91474044632E+02 0.  0.
         23    2    4    4    0    0 -0.46995733508E+02 -0.72199455115E+03  0.10043153365E+04  0.12414531627E+04  0.95246675580E+02 0.  0.
          3    1    3    3  502    0 -0.10796004168E+03  0.95928182714E+03  0.57743678932E+03  0.11248600980E+04  0.00000000000E+00 0. -1.
         -3    1    3    3    0  502  0.14356962923E+02  0.22867143319E+03  0.15889803685E+03  0.27882850080E+03  0.00000000000E+00 0.  1.
         13    1    5    5    0    0  0.10285033497E+03 -0.37531451313E+03  0.15155274756E+04  0.15646925271E+04  0.00000000000E+00 0. -1.
        -13    1    5    5    0    0  0.37748477287E+02 -0.90644196043E+02  0.23891576956E+03  0.25830614154E+03  0.00000000000E+00 0.  1.
          1    1    6    6  503    0  0.25752792465E+02 -0.25859484617E+03  0.33025977946E+03  0.42024519356E+03  0.00000000000E+00 0. -1.
         -1    1    6    6    0  503 -0.72748525973E+02 -0.46339970499E+03  0.67405555704E+03  0.82120796915E+03  0.00000000000E+00 0.  1.
<mgrwt>
<rscale>  0 0.12053754E+04</rscale>
<asrwt>0</asrwt>
<pdfrwt beam="1">  1        2 0.61255643E+00 0.12053754E+04</pdfrwt>
<pdfrwt beam="2">  1       -2 0.74849774E-01 0.12053754E+04</pdfrwt>
<totfact> 0.57692678E-01</totfact>
</mgrwt>
</event>
<event>
12    1  0.1335216E-007  0.1430069E+04  0.7818608E-02  0.8932336E-01
         -2   -1    0    0    0  501 -0.00000000000E+00  0.00000000000E+00  0.82805399373E+03  0.82805399373E+03  0.00000000000E+00 0.  1.
          2   -1    0    0  501    0  0.00000000000E+00 -0.00000000000E+00 -0.42023079964E+04  0.42023079964E+04  0.00000000000E+00 0. -1.
         23    2    1    2    0    0 -0.36262168900E+02  0.14225551946E+04 -0.12378674874E+03  0.14317022122E+04  0.97313095801E+02 0.  0.
    5000000    2    1    2    0    0  0.36262168900E+02 -0.14225551946E+04 -0.32504672539E+04  0.35986597779E+04  0.59986381932E+03 0.  0.
         23    2    4    4    0    0  0.89107225341E+02 -0.10049990928E+04 -0.16064965826E+04  0.18991965252E+04  0.90293396228E+02 0.  0.
         23    2    4    4    0    0 -0.52845056441E+02 -0.41755610184E+03 -0.16439706713E+04  0.16994632527E+04  0.91597384846E+02 0.  0.
          3    1    3    3  502    0 -0.22370321116E+02  0.94563138183E+02 -0.22743366107E+02  0.99799193743E+02  0.00000000000E+00 0. -1.
         -3    1    3    3    0  502 -0.13891847784E+02  0.13279920564E+04 -0.10104338263E+03  0.13319030185E+04  0.00000000000E+00 0.  1.
         13    1    5    5    0    0  0.16739542139E+01 -0.48653538380E+03 -0.80616894301E+03  0.94160917928E+03  0.00000000000E+00 0.  1.
        -13    1    5    5    0    0  0.87433271127E+02 -0.51846370898E+03 -0.80032763957E+03  0.95758734594E+03  0.00000000000E+00 0. -1.
          2    1    6    6  503    0 -0.36641757918E+02 -0.14560350115E+03 -0.75088122419E+03  0.76574513437E+03  0.00000000000E+00 0. -1.
         -2    1    6    6    0  503 -0.16203298523E+02 -0.27195260069E+03 -0.89308944715E+03  0.93371811834E+03  0.00000000000E+00 0.  1.
<mgrwt>
<rscale>  0 0.14300693E+04</rscale>
<asrwt>0</asrwt>
<pdfrwt beam="1">  1        2 0.64650891E+00 0.14300693E+04</pdfrwt>
<pdfrwt beam="2">  1       -2 0.12739292E+00 0.14300693E+04</pdfrwt>
<totfact> 0.10354320E-01</totfact>
</mgrwt>
</event>
<event>
12    1  0.1335216E-007  0.4210620E+03  0.7818608E-02  0.1036721E+00
         -2   -1    0    0    0  501 -0.00000000000E+00  0.00000000000E+00  0.33429827834E+03  0.33429827834E+03  0.00000000000E+00 0.  1.
          2   -1    0    0  501    0  0.00000000000E+00 -0.00000000000E+00 -0.15808213282E+04  0.15808213282E+04  0.00000000000E+00 0. -1.
         23    2    1    2    0    0  0.19951774115E+03 -0.94882077830E+02  0.21355174065E+03  0.32118985164E+03  0.93534149557E+02 0.  0.
    5000000    2    1    2    0    0 -0.19951774115E+03  0.94882077830E+02 -0.14600747905E+04  0.15939297549E+04  0.59998644314E+03 0.  0.
         23    2    4    4    0    0  0.50839898853E+02  0.27697256373E+03 -0.50135591438E+03  0.58229342762E+03  0.91702707664E+02 0.  0.
         23    2    4    4    0    0 -0.25035764000E+03 -0.18209048590E+03 -0.95871887616E+03  0.10116363273E+04  0.91816568546E+02 0.  0.
          3    1    3    3  502    0  0.71642040161E+02  0.82525433690E+01  0.91643839825E+02  0.11661594989E+03  0.00000000000E+00 0.  1.
         -3    1    3    3    0  502  0.12787570099E+03 -0.10313462120E+03  0.12190790082E+03  0.20457390175E+03  0.00000000000E+00 0. -1.
         13    1    5    5    0    0  0.76622213037E+02  0.17634047602E+03 -0.32388251073E+03  0.37665210443E+03  0.00000000000E+00 0.  1.
        -13    1    5    5    0    0 -0.25782314183E+02  0.10063208771E+03 -0.17747340365E+03  0.20564132319E+03  0.00000000000E+00 0. -1.
          3    1    6    6  503    0 -0.12597500507E+03 -0.92131340004E+02 -0.62682855822E+03  0.64596588696E+03  0.00000000000E+00 0. -1.
         -3    1    6    6    0  503 -0.12438263493E+03 -0.89959145895E+02 -0.33189031793E+03  0.36567044034E+03  0.00000000000E+00 0.  1.
<mgrwt>
<rscale>  0 0.42106197E+03</rscale>
<asrwt>0</asrwt>
<pdfrwt beam="1">  1        2 0.24320328E+00 0.42106197E+03</pdfrwt>
<pdfrwt beam="2">  1       -2 0.51430505E-01 0.42106197E+03</pdfrwt>
<totfact> 0.43859686E+01</totfact>
</mgrwt>
</event>
<event>
12    1  0.1335216E-007  0.6762458E+03  0.7818608E-02  0.9758740E-01
          1   -1    0    0  501    0  0.00000000000E+00  0.00000000000E+00  0.17421478846E+04  0.17421478846E+04  0.00000000000E+00 0. -1.
         -1   -1    0    0    0  501 -0.00000000000E+00 -0.00000000000E+00 -0.47869972199E+03  0.47869972199E+03  0.00000000000E+00 0.  1.
         23    2    1    2    0    0  0.57406829770E+03 -0.95770947931E+02 -0.12303723892E+03  0.60175196221E+03  0.90778725291E+02 0.  0.
    5000000    2    1    2    0    0 -0.57406829770E+03  0.95770947931E+02  0.13864854015E+04  0.16190956444E+04  0.60033528310E+03 0.  0.
         23    2    4    4    0    0 -0.96868903877E+02  0.23208127517E+03  0.80910558957E+03  0.85239007368E+03  0.93121854645E+02 0.  0.
         23    2    4    4    0    0 -0.47719939382E+03 -0.13631032724E+03  0.57737981193E+03  0.76670557068E+03  0.90389258830E+02 0.  0.
          1    1    3    3  502    0  0.43173006015E+03 -0.32744820048E+02 -0.80661893590E+02  0.44041958307E+03  0.00000000000E+00 0. -1.
         -1    1    3    3    0  502  0.14233823755E+03 -0.63026127883E+02 -0.42375345326E+02  0.16133237913E+03  0.00000000000E+00 0.  1.
         11    1    5    5    0    0  0.16622820295E+02  0.48818299606E+02  0.18785306635E+03  0.19480328300E+03  0.00000000000E+00 0. -1.
        -11    1    5    5    0    0 -0.11349172417E+03  0.18326297557E+03  0.62125252322E+03  0.65758679068E+03  0.00000000000E+00 0.  1.
          3    1    6    6  503    0 -0.15864246874E+03 -0.55576523157E+02  0.13486372737E+03  0.21550964659E+03  0.00000000000E+00 0. -1.
         -3    1    6    6    0  503 -0.31855692509E+03 -0.80733804086E+02  0.44251608455E+03  0.55119592409E+03  0.00000000000E+00 0.  1.
<mgrwt>
<rscale>  0 0.67624578E+03</rscale>
<asrwt>0</asrwt>
<pdfrwt beam="1">  1        1 0.26802275E+00 0.67624578E+03</pdfrwt>
<pdfrwt beam="2">  1       -1 0.73646112E-01 0.67624578E+03</pdfrwt>
<totfact> 0.87456064E+00</totfact>
</mgrwt>
</event>
<event>
12    1  0.1335216E-007  0.1008178E+04  0.7818608E-02  0.9299620E-01
          1   -1    0    0  501    0  0.00000000000E+00  0.00000000000E+00  0.16582654193E+04  0.16582654193E+04  0.00000000000E+00 0. -1.
         -1   -1    0    0    0  501 -0.00000000000E+00 -0.00000000000E+00 -0.89150184427E+03  0.89150184427E+03  0.00000000000E+00 0.  1.
         23    2    1    2    0    0  0.92420203118E+03 -0.30396381207E+03 -0.26230328391E+03  0.10117688152E+04  0.91267349488E+02 0.  0.
    5000000    2    1    2    0    0 -0.92420203118E+03  0.30396381207E+03  0.10290668589E+04  0.15379984484E+04  0.59993102406E+03 0.  0.
         23    2    4    4    0    0 -0.48213137405E+03 -0.25626897857E+02  0.18377612035E+03  0.52454445796E+03  0.90916589385E+02 0.  0.
         23    2    4    4    0    0 -0.44207065713E+03  0.32959070993E+03  0.84529073859E+03  0.10134539905E+04  0.92282479578E+02 0.  0.
          1    1    3    3  502    0  0.82788908101E+03 -0.25794621504E+03 -0.25892173026E+03  0.90497350387E+03  0.00000000000E+00 0. -1.
         -1    1    3    3    0  502  0.96312950176E+02 -0.46017597036E+02 -0.33815536552E+01  0.10679531129E+03  0.00000000000E+00 0.  1.
         11    1    5    5    0    0 -0.38348559538E+03  0.16389432074E+02  0.13681365623E+03  0.40748962181E+03  0.00000000000E+00 0.  1.
        -11    1    5    5    0    0 -0.98645778665E+02 -0.42016329931E+02  0.46962464118E+02  0.11705483615E+03  0.00000000000E+00 0. -1.
          3    1    6    6  503    0 -0.28916655310E+03  0.21645186300E+03  0.62976073571E+03  0.72599400043E+03  0.00000000000E+00 0. -1.
         -3    1    6    6    0  503 -0.15290410404E+03  0.11313884694E+03  0.21553000288E+03  0.28745999002E+03  0.00000000000E+00 0.  1.
<mgrwt>
<rscale>  0 0.10081782E+04</rscale>
<asrwt>0</asrwt>
<pdfrwt beam="1">  1        1 0.25511776E+00 0.10081782E+04</pdfrwt>
<pdfrwt beam="2">  1       -1 0.13715413E+00 0.10081782E+04</pdfrwt>
<totfact> 0.22637451E+00</totfact>
</mgrwt>
</event>
<event>
12    1  0.1335216E-007  0.5862753E+03  0.7818608E-02  0.9934297E-01
         -1   -1    0    0    0  501 -0.00000000000E+00  0.00000000000E+00  0.17268620217E+03  0.17268620217E+03  0.00000000000E+00 0.  1.
          1   -1    0    0  501    0  0.00000000000E+00 -0.00000000000E+00 -0.22099547439E+04  0.22099547439E+04  0.00000000000E+00 0. -1.
         23    2    1    2    0    0  0.30264199245E+03 -0.32728360361E+03 -0.10535655644E+04  0.11471743860E+04  0.85451393246E+02 0.  0.
    5000000    2    1    2    0    0 -0.30264199245E+03  0.32728360361E+03 -0.98370297736E+03  0.12354665601E+04  0.59999945057E+03 0.  0.
         23    2    4    4    0    0 -0.36684001757E+03 -0.13805516130E+02 -0.39816779648E+03  0.54878027551E+03  0.88656674151E+02 0.  0.
         23    2    4    4    0    0  0.64198025123E+02  0.34108911974E+03 -0.58553518088E+03  0.68668628459E+03  0.90683137125E+02 0.  0.
          4    1    3    3  502    0  0.22150861695E+03 -0.24989535657E+03 -0.68728212265E+03  0.76411417519E+03  0.00000000000E+00 0. -1.
         -4    1    3    3    0  502  0.81133375496E+02 -0.77388247044E+02 -0.36628344171E+03  0.38306021076E+03  0.00000000000E+00 0.  1.
         13    1    5    5    0    0 -0.18457979104E+03  0.36303641200E+02 -0.18428967545E+03  0.26334452358E+03  0.00000000000E+00 0.  1.
        -13    1    5    5    0    0 -0.18226022653E+03 -0.50109157330E+02 -0.21387812103E+03  0.28543575193E+03  0.00000000000E+00 0. -1.
          1    1    6    6  503    0  0.43169632382E+02  0.12505225714E+03 -0.14961573010E+03  0.19971617578E+03  0.00000000000E+00 0. -1.
         -1    1    6    6    0  503  0.21028392741E+02  0.21603686261E+03 -0.43591945077E+03  0.48697010880E+03  0.00000000000E+00 0.  1.
<mgrwt>
<rscale>  0 0.58627534E+03</rscale>
<asrwt>0</asrwt>
<pdfrwt beam="1">  1        1 0.33999303E+00 0.58627534E+03</pdfrwt>
<pdfrwt beam="2">  1       -1 0.26567109E-01 0.58627534E+03</pdfrwt>
<totfact> 0.28862492E+01</totfact>
</mgrwt>
</event>
<event>
12    1  0.1335216E-007  0.5503352E+03  0.7818608E-02  0.1001416E+00
         -1   -1    0    0    0  501 -0.00000000000E+00  0.00000000000E+00  0.45228988410E+03  0.45228988410E+03  0.00000000000E+00 0.  1.
          1   -1    0    0  501    0  0.00000000000E+00 -0.00000000000E+00 -0.87265092598E+03  0.87265092598E+03  0.00000000000E+00 0. -1.
         23    2    1    2    0    0 -0.45586686990E+03 -0.13502052327E+03 -0.22448124128E+03  0.53441321412E+03  0.95710558278E+02 0.  0.
    5000000    2    1    2    0    0  0.45586686990E+03  0.13502052327E+03 -0.19587980059E+03  0.79052759596E+03  0.60043304283E+03 0.  0.
         23    2    4    4    0    0  0.35531468090E+03  0.26630645956E+03  0.75022111314E+02  0.46009779437E+03  0.94308060764E+02 0.  0.
         23    2    4    4    0    0  0.10055218899E+03 -0.13128593629E+03 -0.27090191191E+03  0.33042980159E+03  0.91919900607E+02 0.  0.
          3    1    3    3  502    0 -0.43248673528E+03 -0.14601687711E+03 -0.19847071539E+03  0.49775127269E+03  0.00000000000E+00 0. -1.
         -3    1    3    3    0  502 -0.23380134617E+02  0.10996353841E+02 -0.26010525893E+02  0.36661941435E+02  0.00000000000E+00 0.  1.
         13    1    5    5    0    0  0.17211497232E+03  0.18150270701E+03  0.20406158345E+02  0.25096455457E+03  0.00000000000E+00 0. -1.
        -13    1    5    5    0    0  0.18319970858E+03  0.84803752549E+02  0.54615952968E+02  0.20913323980E+03  0.00000000000E+00 0.  1.
          1    1    6    6  503    0  0.52105534027E+02 -0.53252568154E+02 -0.20290214714E+03  0.21614833797E+03  0.00000000000E+00 0. -1.
         -1    1    6    6    0  503  0.48446654968E+02 -0.78033368141E+02 -0.67999764764E+02  0.11428146363E+03  0.00000000000E+00 0.  1.
<mgrwt>
<rscale>  0 0.55033515E+03</rscale>
<asrwt>0</asrwt>
<pdfrwt beam="1">  1        1 0.13425399E+00 0.55033515E+03</pdfrwt>
<pdfrwt beam="2">  1       -1 0.69583060E-01 0.55033515E+03</pdfrwt>
<totfact> 0.41980214E+01</totfact>
</mgrwt>
</event>
<event>
12    1  0.1335216E-007  0.1296142E+04  0.7818608E-02  0.9032630E-01
          1   -1    0    0  501    0  0.00000000000E+00  0.00000000000E+00  0.20937765767E+04  0.20937765767E+04  0.00000000000E+00 0. -1.
         -1   -1    0    0    0  501 -0.00000000000E+00 -0.00000000000E+00 -0.86451271674E+03  0.86451271674E+03  0.00000000000E+00 0.  1.
         23    2    1    2    0    0  0.12750947939E+04  0.45790194588E+02  0.52813955777E+03  0.13836805228E+04  0.87618041778E+02 0.  0.
    5000000    2    1    2    0    0 -0.12750947939E+04 -0.45790194588E+02  0.70112430216E+03  0.15746087706E+04  0.59987833607E+03 0.  0.
         23    2    4    4    0    0 -0.10308226353E+03 -0.79223396261E+02 -0.65653364290E+02  0.17076131026E+03  0.89144608743E+02 0.  0.
         23    2    4    4    0    0 -0.11720125304E+04  0.33433201672E+02  0.76677766645E+03  0.14038474604E+04  0.90047497971E+02 0.  0.
          2    1    3    3  502    0  0.39191374650E+03 -0.25653778385E+02  0.15411536286E+03  0.42190762747E+03  0.00000000000E+00 0. -1.
         -2    1    3    3    0  502  0.88318104741E+03  0.71443972973E+02  0.37402419490E+03  0.96177289531E+03  0.00000000000E+00 0.  1.
         11    1    5    5    0    0 -0.10816383580E+03 -0.69107716246E+02 -0.27908140842E+02  0.13135507659E+03  0.00000000000E+00 0. -1.
        -11    1    5    5    0    0  0.50815722682E+01 -0.10115680015E+02 -0.37745223448E+02  0.39406233670E+02  0.00000000000E+00 0.  1.
          4    1    6    6  503    0 -0.34155840120E+03  0.34878380002E+02  0.18623155364E+03  0.39059036649E+03  0.00000000000E+00 0. -1.
         -4    1    6    6    0  503 -0.83045412917E+03 -0.14451783297E+01  0.58054611281E+03  0.10132570939E+04  0.00000000000E+00 0.  1.
<mgrwt>
<rscale>  0 0.12961424E+04</rscale>
<asrwt>0</asrwt>
<pdfrwt beam="1">  1        1 0.32211947E+00 0.12961424E+04</pdfrwt>
<pdfrwt beam="2">  1       -1 0.13300196E+00 0.12961424E+04</pdfrwt>
<totfact> 0.11981833E+00</totfact>
</mgrwt>
</event>
<event>
12    1  0.1335216E-007  0.5500831E+03  0.7818608E-02  0.1001475E+00
         -2   -1    0    0    0  501 -0.00000000000E+00  0.00000000000E+00  0.28872736268E+03  0.28872736268E+03  0.00000000000E+00 0.  1.
          2   -1    0    0  501    0  0.00000000000E+00 -0.00000000000E+00 -0.15457876414E+04  0.15457876414E+04  0.00000000000E+00 0. -1.
         23    2    1    2    0    0 -0.39825268242E+03 -0.17163473502E+03 -0.88888078526E+02  0.45161295126E+03  0.89383924303E+02 0.  0.
    5000000    2    1    2    0    0  0.39825268242E+03  0.17163473502E+03 -0.11681722002E+04  0.13829020528E+04  0.59977338805E+03 0.  0.
         23    2    4    4    0    0  0.46809665389E+03  0.27226593221E+02 -0.10744937746E+04  0.11758090909E+04  0.90190808130E+02 0.  0.
         23    2    4    4    0    0 -0.69843971465E+02  0.14440814180E+03 -0.93678425603E+02  0.20709296190E+03  0.91542097827E+02 0.  0.
          2    1    3    3  502    0 -0.32892329514E+03 -0.10265255059E+03 -0.61142400069E+02  0.34995210146E+03  0.00000000000E+00 0. -1.
         -2    1    3    3    0  502 -0.69329387276E+02 -0.68982184437E+02 -0.27745678457E+02  0.10166084980E+03  0.00000000000E+00 0.  1.
         11    1    5    5    0    0  0.42999328740E+03 -0.90899748039E+00 -0.95965680718E+03  0.10515874862E+04  0.00000000000E+00 0.  1.
        -11    1    5    5    0    0  0.38103366483E+02  0.28135590702E+02 -0.11483696739E+03  0.12422160473E+03  0.00000000000E+00 0. -1.
          2    1    6    6  503    0 -0.91577651285E+01  0.11057896093E+03 -0.78657628988E+02  0.13600953592E+03  0.00000000000E+00 0. -1.
         -2    1    6    6    0  503 -0.60686206336E+02  0.33829180875E+02 -0.15020796615E+02  0.71083425980E+02  0.00000000000E+00 0.  1.
<mgrwt>
<rscale>  0 0.55008309E+03</rscale>
<asrwt>0</asrwt>
<pdfrwt beam="1">  1        2 0.23781349E+00 0.55008309E+03</pdfrwt>
<pdfrwt beam="2">  1       -2 0.44419593E-01 0.55008309E+03</pdfrwt>
<totfact> 0.60160609E+01</totfact>
</mgrwt>
</event>
<event>
12    1  0.1335216E-007  0.3800404E+03  0.7818608E-02  0.1050919E+00
          2   -1    0    0  501    0  0.00000000000E+00  0.00000000000E+00  0.23979244727E+04  0.23979244727E+04  0.00000000000E+00 0. -1.
         -2   -1    0    0    0  501 -0.00000000000E+00 -0.00000000000E+00 -0.81576114566E+02  0.81576114566E+02  0.00000000000E+00 0.  1.
         23    2    1    2    0    0  0.62500417549E+02 -0.21576508419E+03  0.60424655915E+03  0.65148133769E+03  0.94091207625E+02 0.  0.
    5000000    2    1    2    0    0 -0.62500417549E+02  0.21576508419E+03  0.17121017989E+04  0.18280192495E+04  0.59991743849E+03 0.  0.
         23    2    4    4    0    0 -0.14899698733E+02  0.37161609620E+03  0.69673370857E+03  0.79564720546E+03  0.96416237807E+02 0.  0.
         23    2    4    4    0    0 -0.47600718816E+02 -0.15585101200E+03  0.10153680904E+04  0.10323720441E+04  0.90908261991E+02 0.  0.
          1    1    3    3  502    0  0.27665702717E+02 -0.70706112338E+02  0.99560125172E+02  0.12520768328E+03  0.00000000000E+00 0. -1.
         -1    1    3    3    0  502  0.34834714832E+02 -0.14505897186E+03  0.50468643398E+03  0.52627365440E+03  0.00000000000E+00 0.  1.
         13    1    5    5    0    0 -0.41154579442E+01  0.19646805789E+03  0.26745122453E+03  0.33188370293E+03  0.00000000000E+00 0. -1.
        -13    1    5    5    0    0 -0.10784240788E+02  0.17514803830E+03  0.42928248404E+03  0.46376350253E+03  0.00000000000E+00 0.  1.
          4    1    6    6  503    0 -0.34842042343E+02 -0.10982820280E+03  0.43363997314E+03  0.44868678201E+03  0.00000000000E+00 0. -1.
         -4    1    6    6    0  503 -0.12758676474E+02 -0.46022809204E+02  0.58172811723E+03  0.58368526208E+03  0.00000000000E+00 0.  1.
<mgrwt>
<rscale>  0 0.38004039E+03</rscale>
<asrwt>0</asrwt>
<pdfrwt beam="1">  1        2 0.36891140E+00 0.38004039E+03</pdfrwt>
<pdfrwt beam="2">  1       -2 0.12550173E-01 0.38004039E+03</pdfrwt>
<totfact> 0.20500062E+02</totfact>
</mgrwt>
</event>
<event>
12    1  0.1335216E-007  0.1548085E+04  0.7818608E-02  0.8853092E-01
          2   -1    0    0  501    0  0.00000000000E+00  0.00000000000E+00  0.37057526461E+04  0.37057526461E+04  0.00000000000E+00 0.  1.
         -2   -1    0    0    0  501 -0.00000000000E+00 -0.00000000000E+00 -0.68246266690E+03  0.68246266690E+03  0.00000000000E+00 0. -1.
         23    2    1    2    0    0  0.13981785419E+04 -0.59274053927E+03  0.17407196368E+04  0.23118578727E+04  0.91309295952E+02 0.  0.
    5000000    2    1    2    0    0 -0.13981785419E+04  0.59274053927E+03  0.12825703424E+04  0.20763574403E+04  0.60002412846E+03 0.  0.
         23    2    4    4    0    0 -0.72146225300E+03  0.89217549351E+02  0.85629171490E+03  0.11276988509E+04  0.10000821814E+03 0.  0.
         23    2    4    4    0    0 -0.67671628893E+03  0.50352298992E+03  0.42627862750E+03  0.94865858941E+03  0.82215046836E+02 0.  0.
          1    1    3    3  502    0  0.85554803272E+03 -0.32632564480E+03  0.10032704144E+04  0.13583086495E+04  0.00000000000E+00 0. -1.
         -1    1    3    3    0  502  0.54263050921E+03 -0.26641489446E+03  0.73744922232E+03  0.95354922317E+03  0.00000000000E+00 0.  1.
         11    1    5    5    0    0 -0.28358024543E+03  0.68687002278E+02  0.28792504086E+03  0.40992254029E+03  0.00000000000E+00 0. -1.
        -11    1    5    5    0    0 -0.43788200757E+03  0.20530547073E+02  0.56836667404E+03  0.71777631061E+03  0.00000000000E+00 0.  1.
          4    1    6    6  503    0 -0.39255681599E+03  0.33052773038E+03  0.22965121998E+03  0.56221803348E+03  0.00000000000E+00 0.  1.
         -4    1    6    6    0  503 -0.28415947294E+03  0.17299525954E+03  0.19662740751E+03  0.38644055594E+03  0.00000000000E+00 0. -1.
<mgrwt>
<rscale>  0 0.15480847E+04</rscale>
<asrwt>0</asrwt>
<pdfrwt beam="1">  1        2 0.57011578E+00 0.15480847E+04</pdfrwt>
<pdfrwt beam="2">  1       -2 0.10499426E+00 0.15480847E+04</pdfrwt>
<totfact> 0.40722943E-01</totfact>
</mgrwt>
</event>
<event>
12    1  0.1335216E-007  0.9571296E+03  0.7818608E-02  0.9356856E-01
          1   -1    0    0  501    0  0.00000000000E+00  0.00000000000E+00  0.97105966580E+03  0.97105966580E+03  0.00000000000E+00 0. -1.
         -1   -1    0    0    0  501 -0.00000000000E+00 -0.00000000000E+00 -0.12715756123E+04  0.12715756123E+04  0.00000000000E+00 0.  1.
         23    2    1    2    0    0 -0.54080654217E+03  0.70410520701E+03  0.38562517260E+03  0.97032051798E+03  0.67670342722E+02 0.  0.
    5000000    2    1    2    0    0  0.54080654217E+03 -0.70410520701E+03 -0.68614111906E+03  0.12723147601E+04  0.59979942887E+03 0.  0.
         23    2    4    4    0    0  0.99891079969E+02  0.68215795069E+02 -0.10410901986E+02  0.15172653100E+03  0.90999619648E+02 0.  0.
         23    2    4    4    0    0  0.44091546220E+03 -0.77232100208E+03 -0.67573021708E+03  0.11205882291E+04  0.90666850744E+02 0.  0.
          1    1    3    3  502    0 -0.28667297644E+03  0.33046758505E+03  0.16617897106E+03  0.46798041691E+03  0.00000000000E+00 0. -1.
         -1    1    3    3    0  502 -0.25413356573E+03  0.37363762196E+03  0.21944620154E+03  0.50234010107E+03  0.00000000000E+00 0.  1.
         13    1    5    5    0    0  0.23706354931E+02 -0.62764444266E+01 -0.34652677067E+02  0.42452244306E+02  0.00000000000E+00 0. -1.
        -13    1    5    5    0    0  0.76184725038E+02  0.74492239496E+02  0.24241775081E+02  0.10927428670E+03  0.00000000000E+00 0.  1.
          3    1    6    6  503    0  0.25619674487E+03 -0.35830963919E+03 -0.32472646092E+03  0.54723837954E+03  0.00000000000E+00 0. -1.
         -3    1    6    6    0  503  0.18471871732E+03 -0.41401136289E+03 -0.35100375616E+03  0.57334984954E+03  0.00000000000E+00 0.  1.
<mgrwt>
<rscale>  0 0.95712955E+03</rscale>
<asrwt>0</asrwt>
<pdfrwt beam="1">  1        1 0.14939380E+00 0.95712955E+03</pdfrwt>
<pdfrwt beam="2">  1       -1 0.19562702E+00 0.95712955E+03</pdfrwt>
<totfact> 0.25981875E+00</totfact>
</mgrwt>
</event>
<event>
12    1  0.1335216E-007  0.1066272E+04  0.7818608E-02  0.9238703E-01
          2   -1    0    0  501    0  0.00000000000E+00  0.00000000000E+00  0.92143657467E+03  0.92143657467E+03  0.00000000000E+00 0.  1.
         -2   -1    0    0    0  501 -0.00000000000E+00 -0.00000000000E+00 -0.13572799000E+04  0.13572799000E+04  0.00000000000E+00 0. -1.
         23    2    1    2    0    0  0.95368908459E+03 -0.39778660636E+03 -0.27531060092E+03  0.10729954761E+04  0.88126672381E+02 0.  0.
    5000000    2    1    2    0    0 -0.95368908459E+03  0.39778660636E+03 -0.16053272437E+03  0.12057209986E+04  0.60019606509E+03 0.  0.
         23    2    4    4    0    0 -0.62856588845E+03  0.42943174934E+03 -0.32075566240E+03  0.83122423648E+03  0.92427446603E+02 0.  0.
         23    2    4    4    0    0 -0.32512319614E+03 -0.31645142983E+02  0.16022293803E+03  0.37449676210E+03  0.88712610193E+02 0.  0.
          3    1    3    3  502    0  0.63386290439E+02 -0.79866470886E+01 -0.30207086362E+02  0.70668779626E+02  0.00000000000E+00 0. -1.
         -3    1    3    3    0  502  0.89030279415E+03 -0.38979995927E+03 -0.24510351456E+03  0.10023266964E+04  0.00000000000E+00 0.  1.
         13    1    5    5    0    0 -0.10209644480E+03  0.42406161353E+02 -0.72639784498E+02  0.13228191431E+03  0.00000000000E+00 0.  1.
        -13    1    5    5    0    0 -0.52646944365E+03  0.38702558798E+03 -0.24811587790E+03  0.69894232217E+03  0.00000000000E+00 0. -1.
          4    1    6    6  503    0 -0.30393683867E+03 -0.12439801586E+02  0.12436294415E+03  0.32863124081E+03  0.00000000000E+00 0. -1.
         -4    1    6    6    0  503 -0.21186357475E+02 -0.19205341397E+02  0.35859993887E+02  0.45865521286E+02  0.00000000000E+00 0.  1.
<mgrwt>
<rscale>  0 0.10662724E+04</rscale>
<asrwt>0</asrwt>
<pdfrwt beam="1">  1        2 0.14175947E+00 0.10662724E+04</pdfrwt>
<pdfrwt beam="2">  1       -2 0.20881229E+00 0.10662724E+04</pdfrwt>
<totfact> 0.32592787E+00</totfact>
</mgrwt>
</event>
<event>
12    1  0.1335216E-007  0.5694456E+03  0.7818608E-02  0.9970906E-01
         -1   -1    0    0    0  501 -0.00000000000E+00  0.00000000000E+00  0.53267637118E+03  0.53267637118E+03  0.00000000000E+00 0.  1.
          1   -1    0    0  501    0  0.00000000000E+00 -0.00000000000E+00 -0.88771862831E+03  0.88771862831E+03  0.00000000000E+00 0. -1.
         23    2    1    2    0    0  0.34415868553E+03  0.42682121587E+03 -0.21285610777E+03  0.59520128471E+03  0.91297839859E+02 0.  0.
    5000000    2    1    2    0    0 -0.34415868553E+03 -0.42682121587E+03 -0.14218614935E+03  0.82519371478E+03  0.60008850573E+03 0.  0.
         23    2    4    4    0    0 -0.34190479929E+03 -0.32845740532E+03  0.14771415228E+03  0.50607546508E+03  0.97517930046E+02 0.  0.
         23    2    4    4    0    0 -0.22538862333E+01 -0.98363810556E+02 -0.28990030164E+03  0.31911824970E+03  0.90076374122E+02 0.  0.
          2    1    3    3  502    0  0.24977260201E+03  0.34731386465E+03 -0.19629098835E+03  0.47068399739E+03  0.00000000000E+00 0.  1.
         -2    1    3    3    0  502  0.94386083518E+02  0.79507351228E+02 -0.16565119424E+02  0.12451728732E+03  0.00000000000E+00 0. -1.
         11    1    5    5    0    0  0.65508507883E+01 -0.74586015274E+01  0.43033308274E+00  0.99362754268E+01  0.00000000000E+00 0.  1.
        -11    1    5    5    0    0 -0.34845565008E+03 -0.32099880379E+03  0.14728381920E+03  0.49613918965E+03  0.00000000000E+00 0. -1.
          3    1    6    6  503    0  0.15651278208E+02 -0.50836755127E+02 -0.24692102629E+03  0.25258529531E+03  0.00000000000E+00 0. -1.
         -3    1    6    6    0  503 -0.17905164441E+02 -0.47527055429E+02 -0.42979275345E+02  0.66532954395E+02  0.00000000000E+00 0.  1.
<mgrwt>
<rscale>  0 0.56944559E+03</rscale>
<asrwt>0</asrwt>
<pdfrwt beam="1">  1        1 0.13657210E+00 0.56944559E+03</pdfrwt>
<pdfrwt beam="2">  1       -1 0.81950211E-01 0.56944559E+03</pdfrwt>
<totfact> 0.28973042E+01</totfact>
</mgrwt>
</event>
<event>
12    1  0.1335216E-007  0.3427045E+03  0.7818608E-02  0.1065650E+00
         -2   -1    0    0    0  501 -0.00000000000E+00  0.00000000000E+00  0.30042305928E+03  0.30042305928E+03  0.00000000000E+00 0.  1.
          2   -1    0    0  501    0  0.00000000000E+00 -0.00000000000E+00 -0.90283081520E+03  0.90283081520E+03  0.00000000000E+00 0. -1.
         23    2    1    2    0    0 -0.18783390368E+03 -0.22746265038E+03 -0.39906395449E+03  0.50457721933E+03  0.91243069878E+02 0.  0.
    5000000    2    1    2    0    0  0.18783390368E+03  0.22746265038E+03 -0.20334380144E+03  0.69867665516E+03  0.59981625036E+03 0.  0.
         23    2    4    4    0    0  0.16985461811E+02  0.18745222975E+03 -0.38044600324E+03  0.43427588765E+03  0.91812531046E+02 0.  0.
         23    2    4    4    0    0  0.17084844187E+03  0.40010420635E+02  0.17710220181E+03  0.26440076751E+03  0.88048578229E+02 0.  0.
          1    1    3    3  502    0 -0.51500299633E+02 -0.11503094964E+03 -0.11846179646E+03  0.17296704153E+03  0.00000000000E+00 0. -1.
         -1    1    3    3    0  502 -0.13633360405E+03 -0.11243170074E+03 -0.28060215803E+03  0.33161017779E+03  0.00000000000E+00 0.  1.
         11    1    5    5    0    0  0.15953568072E+02  0.12331248556E+03 -0.33006495517E+03  0.35270860503E+03  0.00000000000E+00 0. -1.
        -11    1    5    5    0    0  0.10318937395E+01  0.64139744183E+02 -0.50381048072E+02  0.81567282617E+02  0.00000000000E+00 0.  1.
          4    1    6    6  503    0  0.36612689944E+02 -0.25685687051E+02  0.58330887157E+02  0.73503305917E+02  0.00000000000E+00 0.  1.
         -4    1    6    6    0  503  0.13423575193E+03  0.65696107686E+02  0.11877131465E+03  0.19089746160E+03  0.00000000000E+00 0. -1.
<mgrwt>
<rscale>  0 0.34270454E+03</rscale>
<asrwt>0</asrwt>
<pdfrwt beam="1">  1        2 0.13889704E+00 0.34270454E+03</pdfrwt>
<pdfrwt beam="2">  1       -2 0.46218933E-01 0.34270454E+03</pdfrwt>
<totfact> 0.13605319E+02</totfact>
</mgrwt>
</event>
<event>
12    1  0.1335216E-007  0.7341042E+03  0.7818608E-02  0.9660624E-01
          2   -1    0    0  501    0  0.00000000000E+00  0.00000000000E+00  0.12629619634E+04  0.12629619634E+04  0.00000000000E+00 0. -1.
         -2   -1    0    0    0  501 -0.00000000000E+00 -0.00000000000E+00 -0.47165493123E+03  0.47165493123E+03  0.00000000000E+00 0.  1.
         23    2    1    2    0    0  0.17345470171E+02 -0.65091267421E+03  0.30988196471E+03  0.72678309794E+03  0.90546477659E+02 0.  0.
    5000000    2    1    2    0    0 -0.17345470171E+02  0.65091267421E+03  0.48142506742E+03  0.10078337966E+04  0.59997557560E+03 0.  0.
         23    2    4    4    0    0  0.19590638154E+02  0.72841965292E+03  0.48510083679E+03  0.88004453526E+03  0.90424434333E+02 0.  0.
         23    2    4    4    0    0 -0.36936108325E+02 -0.77506978706E+02 -0.36757693699E+01  0.12778926138E+03  0.94577884291E+02 0.  0.
          3    1    3    3  502    0  0.27654517356E+02 -0.52184087846E+03  0.20973637852E+03  0.56309148745E+03  0.00000000000E+00 0. -1.
         -3    1    3    3    0  502 -0.10309047185E+02 -0.12907179575E+03  0.10014558619E+03  0.16369161049E+03  0.00000000000E+00 0.  1.
         11    1    5    5    0    0  0.19763731085E+02  0.56094650624E+03  0.41705326940E+03  0.69927463664E+03  0.00000000000E+00 0. -1.
        -11    1    5    5    0    0 -0.17309293173E+00  0.16747314668E+03  0.68047567389E+02  0.18076989862E+03  0.00000000000E+00 0.  1.
          2    1    6    6  503    0 -0.11219449822E+02 -0.42443363335E+02  0.44761693977E+02  0.62697084407E+02  0.00000000000E+00 0. -1.
         -2    1    6    6    0  503 -0.25716658502E+02 -0.35063615371E+02 -0.48437463347E+02  0.65092176971E+02  0.00000000000E+00 0.  1.
<mgrwt>
<rscale>  0 0.73410417E+03</rscale>
<asrwt>0</asrwt>
<pdfrwt beam="1">  1        2 0.19430184E+00 0.73410417E+03</pdfrwt>
<pdfrwt beam="2">  1       -2 0.72562297E-01 0.73410417E+03</pdfrwt>
<totfact> 0.30490020E+01</totfact>
</mgrwt>
</event>
<event>
12    1  0.1335216E-007  0.1292425E+04  0.7818608E-02  0.9035594E-01
          1   -1    0    0  501    0  0.00000000000E+00  0.00000000000E+00  0.22805622546E+04  0.22805622546E+04  0.00000000000E+00 0. -1.
         -1   -1    0    0    0  501 -0.00000000000E+00 -0.00000000000E+00 -0.93342667617E+03  0.93342667617E+03  0.00000000000E+00 0.  1.
         23    2    1    2    0    0  0.89089562118E+03 -0.86250711123E+03 -0.59879952867E+02  0.12447905527E+04  0.91128406878E+02 0.  0.
    5000000    2    1    2    0    0 -0.89089562118E+03  0.86250711123E+03  0.14070155313E+04  0.19691983781E+04  0.60036324187E+03 0.  0.
         23    2    4    4    0    0 -0.92536501623E+03  0.70010219218E+03  0.10600155019E+04  0.15744350259E+04  0.93644508514E+02 0.  0.
         23    2    4    4    0    0  0.34469395049E+02  0.16240491905E+03  0.34700002941E+03  0.39476335213E+03  0.88688143757E+02 0.  0.
          1    1    3    3  502    0  0.30687550477E+03 -0.34712740139E+03 -0.47868812291E+02  0.46579118864E+03  0.00000000000E+00 0. -1.
         -1    1    3    3    0  502  0.58402011641E+03 -0.51537970984E+03 -0.12011140576E+02  0.77899936405E+03  0.00000000000E+00 0.  1.
         13    1    5    5    0    0 -0.15319788724E+03  0.74930315232E+02  0.14901153094E+03  0.22646982392E+03  0.00000000000E+00 0.  1.
        -13    1    5    5    0    0 -0.77216712899E+03  0.62517187695E+03  0.91100397091E+03  0.13479652020E+04  0.00000000000E+00 0. -1.
          1    1    6    6  503    0  0.32621956563E+02  0.16878839873E+03  0.34790038084E+03  0.38805720015E+03  0.00000000000E+00 0. -1.
         -1    1    6    6    0  503  0.18474384863E+01 -0.63834796753E+01 -0.90035142772E+00  0.67061519830E+01  0.00000000000E+00 0.  1.
<mgrwt>
<rscale>  0 0.12924249E+04</rscale>
<asrwt>0</asrwt>
<pdfrwt beam="1">  1        1 0.35085573E+00 0.12924249E+04</pdfrwt>
<pdfrwt beam="2">  1       -1 0.14360410E+00 0.12924249E+04</pdfrwt>
<totfact> 0.73229910E-01</totfact>
</mgrwt>
</event>
<event>
12    1  0.1335216E-007  0.4917808E+03  0.7818608E-02  0.1015947E+00
         -2   -1    0    0    0  501 -0.00000000000E+00  0.00000000000E+00  0.12875999470E+04  0.12875999470E+04  0.00000000000E+00 0.  1.
          2   -1    0    0  501    0  0.00000000000E+00 -0.00000000000E+00 -0.26835876435E+03  0.26835876435E+03  0.00000000000E+00 0. -1.
         23    2    1    2    0    0  0.15268083748E+03  0.40023049827E+03  0.35875651953E+03  0.56611200668E+03  0.90998208342E+02 0.  0.
    5000000    2    1    2    0    0 -0.15268083748E+03 -0.40023049827E+03  0.66048466316E+03  0.98984670470E+03  0.60005051342E+03 0.  0.
         23    2    4    4    0    0  0.10169906865E+03 -0.14372713964E+03 -0.33185800761E+02  0.20224802938E+03  0.93823114334E+02 0.  0.
         23    2    4    4    0    0 -0.25437990613E+03 -0.25650335864E+03  0.69367046392E+03  0.78759867532E+03  0.92896992546E+02 0.  0.
          1    1    3    3  502    0 -0.97727071396E+01  0.25482697394E+02  0.10124375785E+02  0.29109734735E+02  0.00000000000E+00 0. -1.
         -1    1    3    3    0  502  0.16245354462E+03  0.37474780088E+03  0.34863214374E+03  0.53700227194E+03  0.00000000000E+00 0.  1.
         13    1    5    5    0    0  0.72687281405E+02 -0.13585742388E+03 -0.56597904518E+02  0.16414628628E+03  0.00000000000E+00 0. -1.
        -13    1    5    5    0    0  0.29011787244E+02 -0.78697157517E+01  0.23412103757E+02  0.38101743102E+02  0.00000000000E+00 0.  1.
          2    1    6    6  503    0 -0.63300604238E+02 -0.39816137403E+02  0.22434810630E+03  0.23648332730E+03  0.00000000000E+00 0. -1.
         -2    1    6    6    0  503 -0.19107930189E+03 -0.21668722124E+03  0.46932235762E+03  0.55111534802E+03  0.00000000000E+00 0.  1.
<mgrwt>
<rscale>  0 0.49178075E+03</rscale>
<asrwt>0</asrwt>
<pdfrwt beam="1">  1        2 0.41285964E-01 0.49178075E+03</pdfrwt>
<pdfrwt beam="2">  1       -2 0.19809230E+00 0.49178075E+03</pdfrwt>
<totfact> 0.17779224E+01</totfact>
</mgrwt>
</event>
<event>
12    1  0.1335216E-007  0.5655106E+03  0.7818608E-02  0.9979662E-01
         -2   -1    0    0    0  501 -0.00000000000E+00  0.00000000000E+00  0.19623582630E+03  0.19623582630E+03  0.00000000000E+00 0.  1.
          2   -1    0    0  501    0  0.00000000000E+00 -0.00000000000E+00 -0.18603687393E+04  0.18603687393E+04  0.00000000000E+00 0. -1.
         23    2    1    2    0    0  0.13673180064E+03 -0.38262121070E+03 -0.30795247992E+03  0.51890600262E+03  0.96613319369E+02 0.  0.
    5000000    2    1    2    0    0 -0.13673180064E+03  0.38262121070E+03 -0.13561804331E+04  0.15376985630E+04  0.60016408370E+03 0.  0.
         23    2    4    4    0    0  0.72664176038E+01 -0.14357039504E+03 -0.34128798406E+03  0.38191021977E+03  0.93341677447E+02 0.  0.
         23    2    4    4    0    0 -0.14399821824E+03  0.52619160574E+03 -0.10148924491E+04  0.11557883432E+04  0.90702361704E+02 0.  0.
          3    1    3    3  502    0  0.52233283358E+02 -0.26040856025E+03 -0.16471279537E+03  0.31252398164E+03  0.00000000000E+00 0. -1.
         -3    1    3    3    0  502  0.84498517281E+02 -0.12221265045E+03 -0.14323968455E+03  0.20638202098E+03  0.00000000000E+00 0.  1.
         13    1    5    5    0    0 -0.34247952242E+02 -0.23852137965E+02 -0.11814803485E+03  0.12530285255E+03  0.00000000000E+00 0. -1.
        -13    1    5    5    0    0  0.41514369846E+02 -0.11971825708E+03 -0.22313994921E+03  0.25660736722E+03  0.00000000000E+00 0.  1.
          1    1    6    6  503    0 -0.88545304127E+02  0.21866155082E+03 -0.51166334620E+03  0.56342925424E+03  0.00000000000E+00 0. -1.
         -1    1    6    6    0  503 -0.55452914115E+02  0.30753005492E+03 -0.50322910286E+03  0.59235908901E+03  0.00000000000E+00 0.  1.
<mgrwt>
<rscale>  0 0.56551064E+03</rscale>
<asrwt>0</asrwt>
<pdfrwt beam="1">  1        2 0.28621058E+00 0.56551064E+03</pdfrwt>
<pdfrwt beam="2">  1       -2 0.30190126E-01 0.56551064E+03</pdfrwt>
<totfact> 0.84790630E+01</totfact>
</mgrwt>
</event>
<event>
12    1  0.1335216E-007  0.5679224E+03  0.7818608E-02  0.9974286E-01
         -2   -1    0    0    0  501 -0.00000000000E+00  0.00000000000E+00  0.61853474720E+03  0.61853474720E+03  0.00000000000E+00 0.  1.
          2   -1    0    0  501    0  0.00000000000E+00 -0.00000000000E+00 -0.68370999350E+03  0.68370999350E+03  0.00000000000E+00 0. -1.
         23    2    1    2    0    0 -0.46460517574E+03 -0.12769760113E+03 -0.18919094287E+03  0.52279356868E+03  0.73179614159E+02 0.  0.
    5000000    2    1    2    0    0  0.46460517574E+03  0.12769760113E+03  0.12401569657E+03  0.77945117202E+03  0.59999965826E+03 0.  0.
         23    2    4    4    0    0  0.27471884395E+03 -0.14366024995E+03 -0.13380628224E+03  0.34996961623E+03  0.92010328115E+02 0.  0.
         23    2    4    4    0    0  0.18988633180E+03  0.27135785109E+03  0.25782197881E+03  0.42948155580E+03  0.91051258447E+02 0.  0.
          4    1    3    3  502    0 -0.41472329705E+02  0.48048591562E+01 -0.31095832683E+02  0.52057579784E+02  0.00000000000E+00 0. -1.
         -4    1    3    3    0  502 -0.42313284604E+03 -0.13250246029E+03 -0.15809511019E+03  0.47073598890E+03  0.00000000000E+00 0.  1.
         13    1    5    5    0    0  0.34710328528E+02  0.78526218855E+01  0.13246823658E+01  0.35612151864E+02  0.00000000000E+00 0. -1.
        -13    1    5    5    0    0  0.24000851542E+03 -0.15151287184E+03 -0.13513096460E+03  0.31435746436E+03  0.00000000000E+00 0.  1.
          1    1    6    6  503    0  0.13866752263E+03  0.20385800135E+03  0.13744268995E+03  0.28227160602E+03  0.00000000000E+00 0. -1.
         -1    1    6    6    0  503  0.51218809162E+02  0.67499849739E+02  0.12037928885E+03  0.14720994977E+03  0.00000000000E+00 0.  1.
<mgrwt>
<rscale>  0 0.56792245E+03</rscale>
<asrwt>0</asrwt>
<pdfrwt beam="1">  1        2 0.10518615E+00 0.56792245E+03</pdfrwt>
<pdfrwt beam="2">  1       -2 0.95159192E-01 0.56792245E+03</pdfrwt>
<totfact> 0.40354899E+01</totfact>
</mgrwt>
</event>
<event>
12    1  0.1335216E-007  0.7286244E+03  0.7818608E-02  0.9669495E-01
          2   -1    0    0  501    0  0.00000000000E+00  0.00000000000E+00  0.26223232486E+04  0.26223232486E+04  0.00000000000E+00 0. -1.
         -2   -1    0    0    0  501 -0.00000000000E+00 -0.00000000000E+00 -0.36287209209E+03  0.36287209209E+03  0.00000000000E+00 0.  1.
         23    2    1    2    0    0 -0.42243160294E+03 -0.46665276985E+03  0.82138899594E+02  0.64077802199E+03  0.87386542865E+02 0.  0.
    5000000    2    1    2    0    0  0.42243160294E+03  0.46665276985E+03  0.21773122569E+04  0.23444173187E+04  0.59949197938E+03 0.  0.
         23    2    4    4    0    0  0.54106165379E+03  0.32695269685E+03  0.18404783619E+04  0.19482235608E+04  0.92567073826E+02 0.  0.
         23    2    4    4    0    0 -0.11863005085E+03  0.13970007300E+03  0.33683389508E+03  0.39619375793E+03  0.99615368246E+02 0.  0.
          3    1    3    3  502    0 -0.24773467565E+03 -0.23489518055E+03  0.79568657654E+02  0.35054156194E+03  0.00000000000E+00 0. -1.
         -3    1    3    3    0  502 -0.17469692729E+03 -0.23175758930E+03  0.25702419403E+01  0.29023646005E+03  0.00000000000E+00 0.  1.
         13    1    5    5    0    0  0.31960148650E+03  0.14046714342E+03  0.97682652958E+03  0.10373361063E+04  0.00000000000E+00 0.  1.
        -13    1    5    5    0    0  0.22146016729E+03  0.18648555343E+03  0.86365183228E+03  0.91088745448E+03  0.00000000000E+00 0. -1.
          3    1    6    6  503    0 -0.39399952631E+02  0.74978650571E+02  0.24312983470E+03  0.25746120258E+03  0.00000000000E+00 0. -1.
         -3    1    6    6    0  503 -0.79230098220E+02  0.64721422430E+02  0.93704060371E+02  0.13873255536E+03  0.00000000000E+00 0.  1.
<mgrwt>
<rscale>  0 0.72862442E+03</rscale>
<asrwt>0</asrwt>
<pdfrwt beam="1">  1        2 0.40343433E+00 0.72862442E+03</pdfrwt>
<pdfrwt beam="2">  1       -2 0.55826477E-01 0.72862442E+03</pdfrwt>
<totfact> 0.93975580E+00</totfact>
</mgrwt>
</event>
<event>
12    1  0.1335216E-007  0.5279173E+03  0.7818608E-02  0.1006738E+00
         -2   -1    0    0    0  501 -0.00000000000E+00  0.00000000000E+00  0.14052448620E+03  0.14052448620E+03  0.00000000000E+00 0.  1.
          2   -1    0    0  501    0  0.00000000000E+00 -0.00000000000E+00 -0.32981888529E+04  0.32981888529E+04  0.00000000000E+00 0. -1.
         23    2    1    2    0    0  0.26378285987E+03  0.26322663783E+03 -0.27731902779E+03  0.47302820143E+03  0.89331831651E+02 0.  0.
    5000000    2    1    2    0    0 -0.26378285987E+03 -0.26322663783E+03 -0.28803453389E+04  0.29656851377E+04  0.60002450317E+03 0.  0.
         23    2    4    4    0    0 -0.14713917102E+03 -0.42321236832E+03 -0.14949728886E+04  0.15633326965E+04  0.91140211400E+02 0.  0.
         23    2    4    4    0    0 -0.11664368886E+03  0.15998573049E+03 -0.13853724504E+04  0.14023524412E+04  0.90190680789E+02 0.  0.
          1    1    3    3  502    0  0.15724996351E+03  0.10078722906E+03 -0.16113188088E+03  0.24667610262E+03  0.00000000000E+00 0. -1.
         -1    1    3    3    0  502  0.10653289636E+03  0.16243940877E+03 -0.11618714691E+03  0.22635209881E+03  0.00000000000E+00 0.  1.
         11    1    5    5    0    0 -0.10860107569E+03 -0.39450549688E+03 -0.13368557415E+04  0.13980744094E+04  0.00000000000E+00 0. -1.
        -11    1    5    5    0    0 -0.38538095326E+02 -0.28706871445E+02 -0.15811714708E+03  0.16525828712E+03  0.00000000000E+00 0.  1.
          3    1    6    6  503    0 -0.24345223739E+02  0.10987726275E+03 -0.71350158926E+03  0.72232279534E+03  0.00000000000E+00 0. -1.
         -3    1    6    6    0  503 -0.92298465118E+02  0.50108467744E+02 -0.67187086110E+03  0.68002964583E+03  0.00000000000E+00 0.  1.
<mgrwt>
<rscale>  0 0.52791733E+03</rscale>
<asrwt>0</asrwt>
<pdfrwt beam="1">  1        2 0.50741368E+00 0.52791733E+03</pdfrwt>
<pdfrwt beam="2">  1       -2 0.21619151E-01 0.52791733E+03</pdfrwt>
<totfact> 0.23225966E+01</totfact>
</mgrwt>
</event>
<event>
12    1  0.1335216E-007  0.9159705E+03  0.7818608E-02  0.9405835E-01
         -2   -1    0    0    0  501 -0.00000000000E+00  0.00000000000E+00  0.27052129112E+03  0.27052129112E+03  0.00000000000E+00 0.  1.
          2   -1    0    0  501    0  0.00000000000E+00 -0.00000000000E+00 -0.32063985440E+04  0.32063985440E+04  0.00000000000E+00 0. -1.
         23    2    1    2    0    0  0.46662704580E+03  0.68118535114E+03 -0.15090837054E+04  0.17226142399E+04  0.91169661164E+02 0.  0.
    5000000    2    1    2    0    0 -0.46662704580E+03 -0.68118535114E+03 -0.14267935474E+04  0.17543055952E+04  0.60007833805E+03 0.  0.
         23    2    4    4    0    0 -0.46900932455E+03 -0.19592901837E+03 -0.85098673820E+03  0.99541416773E+03  0.91175709314E+02 0.  0.
         23    2    4    4    0    0  0.23822787475E+01 -0.48525633277E+03 -0.57580680924E+03  0.75889142746E+03  0.94251436861E+02 0.  0.
          4    1    3    3  502    0  0.16759966487E+03  0.32066237311E+03 -0.62856537245E+03  0.72526438809E+03  0.00000000000E+00 0.  1.
         -4    1    3    3    0  502  0.29902738093E+03  0.36052297803E+03 -0.88051833298E+03  0.99734985183E+03  0.00000000000E+00 0. -1.
         11    1    5    5    0    0 -0.15304061477E+03 -0.65161459290E+02 -0.36566601993E+03  0.40172015593E+03  0.00000000000E+00 0. -1.
        -11    1    5    5    0    0 -0.31596870978E+03 -0.13076755907E+03 -0.48532071827E+03  0.59369401180E+03  0.00000000000E+00 0.  1.
          1    1    6    6  503    0 -0.22880908514E+02 -0.44699946870E+03 -0.50811637338E+03  0.67713684724E+03  0.00000000000E+00 0. -1.
         -1    1    6    6    0  503  0.25263187262E+02 -0.38256864069E+02 -0.67690435859E+02  0.81754580213E+02  0.00000000000E+00 0.  1.
<mgrwt>
<rscale>  0 0.91597048E+03</rscale>
<asrwt>0</asrwt>
<pdfrwt beam="1">  1        2 0.49329209E+00 0.91597048E+03</pdfrwt>
<pdfrwt beam="2">  1       -2 0.41618660E-01 0.91597048E+03</pdfrwt>
<totfact> 0.73157336E+00</totfact>
</mgrwt>
</event>
<event>
12    1  0.1335216E-007  0.3923226E+03  0.7818608E-02  0.1046471E+00
          2   -1    0    0  501    0  0.00000000000E+00  0.00000000000E+00  0.19145795132E+04  0.19145795132E+04  0.00000000000E+00 0. -1.
         -2   -1    0    0    0  501 -0.00000000000E+00 -0.00000000000E+00 -0.12730236942E+03  0.12730236942E+03  0.00000000000E+00 0.  1.
         23    2    1    2    0    0 -0.16159346507E+03  0.21385001242E+03  0.86341400486E+03  0.90807927517E+03  0.85322625589E+02 0.  0.
    5000000    2    1    2    0    0  0.16159346507E+03 -0.21385001242E+03  0.92386313893E+03  0.11338026075E+04  0.60011746972E+03 0.  0.
         23    2    4    4    0    0  0.24064476725E+03 -0.28862970235E+03  0.90683657310E+03  0.98669826921E+03  0.10001947342E+03 0.  0.
         23    2    4    4    0    0 -0.79051302176E+02  0.74779689938E+02  0.17026565827E+02  0.14710433826E+03  0.97512419658E+02 0.  0.
          1    1    3    3  502    0 -0.10281145649E+03  0.73325120164E+02  0.32979339941E+03  0.35314367490E+03  0.00000000000E+00 0. -1.
         -1    1    3    3    0  502 -0.58782008581E+02  0.14052489225E+03  0.53362060545E+03  0.55493560026E+03  0.00000000000E+00 0.  1.
         11    1    5    5    0    0  0.61104926366E+02 -0.18532393215E+02  0.12840378755E+03  0.14340430356E+03  0.00000000000E+00 0.  1.
        -11    1    5    5    0    0  0.17953984088E+03 -0.27009730914E+03  0.77843278556E+03  0.84329396565E+03  0.00000000000E+00 0. -1.
          1    1    6    6  503    0 -0.83300326284E+02  0.60470522643E+02  0.47352127346E+02  0.11330424719E+03  0.00000000000E+00 0. -1.
         -1    1    6    6    0  503  0.42490241081E+01  0.14309167295E+02 -0.30325561519E+02  0.33800091065E+02  0.00000000000E+00 0.  1.
<mgrwt>
<rscale>  0 0.39232263E+03</rscale>
<asrwt>0</asrwt>
<pdfrwt beam="1">  1        2 0.29455067E+00 0.39232263E+03</pdfrwt>
<pdfrwt beam="2">  1       -2 0.19584981E-01 0.39232263E+03</pdfrwt>
<totfact> 0.17632146E+02</totfact>
</mgrwt>
</event>
<event>
12    1  0.1335216E-007  0.3577557E+03  0.7818608E-02  0.1059476E+00
         -1   -1    0    0    0  501 -0.00000000000E+00  0.00000000000E+00  0.59810306476E+03  0.59810306476E+03  0.00000000000E+00 0. -1.
          1   -1    0    0  501    0  0.00000000000E+00 -0.00000000000E+00 -0.24581240718E+03  0.24581240718E+03  0.00000000000E+00 0.  1.
         23    2    1    2    0    0 -0.10604882192E+03 -0.50851017444E+02  0.11908926214E+03  0.18979709176E+03  0.89490251292E+02 0.  0.
    5000000    2    1    2    0    0  0.10604882192E+03  0.50851017444E+02  0.23320139544E+03  0.65411838018E+03  0.59971308627E+03 0.  0.
         23    2    4    4    0    0 -0.51229786881E+02  0.26767841946E+03  0.49889887987E+01  0.28996599030E+03  0.98889626427E+02 0.  0.
         23    2    4    4    0    0  0.15727860880E+03 -0.21682740201E+03  0.22821240664E+03  0.36415238988E+03  0.93676984678E+02 0.  0.
          4    1    3    3  502    0 -0.79879912777E+02  0.74631575352E+01  0.86762904622E+02  0.11817064273E+03  0.00000000000E+00 0. -1.
         -4    1    3    3    0  502 -0.26168909145E+02 -0.58314174980E+02  0.32326357521E+02  0.71626449025E+02  0.00000000000E+00 0.  1.
         13    1    5    5    0    0  0.22200779794E+02  0.12939895732E+03 -0.14934569199E+02  0.13213631650E+03  0.00000000000E+00 0.  1.
        -13    1    5    5    0    0 -0.73430566675E+02  0.13827946213E+03  0.19923557998E+02  0.15782967381E+03  0.00000000000E+00 0. -1.
          1    1    6    6  503    0  0.56990261606E+02 -0.15631491736E+03  0.12620267003E+03  0.20882853548E+03  0.00000000000E+00 0. -1.
         -1    1    6    6    0  503  0.10028834720E+03 -0.60512484654E+02  0.10200973661E+03  0.15532385440E+03  0.00000000000E+00 0.  1.
<mgrwt>
<rscale>  0 0.35775572E+03</rscale>
<asrwt>0</asrwt>
<pdfrwt beam="1">  1        1 0.37817294E-01 0.35775572E+03</pdfrwt>
<pdfrwt beam="2">  1       -1 0.92015856E-01 0.35775572E+03</pdfrwt>
<totfact> 0.13642182E+02</totfact>
</mgrwt>
</event>
<event>
12    1  0.1335216E-007  0.4204799E+03  0.7818608E-02  0.1036910E+00
          2   -1    0    0  501    0  0.00000000000E+00  0.00000000000E+00  0.12692296221E+04  0.12692296221E+04  0.00000000000E+00 0. -1.
         -2   -1    0    0    0  501 -0.00000000000E+00 -0.00000000000E+00 -0.31322421050E+03  0.31322421050E+03  0.00000000000E+00 0.  1.
         23    2    1    2    0    0 -0.40341540871E+03  0.98502269126E+02  0.68047596494E+03  0.80246610696E+03  0.91965346510E+02 0.  0.
    5000000    2    1    2    0    0  0.40341540871E+03 -0.98502269126E+02  0.27552944668E+03  0.77998772564E+03  0.60001473912E+03 0.  0.
         23    2    4    4    0    0  0.12537531199E+03 -0.15217378417E+02  0.41752172870E+03  0.44434513507E+03  0.84662079216E+02 0.  0.
         23    2    4    4    0    0  0.27804009672E+03 -0.83284890709E+02 -0.14199228202E+03  0.33564259058E+03  0.90837613645E+02 0.  0.
          2    1    3    3  502    0 -0.32269808483E+03  0.57720476380E+02  0.58744154807E+03  0.67272080371E+03  0.00000000000E+00 0. -1.
         -2    1    3    3    0  502 -0.80717323880E+02  0.40781792746E+02  0.93034416866E+02  0.12974530325E+03  0.00000000000E+00 0.  1.
         13    1    5    5    0    0  0.16229671790E+02 -0.14727107359E+02  0.13274555911E+02  0.25622329563E+02  0.00000000000E+00 0.  1.
        -13    1    5    5    0    0  0.10914564020E+03 -0.49027105806E+00  0.40424717279E+03  0.41872280550E+03  0.00000000000E+00 0. -1.
          3    1    6    6  503    0  0.26819029680E+03 -0.74253927459E+02 -0.15367501090E+03  0.31789257622E+03  0.00000000000E+00 0. -1.
         -3    1    6    6    0  503  0.98497999216E+01 -0.90309632508E+01  0.11682728879E+02  0.17750014360E+02  0.00000000000E+00 0.  1.
<mgrwt>
<rscale>  0 0.42047987E+03</rscale>
<asrwt>0</asrwt>
<pdfrwt beam="1">  1        2 0.19526609E+00 0.42047987E+03</pdfrwt>
<pdfrwt beam="2">  1       -2 0.48188341E-01 0.42047987E+03</pdfrwt>
<totfact> 0.74352726E+01</totfact>
</mgrwt>
</event>
<event>
12    1  0.1335216E-007  0.5779520E+03  0.7818608E-02  0.9952235E-01
          1   -1    0    0  501    0  0.00000000000E+00  0.00000000000E+00  0.88548595360E+03  0.88548595360E+03  0.00000000000E+00 0. -1.
         -1   -1    0    0    0  501 -0.00000000000E+00 -0.00000000000E+00 -0.43856657515E+03  0.43856657515E+03  0.00000000000E+00 0.  1.
         23    2    1    2    0    0  0.24897913608E+03  0.35505335135E+03  0.37484482077E+03  0.58023153208E+03  0.90036096353E+02 0.  0.
    5000000    2    1    2    0    0 -0.24897913608E+03 -0.35505335135E+03  0.72074557684E+02  0.74382099667E+03  0.60001786700E+03 0.  0.
         23    2    4    4    0    0 -0.75528370720E+02 -0.48734707168E+03  0.59142388084E+02  0.50561337705E+03  0.94527043330E+02 0.  0.
         23    2    4    4    0    0 -0.17345076536E+03  0.13229372033E+03  0.12932169599E+02  0.23820761962E+03  0.94809454116E+02 0.  0.
          4    1    3    3  502    0  0.63496778295E+02  0.14735635831E+03  0.17534388746E+03  0.23767880860E+03  0.00000000000E+00 0. -1.
         -4    1    3    3    0  502  0.18548235779E+03  0.20769699304E+03  0.19950093332E+03  0.34255272348E+03  0.00000000000E+00 0.  1.
         11    1    5    5    0    0 -0.22199655914E+02 -0.35480504672E+03  0.13967731738E+02  0.35577316288E+03  0.00000000000E+00 0.  1.
        -11    1    5    5    0    0 -0.53328714806E+02 -0.13254202497E+03  0.45174656347E+02  0.14984021417E+03  0.00000000000E+00 0. -1.
          1    1    6    6  503    0 -0.14259493549E+03  0.11540338544E+03  0.46862510750E+02  0.18933396925E+03  0.00000000000E+00 0. -1.
         -1    1    6    6    0  503 -0.30855829873E+02  0.16890334898E+02 -0.33930341150E+02  0.48873650372E+02  0.00000000000E+00 0.  1.
<mgrwt>
<rscale>  0 0.57795205E+03</rscale>
<asrwt>0</asrwt>
<pdfrwt beam="1">  1        1 0.13622861E+00 0.57795205E+03</pdfrwt>
<pdfrwt beam="2">  1       -1 0.67471781E-01 0.57795205E+03</pdfrwt>
<totfact> 0.43456651E+01</totfact>
</mgrwt>
</event>
<event>
12    1  0.1335216E-007  0.8429062E+03  0.7818608E-02  0.9499908E-01
          2   -1    0    0  501    0  0.00000000000E+00  0.00000000000E+00  0.21069268442E+04  0.21069268442E+04  0.00000000000E+00 0. -1.
         -2   -1    0    0    0  501 -0.00000000000E+00 -0.00000000000E+00 -0.49549374488E+03  0.49549374488E+03  0.00000000000E+00 0.  1.
         23    2    1    2    0    0  0.60680734117E+03 -0.47333340474E+03  0.70089137471E+02  0.77820794122E+03  0.91844712690E+02 0.  0.
    5000000    2    1    2    0    0 -0.60680734117E+03  0.47333340474E+03  0.15413439619E+04  0.18242126479E+04  0.59979239286E+03 0.  0.
         23    2    4    4    0    0 -0.66650770324E+03  0.30657633224E+03  0.97828578318E+03  0.12269300842E+04  0.10046288812E+03 0.  0.
         23    2    4    4    0    0  0.59700362070E+02  0.16675707250E+03  0.56305817870E+03  0.59728256372E+03  0.91323019323E+02 0.  0.
          3    1    3    3  502    0  0.26277889979E+02 -0.44352214644E+00  0.28883762781E+01  0.26439873887E+02  0.00000000000E+00 0. -1.
         -3    1    3    3    0  502  0.58052945119E+03 -0.47288988259E+03  0.67200761193E+02  0.75176806733E+03  0.00000000000E+00 0.  1.
         11    1    5    5    0    0 -0.54840586656E+03  0.25342262226E+03  0.86362656781E+03  0.10539558191E+04  0.00000000000E+00 0.  1.
        -11    1    5    5    0    0 -0.11810183668E+03  0.53153709980E+02  0.11465921537E+03  0.17297426508E+03  0.00000000000E+00 0. -1.
          3    1    6    6  503    0  0.15749256481E+02  0.41630530658E+02  0.29361379542E+03  0.29696835021E+03  0.00000000000E+00 0. -1.
         -3    1    6    6    0  503  0.43951105589E+02  0.12512654184E+03  0.26944438328E+03  0.30031421351E+03  0.00000000000E+00 0.  1.
<mgrwt>
<rscale>  0 0.84290618E+03</rscale>
<asrwt>0</asrwt>
<pdfrwt beam="1">  1        2 0.32414259E+00 0.84290618E+03</pdfrwt>
<pdfrwt beam="2">  1       -2 0.76229808E-01 0.84290618E+03</pdfrwt>
<totfact> 0.91847247E+00</totfact>
</mgrwt>
</event>
<event>
12    1  0.1335216E-007  0.3382774E+03  0.7818608E-02  0.1067532E+00
         -1   -1    0    0    0  501 -0.00000000000E+00  0.00000000000E+00  0.49513130495E+03  0.49513130495E+03  0.00000000000E+00 0.  1.
          1   -1    0    0  501    0  0.00000000000E+00 -0.00000000000E+00 -0.77407924616E+03  0.77407924616E+03  0.00000000000E+00 0. -1.
         23    2    1    2    0    0  0.95222163281E+02  0.20532195364E+03 -0.52774599804E+03  0.58130804001E+03  0.90436905680E+02 0.  0.
    5000000    2    1    2    0    0 -0.95222163281E+02 -0.20532195364E+03  0.24879805683E+03  0.68790251110E+03  0.60007085138E+03 0.  0.
         23    2    4    4    0    0 -0.21440279740E+03 -0.12196382524E+03  0.38597856220E+03  0.46811528863E+03  0.96481805377E+02 0.  0.
         23    2    4    4    0    0  0.11918063412E+03 -0.83358128395E+02 -0.13718050538E+03  0.21978722247E+03  0.91298033854E+02 0.  0.
          4    1    3    3  502    0  0.54860479025E+02  0.27476771214E+02 -0.13417862770E+03  0.14754168647E+03  0.00000000000E+00 0.  1.
         -4    1    3    3    0  502  0.40361684255E+02  0.17784518242E+03 -0.39356737034E+03  0.43376635354E+03  0.00000000000E+00 0. -1.
         11    1    5    5    0    0 -0.70392399300E+02  0.80318722490E+01  0.10153461075E+03  0.12380984626E+03  0.00000000000E+00 0. -1.
        -11    1    5    5    0    0 -0.14401039810E+03 -0.12999569749E+03  0.28444395145E+03  0.34430544237E+03  0.00000000000E+00 0.  1.
          1    1    6    6  503    0  0.13125618076E+03 -0.66228790930E+02 -0.13334235116E+03  0.19848078081E+03  0.00000000000E+00 0. -1.
         -1    1    6    6    0  503 -0.12075546636E+02 -0.17129337465E+02 -0.38381542131E+01  0.21306441663E+02  0.00000000000E+00 0.  1.
<mgrwt>
<rscale>  0 0.33827738E+03</rscale>
<asrwt>0</asrwt>
<pdfrwt beam="1">  1        1 0.11908911E+00 0.33827738E+03</pdfrwt>
<pdfrwt beam="2">  1       -1 0.76174047E-01 0.33827738E+03</pdfrwt>
<totfact> 0.43757949E+01</totfact>
</mgrwt>
</event>
<event>
12    1  0.1335216E-007  0.1366984E+04  0.7818608E-02  0.8978070E-01
         -2   -1    0    0    0  501 -0.00000000000E+00  0.00000000000E+00  0.22567051408E+04  0.22567051408E+04  0.00000000000E+00 0. -1.
          2   -1    0    0  501    0  0.00000000000E+00 -0.00000000000E+00 -0.11001158246E+04  0.11001158246E+04  0.00000000000E+00 0.  1.
         23    2    1    2    0    0  0.21873461065E+03 -0.13408259827E+04 -0.16099276838E+03  0.13715598346E+04  0.97972254228E+02 0.  0.
    5000000    2    1    2    0    0 -0.21873461065E+03  0.13408259827E+04  0.13175820845E+04  0.19852611308E+04  0.59964994980E+03 0.  0.
         23    2    4    4    0    0  0.20589345131E+02  0.12386656428E+03  0.42948597207E+03  0.45687315090E+03  0.92238977286E+02 0.  0.
         23    2    4    4    0    0 -0.23932395578E+03  0.12169594184E+04  0.88809611248E+03  0.15283879799E+04  0.94809969472E+02 0.  0.
          2    1    3    3  502    0  0.79806217617E+02 -0.71131772017E+03 -0.11830674068E+03  0.72549184440E+03  0.00000000000E+00 0. -1.
         -2    1    3    3    0  502  0.13892839303E+03 -0.62950826250E+03 -0.42686027705E+02  0.64606799016E+03  0.00000000000E+00 0.  1.
         13    1    5    5    0    0 -0.90173033279E+01  0.33593454466E+02  0.26216140935E+03  0.26445876143E+03  0.00000000000E+00 0.  1.
        -13    1    5    5    0    0  0.29606648459E+02  0.90273109810E+02  0.16732456272E+03  0.19241438947E+03  0.00000000000E+00 0. -1.
          1    1    6    6  503    0 -0.10016201251E+03  0.74476514473E+03  0.52523129955E+03  0.91682902854E+03  0.00000000000E+00 0. -1.
         -1    1    6    6    0  503 -0.13916194327E+03  0.47219427367E+03  0.36286481293E+03  0.61155895137E+03  0.00000000000E+00 0.  1.
<mgrwt>
<rscale>  0 0.13669839E+04</rscale>
<asrwt>0</asrwt>
<pdfrwt beam="1">  1        2 0.16924859E+00 0.13669839E+04</pdfrwt>
<pdfrwt beam="2">  1       -2 0.34718540E+00 0.13669839E+04</pdfrwt>
<totfact> 0.33942149E-01</totfact>
</mgrwt>
</event>
<event>
12    1  0.1335216E-007  0.6386778E+03  0.7818608E-02  0.9828259E-01
         -1   -1    0    0    0  501 -0.00000000000E+00  0.00000000000E+00  0.59077419326E+03  0.59077419326E+03  0.00000000000E+00 0.  1.
          1   -1    0    0  501    0  0.00000000000E+00 -0.00000000000E+00 -0.10663834333E+04  0.10663834333E+04  0.00000000000E+00 0. -1.
         23    2    1    2    0    0 -0.28882920116E+03 -0.45968245227E+03 -0.62679236945E+03  0.83401929737E+03  0.89382602480E+02 0.  0.
    5000000    2    1    2    0    0  0.28882920116E+03  0.45968245227E+03  0.15118312938E+03  0.82313832922E+03  0.59997508786E+03 0.  0.
         23    2    4    4    0    0 -0.21025178265E+02  0.40369332534E+03 -0.79171030978E+02  0.42222496924E+03  0.92711991994E+02 0.  0.
         23    2    4    4    0    0  0.30985437943E+03  0.55989126928E+02  0.23035416036E+03  0.40091335998E+03  0.92325317375E+02 0.  0.
          1    1    3    3  502    0 -0.23663474852E+03 -0.35649666908E+03 -0.43576106080E+03  0.61071563054E+03  0.00000000000E+00 0. -1.
         -1    1    3    3    0  502 -0.52194452642E+02 -0.10318578319E+03 -0.19103130865E+03  0.22330366684E+03  0.00000000000E+00 0.  1.
         11    1    5    5    0    0  0.32429623855E+02  0.11272010562E+03 -0.58828410719E+01  0.11743981664E+03  0.00000000000E+00 0.  1.
        -11    1    5    5    0    0 -0.53454802120E+02  0.29097321972E+03 -0.73288189906E+02  0.30478515260E+03  0.00000000000E+00 0. -1.
          3    1    6    6  503    0  0.11939489382E+03  0.51924206955E+02  0.13617918429E+03  0.18840391231E+03  0.00000000000E+00 0. -1.
         -3    1    6    6    0  503  0.19045948560E+03  0.40649199729E+01  0.94174976069E+02  0.21250944767E+03  0.00000000000E+00 0.  1.
<mgrwt>
<rscale>  0 0.63867784E+03</rscale>
<asrwt>0</asrwt>
<pdfrwt beam="1">  1        1 0.16405899E+00 0.63867784E+03</pdfrwt>
<pdfrwt beam="2">  1       -1 0.90888337E-01 0.63867784E+03</pdfrwt>
<totfact> 0.16635285E+01</totfact>
</mgrwt>
</event>
<event>
12    1  0.1335216E-007  0.2112691E+03  0.7818608E-02  0.1140565E+00
          4   -1    0    0  501    0  0.00000000000E+00  0.00000000000E+00  0.18787614199E+04  0.18787614199E+04  0.00000000000E+00 0.  1.
         -4   -1    0    0    0  501 -0.00000000000E+00 -0.00000000000E+00 -0.94157309792E+02  0.94157309792E+02  0.00000000000E+00 0. -1.
         23    2    1    2    0    0 -0.27070453304E+02 -0.96856108994E+02  0.81562894071E+03  0.82885379704E+03  0.10786163664E+03 0.  0.
    5000000    2    1    2    0    0  0.27070453304E+02  0.96856108994E+02  0.96897516944E+03  0.11440649327E+04  0.59988146823E+03 0.  0.
         23    2    4    4    0    0  0.10264364547E+03 -0.43995387880E+02 -0.15693843542E+02  0.14230755528E+03  0.86797646597E+02 0.  0.
         23    2    4    4    0    0 -0.75573192164E+02  0.14085149687E+03  0.98466901298E+03  0.10017573774E+04  0.91620557316E+02 0.  0.
          2    1    3    3  502    0 -0.97657424504E+01 -0.25528302226E+02  0.60834947591E+03  0.60896317522E+03  0.00000000000E+00 0.  1.
         -2    1    3    3    0  502 -0.17304710854E+02 -0.71327806768E+02  0.20727946480E+03  0.21989062182E+03  0.00000000000E+00 0. -1.
         13    1    5    5    0    0  0.48959548046E+02 -0.63884847917E+02 -0.25054348093E+02  0.84297280482E+02  0.00000000000E+00 0. -1.
        -13    1    5    5    0    0  0.53684097423E+02  0.19889460037E+02  0.93605045512E+01  0.58010274798E+02  0.00000000000E+00 0.  1.
          1    1    6    6  503    0 -0.81648442817E+02  0.56012572437E+02  0.50812519079E+03  0.51768241809E+03  0.00000000000E+00 0. -1.
         -1    1    6    6    0  503  0.60752506524E+01  0.84838924438E+02  0.47654382219E+03  0.48407495932E+03  0.00000000000E+00 0.  1.
<mgrwt>
<rscale>  0 0.21126907E+03</rscale>
<asrwt>0</asrwt>
<pdfrwt beam="1">  1        4 0.28904019E+00 0.21126907E+03</pdfrwt>
<pdfrwt beam="2">  1       -4 0.14485741E-01 0.21126907E+03</pdfrwt>
<totfact> 0.30525850E+00</totfact>
</mgrwt>
</event>
<event>
12    1  0.1335216E-007  0.9082792E+03  0.7818608E-02  0.9415291E-01
         -2   -1    0    0    0  501 -0.00000000000E+00  0.00000000000E+00  0.63026727785E+03  0.63026727785E+03  0.00000000000E+00 0.  1.
          2   -1    0    0  501    0  0.00000000000E+00 -0.00000000000E+00 -0.14139024722E+04  0.14139024722E+04  0.00000000000E+00 0. -1.
         23    2    1    2    0    0  0.76294208435E+03 -0.29341829043E+03 -0.58893523689E+03  0.10117341173E+04  0.92662255376E+02 0.  0.
    5000000    2    1    2    0    0 -0.76294208435E+03  0.29341829043E+03 -0.19469995743E+03  0.10324356327E+04  0.59986693950E+03 0.  0.
         23    2    4    4    0    0 -0.30092406024E+03 -0.15639051303E+03  0.53096356590E+01  0.35129784272E+03  0.91480596129E+02 0.  0.
         23    2    4    4    0    0 -0.46201802411E+03  0.44980880346E+03 -0.20000959309E+03  0.68113779003E+03  0.90311889573E+02 0.  0.
          3    1    3    3  502    0  0.29853846971E+03 -0.72803406663E+02 -0.24725432248E+03  0.39441127507E+03  0.00000000000E+00 0. -1.
         -3    1    3    3    0  502  0.46440361464E+03 -0.22061488377E+03 -0.34168091440E+03  0.61732284220E+03  0.00000000000E+00 0.  1.
         11    1    5    5    0    0 -0.23096391749E+03 -0.74689132677E+02  0.15625067246E+02  0.24324255476E+03  0.00000000000E+00 0. -1.
        -11    1    5    5    0    0 -0.69960142755E+02 -0.81701380354E+02 -0.10315431587E+02  0.10805528795E+03  0.00000000000E+00 0.  1.
          3    1    6    6  503    0 -0.36811705842E+03  0.36045482900E+03 -0.12062334611E+03  0.52913877582E+03  0.00000000000E+00 0. -1.
         -3    1    6    6    0  503 -0.93900965685E+02  0.89353974464E+02 -0.79386246982E+02  0.15199901420E+03  0.00000000000E+00 0.  1.
<mgrwt>
<rscale>  0 0.90827917E+03</rscale>
<asrwt>0</asrwt>
<pdfrwt beam="1">  1        2 0.21752345E+00 0.90827917E+03</pdfrwt>
<pdfrwt beam="2">  1       -2 0.96964198E-01 0.90827917E+03</pdfrwt>
<totfact> 0.12676261E+01</totfact>
</mgrwt>
</event>
<event>
12    1  0.1335216E-007  0.1107299E+04  0.7818608E-02  0.9198107E-01
         -2   -1    0    0    0  501 -0.00000000000E+00  0.00000000000E+00  0.80314057804E+03  0.80314057804E+03  0.00000000000E+00 0.  1.
          2   -1    0    0  501    0  0.00000000000E+00 -0.00000000000E+00 -0.17700712474E+04  0.17700712474E+04  0.00000000000E+00 0. -1.
         23    2    1    2    0    0  0.63682865918E+02  0.10314171016E+04 -0.90533534039E+03  0.13766632206E+04  0.87708606437E+02 0.  0.
    5000000    2    1    2    0    0 -0.63682865918E+02 -0.10314171016E+04 -0.61595328935E+02  0.11965486048E+04  0.60004819321E+03 0.  0.
         23    2    4    4    0    0  0.23984085762E+03 -0.56254317540E+03 -0.11105858530E+03  0.62817200306E+03  0.91036228441E+02 0.  0.
         23    2    4    4    0    0 -0.30352372354E+03 -0.46887392619E+03  0.49463256366E+02  0.56837660171E+03  0.92929748923E+02 0.  0.
          1    1    3    3  502    0  0.41827983623E+02  0.95180676613E+03 -0.80966090644E+03  0.12502945588E+04  0.00000000000E+00 0. -1.
         -1    1    3    3    0  502  0.21854882296E+02  0.79610335454E+02 -0.95674433944E+02  0.12636866187E+03  0.00000000000E+00 0.  1.
         13    1    5    5    0    0  0.21085668558E+03 -0.53126020109E+03 -0.12131997105E+03  0.58430854734E+03  0.00000000000E+00 0.  1.
        -13    1    5    5    0    0  0.28984172040E+02 -0.31282974308E+02  0.10261385751E+02  0.43863455722E+02  0.00000000000E+00 0. -1.
          3    1    6    6  503    0 -0.11018163317E+03 -0.24910956087E+03  0.41734721608E+02  0.27556732860E+03  0.00000000000E+00 0. -1.
         -3    1    6    6    0  503 -0.19334209036E+03 -0.21976436532E+03  0.77285347574E+01  0.29280927311E+03  0.00000000000E+00 0.  1.
<mgrwt>
<rscale>  0 0.11072991E+04</rscale>
<asrwt>0</asrwt>
<pdfrwt beam="1">  1        2 0.27231865E+00 0.11072991E+04</pdfrwt>
<pdfrwt beam="2">  1       -2 0.12356009E+00 0.11072991E+04</pdfrwt>
<totfact> 0.43554734E+00</totfact>
</mgrwt>
</event>
<event>
12    1  0.1335216E-007  0.1145963E+04  0.7818608E-02  0.9161516E-01
          1   -1    0    0  501    0  0.00000000000E+00  0.00000000000E+00  0.36166625561E+04  0.36166625561E+04  0.00000000000E+00 0. -1.
         -1   -1    0    0    0  501 -0.00000000000E+00 -0.00000000000E+00 -0.40519152407E+03  0.40519152407E+03  0.00000000000E+00 0.  1.
         23    2    1    2    0    0 -0.10708892056E+04  0.16398866278E+03  0.20679480949E+04  0.23362395245E+04  0.88937171694E+02 0.  0.
    5000000    2    1    2    0    0  0.10708892056E+04 -0.16398866278E+03  0.11435229371E+04  0.16856145557E+04  0.59996312420E+03 0.  0.
         23    2    4    4    0    0  0.10387432275E+04 -0.26448942595E+03  0.88885821203E+03  0.13956285062E+04  0.93636836310E+02 0.  0.
         23    2    4    4    0    0  0.32145978093E+02  0.10050076317E+03  0.25466472509E+03  0.28998604947E+03  0.90022327104E+02 0.  0.
          3    1    3    3  502    0 -0.57817625117E+02 -0.61946594780E+01  0.14221816542E+03  0.15364653642E+03  0.00000000000E+00 0. -1.
         -3    1    3    3    0  502 -0.10130715805E+04  0.17018332226E+03  0.19257299295E+04  0.21825929881E+04  0.00000000000E+00 0.  1.
         13    1    5    5    0    0  0.69219950193E+03 -0.20259487508E+03  0.55011599838E+03  0.90709009782E+03  0.00000000000E+00 0. -1.
        -13    1    5    5    0    0  0.34654372556E+03 -0.61894550866E+02  0.33874221366E+03  0.48853840838E+03  0.00000000000E+00 0.  1.
          4    1    6    6  503    0 -0.12600470626E+01 -0.13955843217E+02  0.60771293488E+02  0.62365883227E+02  0.00000000000E+00 0. -1.
         -4    1    6    6    0  503  0.33406025156E+02  0.11445660639E+03  0.19389343160E+03  0.22762016625E+03  0.00000000000E+00 0.  1.
<mgrwt>
<rscale>  0 0.11459629E+04</rscale>
<asrwt>0</asrwt>
<pdfrwt beam="1">  1        1 0.55640960E+00 0.11459629E+04</pdfrwt>
<pdfrwt beam="2">  1       -1 0.62337160E-01 0.11459629E+04</pdfrwt>
<totfact> 0.53604097E-01</totfact>
</mgrwt>
</event>
<event>
12    1  0.1335216E-007  0.1542625E+04  0.7818608E-02  0.8856592E-01
          1   -1    0    0  501    0  0.00000000000E+00  0.00000000000E+00  0.90211870614E+03  0.90211870614E+03  0.00000000000E+00 0. -1.
         -1   -1    0    0    0  501 -0.00000000000E+00 -0.00000000000E+00 -0.26857603102E+04  0.26857603102E+04  0.00000000000E+00 0.  1.
         23    2    1    2    0    0 -0.75330159908E+03  0.12939805134E+04 -0.86638109467E+03  0.17322718418E+04  0.91107982005E+02 0.  0.
    5000000    2    1    2    0    0  0.75330159908E+03 -0.12939805134E+04 -0.91726050942E+03  0.18556071746E+04  0.60005189441E+03 0.  0.
         23    2    4    4    0    0 -0.55665403951E+02 -0.18847233089E+03 -0.26921659326E+02  0.21935478753E+03  0.93655167314E+02 0.  0.
         23    2    4    4    0    0  0.80896700303E+03 -0.11055081825E+04 -0.89033885010E+03  0.16362523871E+04  0.89680837113E+02 0.  0.
          3    1    3    3  502    0 -0.23666061481E+03  0.36427258058E+03 -0.21077348435E+03  0.48283353371E+03  0.00000000000E+00 0. -1.
         -3    1    3    3    0  502 -0.51664098428E+03  0.92970793282E+03 -0.65560761032E+03  0.12494383081E+04  0.00000000000E+00 0.  1.
         13    1    5    5    0    0 -0.77563907530E+02 -0.12185566251E+03 -0.58421508474E+00  0.14444827291E+03  0.00000000000E+00 0.  1.
        -13    1    5    5    0    0  0.21898503579E+02 -0.66616668374E+02 -0.26337444242E+02  0.74906514626E+02  0.00000000000E+00 0. -1.
          4    1    6    6  503    0  0.57248884066E+03 -0.84682486841E+03 -0.67344826116E+03  0.12240867579E+04  0.00000000000E+00 0. -1.
         -4    1    6    6    0  503  0.23647816238E+03 -0.25868331410E+03 -0.21689058894E+03  0.41216562914E+03  0.00000000000E+00 0.  1.
<mgrwt>
<rscale>  0 0.15426249E+04</rscale>
<asrwt>0</asrwt>
<pdfrwt beam="1">  1        1 0.13878750E+00 0.15426249E+04</pdfrwt>
<pdfrwt beam="2">  1       -1 0.41319388E+00 0.15426249E+04</pdfrwt>
<totfact> 0.99961925E-02</totfact>
</mgrwt>
</event>
<event>
12    1  0.1335216E-007  0.6050379E+03  0.7818608E-02  0.9895009E-01
          2   -1    0    0  501    0  0.00000000000E+00  0.00000000000E+00  0.58434769950E+03  0.58434769950E+03  0.00000000000E+00 0. -1.
         -2   -1    0    0    0  501 -0.00000000000E+00 -0.00000000000E+00 -0.64889157520E+03  0.64889157520E+03  0.00000000000E+00 0.  1.
         23    2    1    2    0    0  0.11130444075E+02 -0.46369536941E+03 -0.45034028893E+02  0.47470580845E+03  0.90444781038E+02 0.  0.
    5000000    2    1    2    0    0 -0.11130444075E+02  0.46369536941E+03 -0.19509846810E+02  0.75853346626E+03  0.59987924027E+03 0.  0.
         23    2    4    4    0    0 -0.21193906786E+03  0.47569254360E+03 -0.68278975609E+02  0.53200031226E+03  0.84621210157E+02 0.  0.
         23    2    4    4    0    0  0.20080862379E+03 -0.11997174192E+02  0.48769128799E+02  0.22653315399E+03  0.92036983646E+02 0.  0.
          2    1    3    3  502    0  0.30008493539E+02 -0.14322791280E+03  0.18354539830E+02  0.14748435110E+03  0.00000000000E+00 0. -1.
         -2    1    3    3    0  502 -0.18878049464E+02 -0.32046745662E+03 -0.63388568723E+02  0.32722145734E+03  0.00000000000E+00 0.  1.
         11    1    5    5    0    0 -0.11147574784E+03  0.17071425390E+03 -0.80905918887E+00  0.20388931658E+03  0.00000000000E+00 0. -1.
        -11    1    5    5    0    0 -0.10046332002E+03  0.30497828971E+03 -0.67469916420E+02  0.32811099568E+03  0.00000000000E+00 0.  1.
          4    1    6    6  503    0  0.12822424398E+03  0.32903306609E+02  0.49077176579E+02  0.14118304994E+03  0.00000000000E+00 0. -1.
         -4    1    6    6    0  503  0.72584379810E+02 -0.44900480801E+02 -0.30804778037E+00  0.85350104054E+02  0.00000000000E+00 0.  1.
<mgrwt>
<rscale>  0 0.60503786E+03</rscale>
<asrwt>0</asrwt>
<pdfrwt beam="1">  1        2 0.89899646E-01 0.60503786E+03</pdfrwt>
<pdfrwt beam="2">  1       -2 0.99829473E-01 0.60503786E+03</pdfrwt>
<totfact> 0.43500766E+01</totfact>
</mgrwt>
</event>
<event>
12    1  0.1335216E-007  0.7612550E+03  0.7818608E-02  0.9617857E-01
          2   -1    0    0  501    0  0.00000000000E+00  0.00000000000E+00  0.18036584601E+04  0.18036584601E+04  0.00000000000E+00 0. -1.
         -2   -1    0    0    0  501 -0.00000000000E+00 -0.00000000000E+00 -0.36663761336E+03  0.36663761336E+03  0.00000000000E+00 0.  1.
         23    2    1    2    0    0 -0.28573777143E+03 -0.61714187653E+03  0.40751800664E+03  0.79830556006E+03  0.93330979310E+02 0.  0.
    5000000    2    1    2    0    0  0.28573777143E+03  0.61714187653E+03  0.10295028401E+04  0.13719905134E+04  0.59997641727E+03 0.  0.
         23    2    4    4    0    0  0.25167930941E+03  0.51115126551E+02  0.12424710743E+03  0.29991501440E+03  0.92501033561E+02 0.  0.
         23    2    4    4    0    0  0.34058462021E+02  0.56602674998E+03  0.90525573264E+03  0.10720754990E+04  0.91168379938E+02 0.  0.
          1    1    3    3  502    0 -0.17976314151E+03 -0.28333635921E+03  0.21717527370E+03  0.39969911059E+03  0.00000000000E+00 0. -1.
         -1    1    3    3    0  502 -0.10597462992E+03 -0.33380551732E+03  0.19034273294E+03  0.39860644947E+03  0.00000000000E+00 0.  1.
         13    1    5    5    0    0  0.14031323394E+03 -0.32652629255E+01  0.10319478070E+03  0.17420570692E+03  0.00000000000E+00 0. -1.
        -13    1    5    5    0    0  0.11136607547E+03  0.54380389476E+02  0.21052326727E+02  0.12570930747E+03  0.00000000000E+00 0.  1.
          4    1    6    6  503    0  0.49515961576E+02  0.19795370457E+03  0.36508431856E+03  0.41823923687E+03  0.00000000000E+00 0. -1.
         -4    1    6    6    0  503 -0.15457499555E+02  0.36807304541E+03  0.54017141408E+03  0.65383626210E+03  0.00000000000E+00 0.  1.
<mgrwt>
<rscale>  0 0.76125496E+03</rscale>
<asrwt>0</asrwt>
<pdfrwt beam="1">  1        2 0.27748591E+00 0.76125496E+03</pdfrwt>
<pdfrwt beam="2">  1       -2 0.56405788E-01 0.76125496E+03</pdfrwt>
<totfact> 0.26033191E+01</totfact>
</mgrwt>
</event>
<event>
12    1  0.1335216E-007  0.5529227E+03  0.7818608E-02  0.1000820E+00
         -2   -1    0    0    0  501 -0.00000000000E+00  0.00000000000E+00  0.39761399174E+03  0.39761399174E+03  0.00000000000E+00 0.  1.
          2   -1    0    0  501    0  0.00000000000E+00 -0.00000000000E+00 -0.11477158780E+04  0.11477158780E+04  0.00000000000E+00 0. -1.
         23    2    1    2    0    0  0.25055495763E+03 -0.46746938412E+03 -0.40523271921E+03  0.67339533038E+03  0.89119595945E+02 0.  0.
    5000000    2    1    2    0    0 -0.25055495763E+03  0.46746938412E+03 -0.34486916701E+03  0.87193453932E+03  0.60002473834E+03 0.  0.
         23    2    4    4    0    0 -0.25927822105E+02  0.24532055170E+03  0.13189569251E+03  0.29367939270E+03  0.89424196669E+02 0.  0.
         23    2    4    4    0    0 -0.22462713553E+03  0.22214883242E+03 -0.47676485952E+03  0.57825514661E+03  0.85245701076E+02 0.  0.
          3    1    3    3  502    0  0.67264675367E+02 -0.18002594705E+03 -0.18988069321E+03  0.27016394248E+03  0.00000000000E+00 0. -1.
         -3    1    3    3    0  502  0.18329028226E+03 -0.28744343707E+03 -0.21535202600E+03  0.40323138790E+03  0.00000000000E+00 0.  1.
         11    1    5    5    0    0 -0.27233918479E+00  0.20004505708E+03  0.68029301149E+02  0.21129620169E+03  0.00000000000E+00 0.  1.
        -11    1    5    5    0    0 -0.25655482920E+02  0.45275494619E+02  0.63866391361E+02  0.82383191018E+02  0.00000000000E+00 0. -1.
          1    1    6    6  503    0 -0.75441869629E+02  0.40547393943E+02 -0.80520854691E+02  0.11755498666E+03  0.00000000000E+00 0. -1.
         -1    1    6    6    0  503 -0.14918526590E+03  0.18160143848E+03 -0.39624400483E+03  0.46070015995E+03  0.00000000000E+00 0.  1.
<mgrwt>
<rscale>  0 0.55292267E+03</rscale>
<asrwt>0</asrwt>
<pdfrwt beam="1">  1        2 0.17657167E+00 0.55292267E+03</pdfrwt>
<pdfrwt beam="2">  1       -2 0.61171384E-01 0.55292267E+03</pdfrwt>
<totfact> 0.52585018E+01</totfact>
</mgrwt>
</event>
<event>
12    1  0.1335216E-007  0.5422415E+03  0.7818608E-02  0.1003306E+00
          1   -1    0    0  501    0  0.00000000000E+00  0.00000000000E+00  0.23009251826E+04  0.23009251826E+04  0.00000000000E+00 0. -1.
         -1   -1    0    0    0  501 -0.00000000000E+00 -0.00000000000E+00 -0.18758415477E+03  0.18758415477E+03  0.00000000000E+00 0.  1.
         23    2    1    2    0    0  0.28724213919E+03 -0.26819572604E+03  0.20888947466E+03  0.45351377222E+03  0.87194810534E+02 0.  0.
    5000000    2    1    2    0    0 -0.28724213919E+03  0.26819572604E+03  0.19044515531E+04  0.20349955651E+04  0.59986184894E+03 0.  0.
         23    2    4    4    0    0 -0.45347241252E+03  0.13438364937E+03  0.13740280263E+04  0.14560178598E+04  0.91317011958E+02 0.  0.
         23    2    4    4    0    0  0.16623027334E+03  0.13381207667E+03  0.53042352679E+03  0.57897770534E+03  0.91257272963E+02 0.  0.
          2    1    3    3  502    0  0.18464245567E+03 -0.14498255227E+03  0.80742286212E+02  0.24825811906E+03  0.00000000000E+00 0. -1.
         -2    1    3    3    0  502  0.10259968352E+03 -0.12321317377E+03  0.12814718844E+03  0.20525565316E+03  0.00000000000E+00 0.  1.
         11    1    5    5    0    0 -0.20926341725E+03  0.77200780536E+02  0.77862023327E+03  0.80993864333E+03  0.00000000000E+00 0. -1.
        -11    1    5    5    0    0 -0.24420899528E+03  0.57182868833E+02  0.59540779307E+03  0.64607921644E+03  0.00000000000E+00 0.  1.
          1    1    6    6  503    0  0.38441373076E+02  0.48428257252E+02  0.26638898427E+03  0.27347052163E+03  0.00000000000E+00 0. -1.
         -1    1    6    6    0  503  0.12778890026E+03  0.85383819419E+02  0.26403454253E+03  0.30550718371E+03  0.00000000000E+00 0.  1.
<mgrwt>
<rscale>  0 0.54224147E+03</rscale>
<asrwt>0</asrwt>
<pdfrwt beam="1">  1        1 0.35398847E+00 0.54224147E+03</pdfrwt>
<pdfrwt beam="2">  1       -1 0.28859102E-01 0.54224147E+03</pdfrwt>
<totfact> 0.21950435E+01</totfact>
</mgrwt>
</event>
<event>
12    1  0.1335216E-007  0.1433920E+04  0.7818608E-02  0.8929625E-01
         -1   -1    0    0    0  501 -0.00000000000E+00  0.00000000000E+00  0.19326161600E+04  0.19326161600E+04  0.00000000000E+00 0.  1.
          1   -1    0    0  501    0  0.00000000000E+00 -0.00000000000E+00 -0.13063752401E+04  0.13063752401E+04  0.00000000000E+00 0. -1.
         23    2    1    2    0    0 -0.13330362468E+04 -0.51879678568E+03 -0.25379964458E+03  0.14556501051E+04  0.91472557161E+02 0.  0.
    5000000    2    1    2    0    0  0.13330362468E+04  0.51879678568E+03  0.88004056438E+03  0.17833412950E+04  0.59974914705E+03 0.  0.
         23    2    4    4    0    0  0.10272322266E+04  0.39254350841E+03  0.35991870811E+03  0.11608087109E+04  0.92945864097E+02 0.  0.
         23    2    4    4    0    0  0.30580402025E+03  0.12625327728E+03  0.52012185627E+03  0.62253258408E+03  0.86971742777E+02 0.  0.
          1    1    3    3  502    0 -0.21511489105E+03 -0.80650436983E+02 -0.70667712604E+01  0.22984527098E+03  0.00000000000E+00 0. -1.
         -1    1    3    3    0  502 -0.11179213558E+04 -0.43814634870E+03 -0.24673287332E+03  0.12258048341E+04  0.00000000000E+00 0.  1.
         11    1    5    5    0    0  0.27940724872E+03  0.14498872821E+03  0.12611596208E+03  0.33910968408E+03  0.00000000000E+00 0.  1.
        -11    1    5    5    0    0  0.74782497784E+03  0.24755478020E+03  0.23380274603E+03  0.82169902685E+03  0.00000000000E+00 0. -1.
          1    1    6    6  503    0  0.17351674707E+03  0.43704096149E+02  0.34063123590E+03  0.38476973426E+03  0.00000000000E+00 0. -1.
         -1    1    6    6    0  503  0.13228727319E+03  0.82549181126E+02  0.17949062037E+03  0.23776284982E+03  0.00000000000E+00 0.  1.
<mgrwt>
<rscale>  0 0.14339200E+04</rscale>
<asrwt>0</asrwt>
<pdfrwt beam="1">  1        1 0.20098081E+00 0.14339200E+04</pdfrwt>
<pdfrwt beam="2">  1       -1 0.29732556E+00 0.14339200E+04</pdfrwt>
<totfact> 0.29371380E-01</totfact>
</mgrwt>
</event>
<event>
12    1  0.1335216E-007  0.2042989E+04  0.7818608E-02  0.8586782E-01
         -2   -1    0    0    0  501 -0.00000000000E+00  0.00000000000E+00  0.13893223161E+04  0.13893223161E+04  0.00000000000E+00 0.  1.
          2   -1    0    0  501    0  0.00000000000E+00 -0.00000000000E+00 -0.30585312225E+04  0.30585312225E+04  0.00000000000E+00 0. -1.
         23    2    1    2    0    0 -0.10446374747E+04  0.17057999341E+04 -0.10947503258E+04  0.22820060155E+04  0.89734665680E+02 0.  0.
    5000000    2    1    2    0    0  0.10446374747E+04 -0.17057999341E+04 -0.57445858056E+03  0.21658475231E+04  0.59989329377E+03 0.  0.
         23    2    4    4    0    0  0.34237445525E+03 -0.10920726732E+04 -0.37320458908E+03  0.12072681454E+04  0.91497095547E+02 0.  0.
         23    2    4    4    0    0  0.70226301940E+03 -0.61372726086E+03 -0.20125399149E+03  0.95857937765E+03  0.92394561605E+02 0.  0.
          3    1    3    3  502    0 -0.40807582269E+03  0.70364162465E+03 -0.49032907569E+03  0.94976840096E+03  0.00000000000E+00 0. -1.
         -3    1    3    3    0  502 -0.63656165196E+03  0.10021583094E+04 -0.60442125015E+03  0.13322376145E+04  0.00000000000E+00 0.  1.
         11    1    5    5    0    0  0.11468266285E+03 -0.23753090041E+03 -0.88110144386E+02  0.27809429939E+03  0.00000000000E+00 0. -1.
        -11    1    5    5    0    0  0.22769179241E+03 -0.85454177278E+03 -0.28509444469E+03  0.92917384603E+03  0.00000000000E+00 0.  1.
          3    1    6    6  503    0  0.58566363286E+03 -0.46258444283E+03 -0.15866653734E+03  0.76299497225E+03  0.00000000000E+00 0. -1.
         -3    1    6    6    0  503  0.11659938654E+03 -0.15114281803E+03 -0.42587454142E+02  0.19558440540E+03  0.00000000000E+00 0.  1.
<mgrwt>
<rscale>  0 0.20429888E+04</rscale>
<asrwt>0</asrwt>
<pdfrwt beam="1">  1        2 0.47054326E+00 0.20429888E+04</pdfrwt>
<pdfrwt beam="2">  1       -2 0.21374190E+00 0.20429888E+04</pdfrwt>
<totfact> 0.15392437E-01</totfact>
</mgrwt>
</event>
<event>
12    1  0.1335216E-007  0.4043883E+03  0.7818608E-02  0.1042271E+00
         -2   -1    0    0    0  501 -0.00000000000E+00  0.00000000000E+00  0.11313382924E+03  0.11313382924E+03  0.00000000000E+00 0. -1.
          2   -1    0    0  501    0  0.00000000000E+00 -0.00000000000E+00 -0.17051303885E+04  0.17051303885E+04  0.00000000000E+00 0.  1.
         23    2    1    2    0    0  0.28478967414E+01  0.22111393814E+03 -0.46121063572E+03  0.51924842823E+03  0.89466169912E+02 0.  0.
    5000000    2    1    2    0    0 -0.28478967414E+01 -0.22111393814E+03 -0.11307859235E+04  0.12990157895E+04  0.59988809987E+03 0.  0.
         23    2    4    4    0    0  0.57306978478E+02  0.15610822087E+03 -0.14625648346E+03  0.23924021497E+03  0.90504447956E+02 0.  0.
         23    2    4    4    0    0 -0.60154875219E+02 -0.37722215901E+03 -0.98452944003E+03  0.10597755745E+04  0.88943148936E+02 0.  0.
          1    1    3    3  502    0  0.32157648029E+02  0.28375227304E+02 -0.99385745655E+02  0.10824414206E+03  0.00000000000E+00 0. -1.
         -1    1    3    3    0  502 -0.29309751287E+02  0.19273871084E+03 -0.36182489007E+03  0.41100428617E+03  0.00000000000E+00 0.  1.
         13    1    5    5    0    0 -0.53970237234E+01  0.11200438353E+03 -0.95593824126E+02  0.14735090432E+03  0.00000000000E+00 0. -1.
        -13    1    5    5    0    0  0.62704002201E+02  0.44103837348E+02 -0.50662659336E+02  0.91889310651E+02  0.00000000000E+00 0.  1.
          2    1    6    6  503    0 -0.55314556297E+02 -0.32300319806E+03 -0.91201136517E+03  0.96910035408E+03  0.00000000000E+00 0. -1.
         -2    1    6    6    0  503 -0.48403189224E+01 -0.54218960953E+02 -0.72518074865E+02  0.90675220409E+02  0.00000000000E+00 0.  1.
<mgrwt>
<rscale>  0 0.40438833E+03</rscale>
<asrwt>0</asrwt>
<pdfrwt beam="1">  1        2 0.26232771E+00 0.40438833E+03</pdfrwt>
<pdfrwt beam="2">  1       -2 0.17405207E-01 0.40438833E+03</pdfrwt>
<totfact> 0.27862770E+02</totfact>
</mgrwt>
</event>
<event>
12    1  0.1335216E-007  0.8013123E+03  0.7818608E-02  0.9558120E-01
          1   -1    0    0  501    0  0.00000000000E+00  0.00000000000E+00  0.13650496683E+04  0.13650496683E+04  0.00000000000E+00 0. -1.
         -1   -1    0    0    0  501 -0.00000000000E+00 -0.00000000000E+00 -0.97428054041E+03  0.97428054041E+03  0.00000000000E+00 0.  1.
         23    2    1    2    0    0  0.75189138338E+03  0.24164768206E+03 -0.55494192211E+03  0.96911707759E+03  0.86562800993E+02 0.  0.
    5000000    2    1    2    0    0 -0.75189138338E+03 -0.24164768206E+03  0.94571104998E+03  0.13702131311E+04  0.59948342761E+03 0.  0.
         23    2    4    4    0    0 -0.16666479253E+03 -0.11513721873E+03  0.66853237632E+03  0.70406288152E+03  0.87950387950E+02 0.  0.
         23    2    4    4    0    0 -0.58522659085E+03 -0.12651046333E+03  0.27717867366E+03  0.66615024959E+03  0.91831791535E+02 0.  0.
          2    1    3    3  502    0  0.11413811893E+03  0.48562854052E+02 -0.12506247110E+03  0.17614335827E+03  0.00000000000E+00 0. -1.
         -2    1    3    3    0  502  0.63775326445E+03  0.19308482801E+03 -0.42987945100E+03  0.79297371931E+03  0.00000000000E+00 0.  1.
         11    1    5    5    0    0 -0.16966206501E+03 -0.10557599898E+03  0.66332417945E+03  0.69277014580E+03  0.00000000000E+00 0.  1.
        -11    1    5    5    0    0  0.29972724771E+01 -0.95612197519E+01  0.52081968642E+01  0.11292735719E+02  0.00000000000E+00 0. -1.
          1    1    6    6  503    0 -0.14991832697E+03 -0.62419098242E+02  0.44329214822E+02  0.16833516529E+03  0.00000000000E+00 0. -1.
         -1    1    6    6    0  503 -0.43530826388E+03 -0.64091365083E+02  0.23284945884E+03  0.49781508430E+03  0.00000000000E+00 0.  1.
<mgrwt>
<rscale>  0 0.80131228E+03</rscale>
<asrwt>0</asrwt>
<pdfrwt beam="1">  1        1 0.21000764E+00 0.80131228E+03</pdfrwt>
<pdfrwt beam="2">  1       -1 0.14988931E+00 0.80131228E+03</pdfrwt>
<totfact> 0.29396405E+00</totfact>
</mgrwt>
</event>
<event>
12    1  0.1335216E-007  0.8060584E+03  0.7818608E-02  0.9551289E-01
          2   -1    0    0  501    0  0.00000000000E+00  0.00000000000E+00  0.10039200623E+04  0.10039200623E+04  0.00000000000E+00 0. -1.
         -2   -1    0    0    0  501 -0.00000000000E+00 -0.00000000000E+00 -0.75746692120E+03  0.75746692120E+03  0.00000000000E+00 0.  1.
         23    2    1    2    0    0 -0.65672865405E+03  0.30939704980E+03  0.35501739538E+03  0.81333428602E+03  0.91957872516E+02 0.  0.
    5000000    2    1    2    0    0  0.65672865405E+03 -0.30939704980E+03 -0.10856425433E+03  0.94805269743E+03  0.59999888358E+03 0.  0.
         23    2    4    4    0    0  0.60209854452E+02 -0.26201533081E+03 -0.18393890855E+03  0.33802880877E+03  0.90292266169E+02 0.  0.
         23    2    4    4    0    0  0.59651879960E+03 -0.47381718995E+02  0.75374654219E+02  0.61002388866E+03  0.91477323207E+02 0.  0.
          3    1    3    3  502    0 -0.54355543045E+03  0.24186678403E+03  0.32595029669E+03  0.67837721299E+03  0.00000000000E+00 0. -1.
         -3    1    3    3    0  502 -0.11317322360E+03  0.67530265776E+02  0.29067098691E+02  0.13495707304E+03  0.00000000000E+00 0.  1.
         11    1    5    5    0    0  0.65507821203E+01 -0.19890496704E+03 -0.14651535791E+03  0.24712921470E+03  0.00000000000E+00 0.  1.
        -11    1    5    5    0    0  0.53659072332E+02 -0.63110363773E+02 -0.37423550641E+02  0.90899594067E+02  0.00000000000E+00 0. -1.
          2    1    6    6  503    0  0.43021202496E+03 -0.69418637412E+02  0.75469137605E+02  0.44226341062E+03  0.00000000000E+00 0. -1.
         -2    1    6    6    0  503  0.16630677464E+03  0.22036918417E+02 -0.94483385907E-01  0.16776047804E+03  0.00000000000E+00 0.  1.
<mgrwt>
<rscale>  0 0.80605840E+03</rscale>
<asrwt>0</asrwt>
<pdfrwt beam="1">  1        2 0.15444924E+00 0.80605840E+03</pdfrwt>
<pdfrwt beam="2">  1       -2 0.11653337E+00 0.80605840E+03</pdfrwt>
<totfact> 0.14449836E+01</totfact>
</mgrwt>
</event>
<event>
12    1  0.1335216E-007  0.7826186E+03  0.7818608E-02  0.9585522E-01
         -1   -1    0    0    0  501 -0.00000000000E+00  0.00000000000E+00  0.42907612134E+03  0.42907612134E+03  0.00000000000E+00 0.  1.
          1   -1    0    0  501    0  0.00000000000E+00 -0.00000000000E+00 -0.18662248992E+04  0.18662248992E+04  0.00000000000E+00 0. -1.
         23    2    1    2    0    0  0.66541547548E+03 -0.14064979582E+03 -0.12031437014E+03  0.69647106162E+03  0.89645256111E+02 0.  0.
    5000000    2    1    2    0    0 -0.66541547548E+03  0.14064979582E+03 -0.13168344078E+04  0.15988299590E+04  0.59970347683E+03 0.  0.
         23    2    4    4    0    0 -0.58709451308E+03  0.31743055509E+03 -0.84548095931E+03  0.10811904235E+04  0.93233871256E+02 0.  0.
         23    2    4    4    0    0 -0.78320962396E+02 -0.17678075926E+03 -0.47135344845E+03  0.51763953544E+03  0.91602430591E+02 0.  0.
          2    1    3    3  502    0  0.32961658911E+03 -0.11061575829E+03 -0.40677322107E+02  0.35005369065E+03  0.00000000000E+00 0. -1.
         -2    1    3    3    0  502  0.33579888636E+03 -0.30034037533E+02 -0.79637048034E+02  0.34641737097E+03  0.00000000000E+00 0.  1.
         13    1    5    5    0    0 -0.35871642171E+03  0.24259557829E+03 -0.52317271792E+03  0.67914636021E+03  0.00000000000E+00 0. -1.
        -13    1    5    5    0    0 -0.22837809137E+03  0.74834976798E+02 -0.32230824139E+03  0.40204406330E+03  0.00000000000E+00 0.  1.
          1    1    6    6  503    0  0.14188386328E+02 -0.34810374996E+02 -0.14651602456E+03  0.15126142260E+03  0.00000000000E+00 0. -1.
         -1    1    6    6    0  503 -0.92509348724E+02 -0.14197038427E+03 -0.32483742389E+03  0.36637811284E+03  0.00000000000E+00 0.  1.
<mgrwt>
<rscale>  0 0.78261858E+03</rscale>
<asrwt>0</asrwt>
<pdfrwt beam="1">  1        1 0.28711153E+00 0.78261858E+03</pdfrwt>
<pdfrwt beam="2">  1       -1 0.66011709E-01 0.78261858E+03</pdfrwt>
<totfact> 0.88781818E+00</totfact>
</mgrwt>
</event>
<event>
12    1  0.1335216E-007  0.1972120E+04  0.7818608E-02  0.8619767E-01
          1   -1    0    0  501    0  0.00000000000E+00  0.00000000000E+00  0.30957878103E+04  0.30957878103E+04  0.00000000000E+00 0. -1.
         -1   -1    0    0    0  501 -0.00000000000E+00 -0.00000000000E+00 -0.19383437703E+04  0.19383437703E+04  0.00000000000E+00 0.  1.
         23    2    1    2    0    0  0.17845427590E+04  0.77163897039E+03  0.20373292499E+04  0.28173323926E+04  0.81435735482E+02 0.  0.
    5000000    2    1    2    0    0 -0.17845427590E+04 -0.77163897039E+03 -0.87988520991E+03  0.22167991880E+04  0.59998424813E+03 0.  0.
         23    2    4    4    0    0 -0.98209915283E+03 -0.18195314220E+03 -0.24535114923E+03  0.10326723940E+04  0.92678988967E+02 0.  0.
         23    2    4    4    0    0 -0.80244360612E+03 -0.58968582819E+03 -0.63453406068E+03  0.11841267939E+04  0.88756256172E+02 0.  0.
          2    1    3    3  502    0  0.90262387840E+03  0.41015845270E+03  0.98600963405E+03  0.13982756597E+04  0.00000000000E+00 0. -1.
         -2    1    3    3    0  502  0.88191888055E+03  0.36148051769E+03  0.10513196159E+04  0.14190567329E+04  0.00000000000E+00 0.  1.
         13    1    5    5    0    0 -0.35319844092E+03 -0.95294022158E+02 -0.55242218485E+02  0.36997539382E+03  0.00000000000E+00 0. -1.
        -13    1    5    5    0    0 -0.62890071191E+03 -0.86659120040E+02 -0.19010893075E+03  0.66269700020E+03  0.00000000000E+00 0.  1.
          4    1    6    6  503    0 -0.12372806756E+03 -0.12874250882E+03 -0.13143813824E+03  0.22171885906E+03  0.00000000000E+00 0. -1.
         -4    1    6    6    0  503 -0.67871553856E+03 -0.46094331937E+03 -0.50309592243E+03  0.96240793489E+03  0.00000000000E+00 0.  1.
<mgrwt>
<rscale>  0 0.19721202E+04</rscale>
<asrwt>0</asrwt>
<pdfrwt beam="1">  1        1 0.47627505E+00 0.19721202E+04</pdfrwt>
<pdfrwt beam="2">  1       -1 0.29820673E+00 0.19721202E+04</pdfrwt>
<totfact> 0.15318230E-02</totfact>
</mgrwt>
</event>
<event>
12    1  0.1335216E-007  0.8526296E+03  0.7818608E-02  0.9486814E-01
         -1   -1    0    0    0  501 -0.00000000000E+00  0.00000000000E+00  0.81504701178E+03  0.81504701178E+03  0.00000000000E+00 0.  1.
          1   -1    0    0  501    0  0.00000000000E+00 -0.00000000000E+00 -0.93712212319E+03  0.93712212319E+03  0.00000000000E+00 0. -1.
         23    2    1    2    0    0  0.69146111820E+03 -0.29526098109E+03  0.10514802781E+03  0.76399632198E+03  0.85654814871E+02 0.  0.
    5000000    2    1    2    0    0 -0.69146111820E+03  0.29526098109E+03 -0.22722313922E+03  0.98817281299E+03  0.59963124369E+03 0.  0.
         23    2    4    4    0    0 -0.14046322461E+02  0.26083683459E+03 -0.86508746761E+02  0.28933637979E+03  0.89435026440E+02 0.  0.
         23    2    4    4    0    0 -0.67741479573E+03  0.34424146507E+02 -0.14071439245E+03  0.69883643320E+03  0.92173709804E+02 0.  0.
          4    1    3    3  502    0  0.20310914829E+03 -0.70780997189E+02  0.66498029802E+02  0.22513387939E+03  0.00000000000E+00 0. -1.
         -4    1    3    3    0  502  0.48835196991E+03 -0.22447998391E+03  0.38649998010E+02  0.53886244259E+03  0.00000000000E+00 0.  1.
         13    1    5    5    0    0  0.26478441028E+02  0.86347430891E+02  0.21028619568E+00  0.90316282480E+02  0.00000000000E+00 0. -1.
        -13    1    5    5    0    0 -0.40524763489E+02  0.17448940370E+03 -0.86719032957E+02  0.19902009731E+03  0.00000000000E+00 0.  1.
          4    1    6    6  503    0 -0.35583231162E+03  0.59147172255E+02 -0.52974024177E+02  0.36458369302E+03  0.00000000000E+00 0. -1.
         -4    1    6    6    0  503 -0.32158248412E+03 -0.24723025748E+02 -0.87740368278E+02  0.33425274018E+03  0.00000000000E+00 0.  1.
<mgrwt>
<rscale>  0 0.85262956E+03</rscale>
<asrwt>0</asrwt>
<pdfrwt beam="1">  1        1 0.14417263E+00 0.85262956E+03</pdfrwt>
<pdfrwt beam="2">  1       -1 0.12539185E+00 0.85262956E+03</pdfrwt>
<totfact> 0.96019384E+00</totfact>
</mgrwt>
</event>
<event>
12    1  0.1335216E-007  0.6918743E+03  0.7818608E-02  0.9731230E-01
          1   -1    0    0  501    0  0.00000000000E+00  0.00000000000E+00  0.12651234368E+04  0.12651234368E+04  0.00000000000E+00 0. -1.
         -1   -1    0    0    0  501 -0.00000000000E+00 -0.00000000000E+00 -0.52297455702E+03  0.52297455702E+03  0.00000000000E+00 0.  1.
         23    2    1    2    0    0 -0.31178913561E+03  0.55376739435E+03  0.64275905799E+03  0.90844525838E+03  0.90899882854E+02 0.  0.
    5000000    2    1    2    0    0  0.31178913561E+03 -0.55376739435E+03  0.99389821745E+02  0.87965273539E+03  0.60003317082E+03 0.  0.
         23    2    4    4    0    0  0.18411275295E+03 -0.56207431200E+03 -0.11917163458E+03  0.61032592816E+03  0.92037069109E+02 0.  0.
         23    2    4    4    0    0  0.12767638266E+03  0.83069176468E+01  0.21856145632E+03  0.26932680723E+03  0.91638176191E+02 0.  0.
          2    1    3    3  502    0 -0.11007482558E+03  0.20274918412E+03  0.17337430796E+03  0.28858681458E+03  0.00000000000E+00 0. -1.
         -2    1    3    3    0  502 -0.20171431003E+03  0.35101821023E+03  0.46938475003E+03  0.61985844380E+03  0.00000000000E+00 0.  1.
         13    1    5    5    0    0  0.95932385995E+02 -0.30867555829E+03 -0.18536638841E+02  0.32377033519E+03  0.00000000000E+00 0.  1.
        -13    1    5    5    0    0  0.88180366957E+02 -0.25339875371E+03 -0.10063499573E+03  0.28655559298E+03  0.00000000000E+00 0. -1.
          4    1    6    6  503    0  0.99694227916E+02  0.45930728048E+02  0.14091953164E+03  0.17862498497E+03  0.00000000000E+00 0. -1.
         -4    1    6    6    0  503  0.27982154740E+02 -0.37623810401E+02  0.77641924679E+02  0.90701822258E+02  0.00000000000E+00 0.  1.
<mgrwt>
<rscale>  0 0.69187432E+03</rscale>
<asrwt>0</asrwt>
<pdfrwt beam="1">  1        1 0.19463437E+00 0.69187432E+03</pdfrwt>
<pdfrwt beam="2">  1       -1 0.80457624E-01 0.69187432E+03</pdfrwt>
<totfact> 0.15382836E+01</totfact>
</mgrwt>
</event>
<event>
12    1  0.1335216E-007  0.1143013E+04  0.7818608E-02  0.9164253E-01
          2   -1    0    0  501    0  0.00000000000E+00  0.00000000000E+00  0.12502931101E+04  0.12502931101E+04  0.00000000000E+00 0. -1.
         -2   -1    0    0    0  501 -0.00000000000E+00 -0.00000000000E+00 -0.13100704062E+04  0.13100704062E+04  0.00000000000E+00 0.  1.
         23    2    1    2    0    0  0.22565247842E+03 -0.10483143635E+04 -0.58410242118E+03  0.12243970391E+04  0.89946790529E+02 0.  0.
    5000000    2    1    2    0    0 -0.22565247842E+03  0.10483143635E+04  0.52432512508E+03  0.13359664772E+04  0.60000628807E+03 0.  0.
         23    2    4    4    0    0 -0.16712894960E+03  0.22393499424E+02  0.13518337816E+03  0.23328765414E+03  0.87835239111E+02 0.  0.
         23    2    4    4    0    0 -0.58523528817E+02  0.10259208641E+04  0.38914174692E+03  0.11026788231E+04  0.92361598610E+02 0.  0.
          3    1    3    3  502    0  0.75282139931E+02 -0.46505658976E+03 -0.29915399544E+03  0.55806643445E+03  0.00000000000E+00 0. -1.
         -3    1    3    3    0  502  0.15037033849E+03 -0.58325777377E+03 -0.28494842574E+03  0.66633060464E+03  0.00000000000E+00 0.  1.
         11    1    5    5    0    0 -0.33868286443E+02  0.35566617807E+02  0.66845681267E+02  0.82948117718E+02  0.00000000000E+00 0.  1.
        -11    1    5    5    0    0 -0.13326066316E+03 -0.13173118383E+02  0.68337696895E+02  0.15033953642E+03  0.00000000000E+00 0. -1.
          4    1    6    6  503    0 -0.62529776175E+02  0.53723751831E+03  0.16871662828E+03  0.56656811122E+03  0.00000000000E+00 0. -1.
         -4    1    6    6    0  503  0.40062473580E+01  0.48868334579E+03  0.22042511864E+03  0.53611071188E+03  0.00000000000E+00 0.  1.
<mgrwt>
<rscale>  0 0.11430134E+04</rscale>
<asrwt>0</asrwt>
<pdfrwt beam="1">  1        2 0.19235279E+00 0.11430134E+04</pdfrwt>
<pdfrwt beam="2">  1       -2 0.20154929E+00 0.11430134E+04</pdfrwt>
<totfact> 0.22432401E+00</totfact>
</mgrwt>
</event>
<event>
12    1  0.1335216E-007  0.2619526E+03  0.7818608E-02  0.1105976E+00
          2   -1    0    0  501    0  0.00000000000E+00  0.00000000000E+00  0.75626725341E+03  0.75626725341E+03  0.00000000000E+00 0. -1.
         -2   -1    0    0    0  501 -0.00000000000E+00 -0.00000000000E+00 -0.26089742532E+03  0.26089742532E+03  0.00000000000E+00 0.  1.
         23    2    1    2    0    0  0.16862092593E+03 -0.11152311934E+03  0.16033585626E+02  0.22304862506E+03  0.92861135394E+02 0.  0.
    5000000    2    1    2    0    0 -0.16862092593E+03  0.11152311934E+03  0.47933624246E+03  0.79411605367E+03  0.59998887535E+03 0.  0.
         23    2    4    4    0    0  0.18772221335E+02  0.10310252238E+03  0.55612138088E+03  0.57198520426E+03  0.83147803331E+02 0.  0.
         23    2    4    4    0    0 -0.18739314727E+03  0.84205969576E+01 -0.76785138425E+02  0.22213084941E+03  0.90879363340E+02 0.  0.
          4    1    3    3  502    0  0.36692470489E+02 -0.43008197552E+02 -0.34270015851E+02  0.66109578986E+02  0.00000000000E+00 0. -1.
         -4    1    3    3    0  502  0.13192845544E+03 -0.68514921785E+02  0.50303601477E+02  0.15693904608E+03  0.00000000000E+00 0.  1.
         11    1    5    5    0    0  0.33371738661E+02  0.31344960286E+02  0.99485080403E+02  0.10951465975E+03  0.00000000000E+00 0.  1.
        -11    1    5    5    0    0 -0.14599517326E+02  0.71757562093E+02  0.45663630048E+03  0.46247054451E+03  0.00000000000E+00 0. -1.
          3    1    6    6  503    0 -0.11156797992E+03  0.38649026040E+02 -0.76151523483E+02  0.14049987860E+03  0.00000000000E+00 0. -1.
         -3    1    6    6    0  503 -0.75825167342E+02 -0.30228429083E+02 -0.63361494195E+00  0.81630970808E+02  0.00000000000E+00 0.  1.
<mgrwt>
<rscale>  0 0.26195260E+03</rscale>
<asrwt>0</asrwt>
<pdfrwt beam="1">  1        2 0.11634881E+00 0.26195260E+03</pdfrwt>
<pdfrwt beam="2">  1       -2 0.40138066E-01 0.26195260E+03</pdfrwt>
<totfact> 0.22789130E+02</totfact>
</mgrwt>
</event>
<event>
12    1  0.1335216E-007  0.4847273E+03  0.7818608E-02  0.1017844E+00
          2   -1    0    0  501    0  0.00000000000E+00  0.00000000000E+00  0.17302714134E+04  0.17302714134E+04  0.00000000000E+00 0. -1.
         -2   -1    0    0    0  501 -0.00000000000E+00 -0.00000000000E+00 -0.27265932601E+03  0.27265932601E+03  0.00000000000E+00 0.  1.
         23    2    1    2    0    0  0.25994209847E+03 -0.36833047887E+03  0.12854351139E+03  0.47661048838E+03  0.86005157357E+02 0.  0.
    5000000    2    1    2    0    0 -0.25994209847E+03  0.36833047887E+03  0.13290685760E+04  0.15263202511E+04  0.59999416063E+03 0.  0.
         23    2    4    4    0    0 -0.18492292695E+03  0.96887237320E+02  0.11670115998E+04  0.11882773538E+04  0.80643472568E+02 0.  0.
         23    2    4    4    0    0 -0.75019171521E+02  0.27144324155E+03  0.16205697620E+03  0.33804289729E+03  0.93280369844E+02 0.  0.
          3    1    3    3  502    0  0.75561493824E+02 -0.13108260083E+03  0.83406780642E+02  0.17276828021E+03  0.00000000000E+00 0. -1.
         -3    1    3    3    0  502  0.18438060464E+03 -0.23724787804E+03  0.45136730750E+02  0.30384220817E+03  0.00000000000E+00 0.  1.
         13    1    5    5    0    0 -0.59030099582E+02 -0.50788435615E+01  0.23924111836E+03  0.24646837530E+03  0.00000000000E+00 0.  1.
        -13    1    5    5    0    0 -0.12589282736E+03  0.10196608088E+03  0.92777048146E+03  0.94180897845E+03  0.00000000000E+00 0. -1.
          3    1    6    6  503    0 -0.96084140067E+02  0.19897650273E+03  0.12663842209E+03  0.25467842578E+03  0.00000000000E+00 0. -1.
         -3    1    6    6    0  503  0.21064968545E+02  0.72466738822E+02  0.35418554111E+02  0.83364471513E+02  0.00000000000E+00 0.  1.
<mgrwt>
<rscale>  0 0.48472728E+03</rscale>
<asrwt>0</asrwt>
<pdfrwt beam="1">  1        2 0.26619560E+00 0.48472728E+03</pdfrwt>
<pdfrwt beam="2">  1       -2 0.41947590E-01 0.48472728E+03</pdfrwt>
<totfact> 0.54017498E+01</totfact>
</mgrwt>
</event>
<event>
12    1  0.1335216E-007  0.4127001E+03  0.7818608E-02  0.1039469E+00
         -2   -1    0    0    0  501 -0.00000000000E+00  0.00000000000E+00  0.10352468974E+03  0.10352468974E+03  0.00000000000E+00 0.  1.
          2   -1    0    0  501    0  0.00000000000E+00 -0.00000000000E+00 -0.21786360843E+04  0.21786360843E+04  0.00000000000E+00 0. -1.
         23    2    1    2    0    0  0.17202467001E+03  0.12416782719E+03 -0.10540784848E+04  0.10791428622E+04  0.91965909469E+02 0.  0.
    5000000    2    1    2    0    0 -0.17202467001E+03 -0.12416782719E+03 -0.10210329098E+04  0.12030179119E+04  0.59977808981E+03 0.  0.
         23    2    4    4    0    0 -0.65395266158E+02  0.22834320953E+03 -0.46651687383E+03  0.53153205084E+03  0.92038933719E+02 0.  0.
         23    2    4    4    0    0 -0.10662940385E+03 -0.35251103672E+03 -0.55451603597E+03  0.67148586105E+03  0.88155355315E+02 0.  0.
          1    1    3    3  502    0  0.18944072374E+02  0.89716687928E+01 -0.31299943197E+03  0.31370051503E+03  0.00000000000E+00 0. -1.
         -1    1    3    3    0  502  0.15308059764E+03  0.11519615840E+03 -0.74107905283E+03  0.76544234716E+03  0.00000000000E+00 0.  1.
         11    1    5    5    0    0  0.62652198668E+01  0.44450474687E+02 -0.16630155369E+03  0.17225360501E+03  0.00000000000E+00 0.  1.
        -11    1    5    5    0    0 -0.71660486025E+02  0.18389273484E+03 -0.30021532015E+03  0.35927844583E+03  0.00000000000E+00 0. -1.
          1    1    6    6  503    0 -0.58230607299E+02 -0.12355813243E+03 -0.14077368920E+03  0.19614955337E+03  0.00000000000E+00 0. -1.
         -1    1    6    6    0  503 -0.48398796555E+02 -0.22895290429E+03 -0.41374234677E+03  0.47533630768E+03  0.00000000000E+00 0.  1.
<mgrwt>
<rscale>  0 0.41270005E+03</rscale>
<asrwt>0</asrwt>
<pdfrwt beam="1">  1        2 0.33517479E+00 0.41270005E+03</pdfrwt>
<pdfrwt beam="2">  1       -2 0.15926875E-01 0.41270005E+03</pdfrwt>
<totfact> 0.18044268E+02</totfact>
</mgrwt>
</event>
<event>
12    1  0.1335216E-007  0.8777674E+03  0.7818608E-02  0.9453808E-01
          1   -1    0    0  501    0  0.00000000000E+00  0.00000000000E+00  0.16354682551E+04  0.16354682551E+04  0.00000000000E+00 0. -1.
         -1   -1    0    0    0  501 -0.00000000000E+00 -0.00000000000E+00 -0.59503016262E+03  0.59503016262E+03  0.00000000000E+00 0.  1.
         23    2    1    2    0    0  0.77588592868E+03  0.11813832904E+03 -0.79148682010E+01  0.79002615418E+03  0.90127909324E+02 0.  0.
    5000000    2    1    2    0    0 -0.77588592868E+03 -0.11813832904E+03  0.10483529607E+04  0.14404722635E+04  0.59996730973E+03 0.  0.
         23    2    4    4    0    0 -0.30509125934E+02 -0.20706834448E+03  0.21470399572E+03  0.31480329689E+03  0.95891625829E+02 0.  0.
         23    2    4    4    0    0 -0.74537680275E+03  0.88930015435E+02  0.83364896497E+03  0.11256689667E+04  0.93085444560E+02 0.  0.
          2    1    3    3  502    0  0.51447055251E+03  0.56144443343E+02 -0.41905408310E+02  0.51921884708E+03  0.00000000000E+00 0. -1.
         -2    1    3    3    0  502  0.26141537617E+03  0.61993885697E+02  0.33990540109E+02  0.27080730710E+03  0.00000000000E+00 0.  1.
         11    1    5    5    0    0  0.13462982248E+02 -0.12365500882E+03  0.71883634848E+02  0.14366304346E+03  0.00000000000E+00 0. -1.
        -11    1    5    5    0    0 -0.43972108182E+02 -0.83413335652E+02  0.14282036087E+03  0.17114025342E+03  0.00000000000E+00 0.  1.
          1    1    6    6  503    0 -0.58430416875E+03  0.70292674690E+02  0.59278706587E+03  0.83531366994E+03  0.00000000000E+00 0. -1.
         -1    1    6    6    0  503 -0.16107263400E+03  0.18637340745E+02  0.24086189910E+03  0.29035529672E+03  0.00000000000E+00 0.  1.
<mgrwt>
<rscale>  0 0.87776736E+03</rscale>
<asrwt>0</asrwt>
<pdfrwt beam="1">  1        1 0.25161050E+00 0.87776736E+03</pdfrwt>
<pdfrwt beam="2">  1       -1 0.91543103E-01 0.87776736E+03</pdfrwt>
<totfact> 0.62779047E+00</totfact>
</mgrwt>
</event>
<event>
12    1  0.1335216E-007  0.1336709E+04  0.7818608E-02  0.9000951E-01
         -2   -1    0    0    0  501 -0.00000000000E+00  0.00000000000E+00  0.23243560571E+04  0.23243560571E+04  0.00000000000E+00 0.  1.
          2   -1    0    0  501    0  0.00000000000E+00 -0.00000000000E+00 -0.88820191386E+03  0.88820191386E+03  0.00000000000E+00 0. -1.
         23    2    1    2    0    0  0.24039111118E+03  0.12672144939E+04  0.16288214785E+03  0.13033675752E+04  0.92822314663E+02 0.  0.
    5000000    2    1    2    0    0 -0.24039111118E+03 -0.12672144939E+04  0.12732719954E+04  0.19091903957E+04  0.60013826155E+03 0.  0.
         23    2    4    4    0    0 -0.39446407564E+03 -0.89317158305E+03  0.71471456356E+03  0.12134058870E+04  0.90440895734E+02 0.  0.
         23    2    4    4    0    0  0.15407296446E+03 -0.37404291087E+03  0.55855743185E+03  0.69578450870E+03  0.92103747580E+02 0.  0.
          1    1    3    3  502    0  0.95321364202E+02  0.65348180023E+03  0.46130573744E+02  0.66200653738E+03  0.00000000000E+00 0. -1.
         -1    1    3    3    0  502  0.14506974698E+03  0.61373269370E+03  0.11675157410E+03  0.64136103784E+03  0.00000000000E+00 0.  1.
         13    1    5    5    0    0 -0.22620344479E+03 -0.49020489962E+03  0.34025959836E+03  0.63815784593E+03  0.00000000000E+00 0.  1.
        -13    1    5    5    0    0 -0.16826063085E+03 -0.40296668343E+03  0.37445496519E+03  0.57524804112E+03  0.00000000000E+00 0. -1.
          2    1    6    6  503    0  0.47257710078E+02 -0.79331432191E+02  0.19490410963E+03  0.21567192503E+03  0.00000000000E+00 0. -1.
         -2    1    6    6    0  503  0.10681525438E+03 -0.29471147868E+03  0.36365332222E+03  0.48011258367E+03  0.00000000000E+00 0.  1.
<mgrwt>
<rscale>  0 0.13367089E+04</rscale>
<asrwt>0</asrwt>
<pdfrwt beam="1">  1        2 0.13664645E+00 0.13367089E+04</pdfrwt>
<pdfrwt beam="2">  1       -2 0.35759324E+00 0.13367089E+04</pdfrwt>
<totfact> 0.40296927E-01</totfact>
</mgrwt>
</event>
<event>
12    1  0.1335216E-007  0.7688122E+03  0.7818608E-02  0.9606291E-01
          1   -1    0    0  501    0  0.00000000000E+00  0.00000000000E+00  0.14615880126E+04  0.14615880126E+04  0.00000000000E+00 0. -1.
         -1   -1    0    0    0  501 -0.00000000000E+00 -0.00000000000E+00 -0.62936519438E+03  0.62936519438E+03  0.00000000000E+00 0.  1.
         23    2    1    2    0    0  0.62346043297E+03  0.19762823830E+03 -0.23646471974E+03  0.70174281686E+03  0.93635384700E+02 0.  0.
    5000000    2    1    2    0    0 -0.62346043297E+03 -0.19762823830E+03  0.10686875379E+04  0.13892103901E+04  0.60004385020E+03 0.  0.
         23    2    4    4    0    0  0.97455718874E+02 -0.57870566273E+02  0.21126404530E+03  0.25680744557E+03  0.92037751382E+02 0.  0.
         23    2    4    4    0    0 -0.72091615185E+03 -0.13975767203E+03  0.85742349264E+03  0.11324029445E+04  0.88932998258E+02 0.  0.
          3    1    3    3  502    0  0.22928700586E+03  0.33703235143E+02 -0.10981039947E+03  0.25645031282E+03  0.00000000000E+00 0. -1.
         -3    1    3    3    0  502  0.39417342711E+03  0.16392500316E+03 -0.12665432027E+03  0.44529250403E+03  0.00000000000E+00 0.  1.
         11    1    5    5    0    0  0.44987769431E+02 -0.75017009177E+02  0.10183921842E+03  0.13424856600E+03  0.00000000000E+00 0. -1.
        -11    1    5    5    0    0  0.52467949443E+02  0.17146442904E+02  0.10942482688E+03  0.12255887957E+03  0.00000000000E+00 0.  1.
          1    1    6    6  503    0 -0.38796658608E+03 -0.10247144256E+03  0.41290627382E+03  0.57576910252E+03  0.00000000000E+00 0. -1.
         -1    1    6    6    0  503 -0.33294956577E+03 -0.37286229467E+02  0.44451721882E+03  0.55663384201E+03  0.00000000000E+00 0.  1.
<mgrwt>
<rscale>  0 0.76881224E+03</rscale>
<asrwt>0</asrwt>
<pdfrwt beam="1">  1        1 0.22485969E+00 0.76881224E+03</pdfrwt>
<pdfrwt beam="2">  1       -1 0.96825414E-01 0.76881224E+03</pdfrwt>
<totfact> 0.73957968E+00</totfact>
</mgrwt>
</event>
<event>
12    1  0.1335216E-007  0.1387370E+04  0.7818608E-02  0.8963012E-01
          2   -1    0    0  501    0  0.00000000000E+00  0.00000000000E+00  0.26416470517E+04  0.26416470517E+04  0.00000000000E+00 0. -1.
         -2   -1    0    0    0  501 -0.00000000000E+00 -0.00000000000E+00 -0.82717386846E+03  0.82717386846E+03  0.00000000000E+00 0.  1.
         23    2    1    2    0    0 -0.13452424813E+04  0.32274251835E+03  0.51842580034E+03  0.14805491372E+04  0.97058593922E+02 0.  0.
    5000000    2    1    2    0    0  0.13452424813E+04 -0.32274251835E+03  0.12960473829E+04  0.19882717829E+04  0.59970475855E+03 0.  0.
         23    2    4    4    0    0  0.86174487714E+03 -0.24207463422E+03  0.44873051512E+03  0.10049408350E+04  0.85689234680E+02 0.  0.
         23    2    4    4    0    0  0.48349760417E+03 -0.80667884127E+02  0.84731686778E+03  0.98333094788E+03  0.93362936334E+02 0.  0.
          1    1    3    3  502    0 -0.12511121650E+04  0.32021778142E+03  0.46719461021E+03  0.13733506037E+04  0.00000000000E+00 0. -1.
         -1    1    3    3    0  502 -0.94130316288E+02  0.25247369319E+01  0.51231190132E+02  0.10719853349E+03  0.00000000000E+00 0.  1.
         13    1    5    5    0    0  0.59837538678E+03 -0.14477528799E+03  0.34433147679E+03  0.70539148947E+03  0.00000000000E+00 0.  1.
        -13    1    5    5    0    0  0.26336949036E+03 -0.97299346231E+02  0.10439903833E+03  0.29954934557E+03  0.00000000000E+00 0. -1.
          3    1    6    6  503    0  0.16365943362E+03 -0.34393694048E+01  0.35834069222E+03  0.39395975832E+03  0.00000000000E+00 0. -1.
         -3    1    6    6    0  503  0.31983817055E+03 -0.77228514722E+02  0.48897617555E+03  0.58937118956E+03  0.00000000000E+00 0.  1.
<mgrwt>
<rscale>  0 0.13873697E+04</rscale>
<asrwt>0</asrwt>
<pdfrwt beam="1">  1        2 0.40640723E+00 0.13873697E+04</pdfrwt>
<pdfrwt beam="2">  1       -2 0.12725752E+00 0.13873697E+04</pdfrwt>
<totfact> 0.12659193E+00</totfact>
</mgrwt>
</event>
<event>
12    1  0.1335216E-007  0.6098201E+03  0.7818608E-02  0.9885239E-01
          1   -1    0    0  501    0  0.00000000000E+00  0.00000000000E+00  0.53345371450E+03  0.53345371450E+03  0.00000000000E+00 0. -1.
         -1   -1    0    0    0  501 -0.00000000000E+00 -0.00000000000E+00 -0.89413033247E+03  0.89413033247E+03  0.00000000000E+00 0.  1.
         23    2    1    2    0    0  0.54971074305E+03  0.16792794587E+02 -0.23034575173E+03  0.60326222483E+03  0.91663774658E+02 0.  0.
    5000000    2    1    2    0    0 -0.54971074305E+03 -0.16792794587E+02 -0.13033086624E+03  0.82432182215E+03  0.60004702549E+03 0.  0.
         23    2    4    4    0    0 -0.27702465771E+03 -0.18643215658E+03 -0.29261320021E+03  0.45347591872E+03  0.92294712353E+02 0.  0.
         23    2    4    4    0    0 -0.27268608534E+03  0.16963936200E+03  0.16228233397E+03  0.37084590343E+03  0.89754743020E+02 0.  0.
          3    1    3    3  502    0  0.22793069250E+03  0.52156152639E+02 -0.98745540801E+02  0.25381754602E+03  0.00000000000E+00 0. -1.
         -3    1    3    3    0  502  0.32178005056E+03 -0.35363358053E+02 -0.13160021093E+03  0.34944467881E+03  0.00000000000E+00 0.  1.
         13    1    5    5    0    0 -0.22094218522E+03 -0.16320868683E+03 -0.27846930038E+03  0.39114917349E+03  0.00000000000E+00 0. -1.
        -13    1    5    5    0    0 -0.56082472494E+02 -0.23223469757E+02 -0.14143899832E+02  0.62326745231E+02  0.00000000000E+00 0.  1.
          1    1    6    6  503    0 -0.23972069425E+02  0.38997813749E+02  0.51371042347E+02  0.68807511084E+02  0.00000000000E+00 0. -1.
         -1    1    6    6    0  503 -0.24871401592E+03  0.13064154825E+03  0.11091129163E+03  0.30203839235E+03  0.00000000000E+00 0.  1.
<mgrwt>
<rscale>  0 0.60982011E+03</rscale>
<asrwt>0</asrwt>
<pdfrwt beam="1">  1        1 0.82069803E-01 0.60982011E+03</pdfrwt>
<pdfrwt beam="2">  1       -1 0.13755851E+00 0.60982011E+03</pdfrwt>
<totfact> 0.18561189E+01</totfact>
</mgrwt>
</event>
<event>
12    1  0.1335216E-007  0.7595854E+03  0.7818608E-02  0.9620431E-01
          2   -1    0    0  501    0  0.00000000000E+00  0.00000000000E+00  0.18829366376E+04  0.18829366376E+04  0.00000000000E+00 0.  1.
         -2   -1    0    0    0  501 -0.00000000000E+00 -0.00000000000E+00 -0.72170572407E+03  0.72170572407E+03  0.00000000000E+00 0. -1.
         23    2    1    2    0    0  0.63189136330E+03  0.11489696306E+03  0.15220731712E+04  0.16545516195E+04  0.91358173992E+02 0.  0.
    5000000    2    1    2    0    0 -0.63189136330E+03 -0.11489696306E+03 -0.36084225763E+03  0.95009074222E+03  0.59998106339E+03 0.  0.
         23    2    4    4    0    0 -0.23580742953E+03  0.23279066818E+03 -0.15974188580E+03  0.37924071332E+03  0.92246460895E+02 0.  0.
         23    2    4    4    0    0 -0.39608393377E+03 -0.34768763125E+03 -0.20110037183E+03  0.57085002890E+03  0.87516995088E+02 0.  0.
          1    1    3    3  502    0  0.83672737780E+02  0.47915065175E+02  0.22735010878E+03  0.24695151848E+03  0.00000000000E+00 0. -1.
         -1    1    3    3    0  502  0.54821862552E+03  0.66981897889E+02  0.12947230624E+04  0.14076001010E+04  0.00000000000E+00 0.  1.
         13    1    5    5    0    0 -0.18119001030E+03  0.14103421612E+03 -0.14470958292E+03  0.27140621463E+03  0.00000000000E+00 0.  1.
        -13    1    5    5    0    0 -0.54617419225E+02  0.91756452067E+02 -0.15032302879E+02  0.10783449869E+03  0.00000000000E+00 0. -1.
          1    1    6    6  503    0 -0.88852946480E+02 -0.13026047048E+03 -0.66372780298E+02  0.17107887722E+03  0.00000000000E+00 0. -1.
         -1    1    6    6    0  503 -0.30723098729E+03 -0.21742716077E+03 -0.13472759153E+03  0.39977115167E+03  0.00000000000E+00 0.  1.
<mgrwt>
<rscale>  0 0.75958543E+03</rscale>
<asrwt>0</asrwt>
<pdfrwt beam="1">  1        2 0.28968256E+00 0.75958543E+03</pdfrwt>
<pdfrwt beam="2">  1       -2 0.11103165E+00 0.75958543E+03</pdfrwt>
<totfact> 0.51430056E+00</totfact>
</mgrwt>
</event>
<event>
12    1  0.1335216E-007  0.6231857E+03  0.7818608E-02  0.9858437E-01
          1   -1    0    0  501    0  0.00000000000E+00  0.00000000000E+00  0.10162898888E+04  0.10162898888E+04  0.00000000000E+00 0. -1.
         -1   -1    0    0    0  501 -0.00000000000E+00 -0.00000000000E+00 -0.43445015404E+03  0.43445015404E+03  0.00000000000E+00 0.  1.
         23    2    1    2    0    0 -0.47948696565E+03  0.17145659144E+03  0.37398523782E+03  0.63703535620E+03  0.81510575778E+02 0.  0.
    5000000    2    1    2    0    0  0.47948696565E+03 -0.17145659144E+03  0.20785449697E+03  0.81370468668E+03  0.59967217064E+03 0.  0.
         23    2    4    4    0    0  0.35830434489E+03  0.14427428686E+03  0.23835096555E+03  0.46200745390E+03  0.86270686017E+02 0.  0.
         23    2    4    4    0    0  0.12118262076E+03 -0.31573087830E+03 -0.30496468575E+02  0.35169723279E+03  0.91595272085E+02 0.  0.
          3    1    3    3  502    0 -0.41618090982E+03  0.15086986284E+03  0.35602360376E+03  0.56808544396E+03  0.00000000000E+00 0. -1.
         -3    1    3    3    0  502 -0.63306055824E+02  0.20586728608E+02  0.17961634066E+02  0.68949912234E+02  0.00000000000E+00 0.  1.
         11    1    5    5    0    0  0.33646853446E+02  0.35820207663E+02  0.54789938525E+02  0.73601191481E+02  0.00000000000E+00 0.  1.
        -11    1    5    5    0    0  0.32465749144E+03  0.10845407919E+03  0.18356102702E+03  0.38840626242E+03  0.00000000000E+00 0. -1.
          4    1    6    6  503    0  0.38203144304E+02 -0.19796270106E+03 -0.46010291029E+02  0.20679859314E+03  0.00000000000E+00 0. -1.
         -4    1    6    6    0  503  0.82979476456E+02 -0.11776817724E+03  0.15513822454E+02  0.14489863964E+03  0.00000000000E+00 0.  1.
<mgrwt>
<rscale>  0 0.62318569E+03</rscale>
<asrwt>0</asrwt>
<pdfrwt beam="1">  1        1 0.15635229E+00 0.62318569E+03</pdfrwt>
<pdfrwt beam="2">  1       -1 0.66838486E-01 0.62318569E+03</pdfrwt>
<totfact> 0.34723615E+01</totfact>
</mgrwt>
</event>
<event>
12    1  0.1335216E-007  0.9747692E+03  0.7818608E-02  0.9336659E-01
         -2   -1    0    0    0  501 -0.00000000000E+00  0.00000000000E+00  0.10700708876E+04  0.10700708876E+04  0.00000000000E+00 0.  1.
          2   -1    0    0  501    0  0.00000000000E+00 -0.00000000000E+00 -0.14565148451E+04  0.14565148451E+04  0.00000000000E+00 0. -1.
         23    2    1    2    0    0 -0.21027820232E+03 -0.85709821098E+03  0.60158024393E+03  0.10722736663E+04  0.95067134180E+02 0.  0.
    5000000    2    1    2    0    0  0.21027820232E+03  0.85709821098E+03 -0.98802420143E+03  0.14543120664E+04  0.59999791511E+03 0.  0.
         23    2    4    4    0    0 -0.19528531999E+03  0.32155603615E+03 -0.40409817389E+03  0.55943160507E+03  0.90187283048E+02 0.  0.
         23    2    4    4    0    0  0.40556352231E+03  0.53554217483E+03 -0.58392602753E+03  0.89488046130E+03  0.92489149249E+02 0.  0.
          3    1    3    3  502    0 -0.16501014606E+03 -0.51096126678E+03  0.39570783881E+03  0.66700409155E+03  0.00000000000E+00 0. -1.
         -3    1    3    3    0  502 -0.45268056258E+02 -0.34613694420E+03  0.20587240512E+03  0.40526957479E+03  0.00000000000E+00 0.  1.
         13    1    5    5    0    0 -0.16991951406E+03  0.20518650861E+03 -0.30036704066E+03  0.40149035317E+03  0.00000000000E+00 0. -1.
        -13    1    5    5    0    0 -0.25365805928E+02  0.11636952755E+03 -0.10373113323E+03  0.15794125190E+03  0.00000000000E+00 0.  1.
          1    1    6    6  503    0  0.32540553983E+03  0.36151548042E+03 -0.41132232166E+03  0.63699941933E+03  0.00000000000E+00 0. -1.
         -1    1    6    6    0  503  0.80157982480E+02  0.17402669441E+03 -0.17260370587E+03  0.25788104196E+03  0.00000000000E+00 0.  1.
<mgrwt>
<rscale>  0 0.97476917E+03</rscale>
<asrwt>0</asrwt>
<pdfrwt beam="1">  1        2 0.22407921E+00 0.97476917E+03</pdfrwt>
<pdfrwt beam="2">  1       -2 0.16462629E+00 0.97476917E+03</pdfrwt>
<totfact> 0.31152820E+00</totfact>
</mgrwt>
</event>
<event>
12    1  0.1335216E-007  0.6486422E+03  0.7818608E-02  0.9809330E-01
          1   -1    0    0  501    0  0.00000000000E+00  0.00000000000E+00  0.13721433358E+04  0.13721433358E+04  0.00000000000E+00 0. -1.
         -1   -1    0    0    0  501 -0.00000000000E+00 -0.00000000000E+00 -0.33926478479E+03  0.33926478479E+03  0.00000000000E+00 0.  1.
         23    2    1    2    0    0 -0.35208702647E+03  0.39424821355E+03  0.24684363969E+03  0.59019847410E+03  0.89473617731E+02 0.  0.
    5000000    2    1    2    0    0  0.35208702647E+03 -0.39424821355E+03  0.78603491133E+03  0.11212096465E+04  0.59988604044E+03 0.  0.
         23    2    4    4    0    0 -0.20124696729E+02  0.10755913421E+03  0.54376084508E+02  0.15475231235E+03  0.94960775279E+02 0.  0.
         23    2    4    4    0    0  0.37221172320E+03 -0.50180734776E+03  0.73165882682E+03  0.96645733417E+03  0.91449214026E+02 0.  0.
          1    1    3    3  502    0 -0.88405966865E-01  0.83424238442E+01 -0.56176909983E+01  0.10057947274E+02  0.00000000000E+00 0. -1.
         -1    1    3    3    0  502 -0.35199862050E+03  0.38590578971E+03  0.25246133069E+03  0.58014052682E+03  0.00000000000E+00 0.  1.
         13    1    5    5    0    0 -0.46596324985E+02  0.31971709838E+02  0.48463873433E+02  0.74445649706E+02  0.00000000000E+00 0. -1.
        -13    1    5    5    0    0  0.26471628256E+02  0.75587424368E+02  0.59122110756E+01  0.80306662644E+02  0.00000000000E+00 0.  1.
          1    1    6    6  503    0  0.20427375474E+03 -0.34099306348E+03  0.42988564937E+03  0.58549612104E+03  0.00000000000E+00 0. -1.
         -1    1    6    6    0  503  0.16793796846E+03 -0.16081428428E+03  0.30177317745E+03  0.38096121313E+03  0.00000000000E+00 0.  1.
<mgrwt>
<rscale>  0 0.64864219E+03</rscale>
<asrwt>0</asrwt>
<pdfrwt beam="1">  1        1 0.21109897E+00 0.64864219E+03</pdfrwt>
<pdfrwt beam="2">  1       -1 0.52194583E-01 0.64864219E+03</pdfrwt>
<totfact> 0.31020252E+01</totfact>
</mgrwt>
</event>
<event>
12    1  0.1335216E-007  0.4830695E+03  0.7818608E-02  0.1018295E+00
         -1   -1    0    0    0  501 -0.00000000000E+00  0.00000000000E+00  0.39310032669E+03  0.39310032669E+03  0.00000000000E+00 0. -1.
          1   -1    0    0  501    0  0.00000000000E+00 -0.00000000000E+00 -0.13394474293E+04  0.13394474293E+04  0.00000000000E+00 0.  1.
         23    2    1    2    0    0  0.31965384432E+03 -0.34072987451E+03 -0.83995146534E+03  0.96531689783E+03  0.89681779376E+02 0.  0.
    5000000    2    1    2    0    0 -0.31965384432E+03  0.34072987451E+03 -0.10639563732E+03  0.76723085820E+03  0.59920591667E+03 0.  0.
         23    2    4    4    0    0 -0.25825476924E+03  0.27668757972E+03 -0.32980073720E+03  0.50922174955E+03  0.85362294710E+02 0.  0.
         23    2    4    4    0    0 -0.61399075081E+02  0.64042294789E+02  0.22340509988E+03  0.25800910865E+03  0.93742197271E+02 0.  0.
          3    1    3    3  502    0  0.12890261468E+03 -0.17627311397E+03 -0.31778740751E+03  0.38558647688E+03  0.00000000000E+00 0. -1.
         -3    1    3    3    0  502  0.19075122964E+03 -0.16445676054E+03 -0.52216405782E+03  0.57973042095E+03  0.00000000000E+00 0.  1.
         11    1    5    5    0    0 -0.11729754068E+03  0.13972156855E+03 -0.21358941961E+03  0.28089369865E+03  0.00000000000E+00 0. -1.
        -11    1    5    5    0    0 -0.14095722855E+03  0.13696601116E+03 -0.11621131759E+03  0.22832805091E+03  0.00000000000E+00 0.  1.
          3    1    6    6  503    0  0.18197103981E+02  0.10575262084E+02  0.97515826918E+02  0.99761251300E+02  0.00000000000E+00 0. -1.
         -3    1    6    6    0  503 -0.79596179063E+02  0.53467032705E+02  0.12588927296E+03  0.15824785735E+03  0.00000000000E+00 0.  1.
<mgrwt>
<rscale>  0 0.48306946E+03</rscale>
<asrwt>0</asrwt>
<pdfrwt beam="1">  1        1 0.20606884E+00 0.48306946E+03</pdfrwt>
<pdfrwt beam="2">  1       -1 0.60476973E-01 0.48306946E+03</pdfrwt>
<totfact> 0.25269744E+01</totfact>
</mgrwt>
</event>
<event>
12    1  0.1335216E-007  0.6019979E+03  0.7818608E-02  0.9901270E-01
         -1   -1    0    0    0  501 -0.00000000000E+00  0.00000000000E+00  0.74229412054E+03  0.74229412054E+03  0.00000000000E+00 0.  1.
          1   -1    0    0  501    0  0.00000000000E+00 -0.00000000000E+00 -0.68374476019E+03  0.68374476019E+03  0.00000000000E+00 0. -1.
         23    2    1    2    0    0 -0.36741784419E+02 -0.48629081688E+03  0.34187279010E+03  0.60257865401E+03  0.91625937091E+02 0.  0.
    5000000    2    1    2    0    0  0.36741784419E+02  0.48629081688E+03 -0.28332342976E+03  0.82346022672E+03  0.59998821808E+03 0.  0.
         23    2    4    4    0    0  0.20434910553E+03  0.49735612978E+03 -0.92233755313E+02  0.55273134324E+03  0.88787360687E+02 0.  0.
         23    2    4    4    0    0 -0.16760732111E+03 -0.11065312902E+02 -0.19108967445E+03  0.27072888348E+03  0.92543013955E+02 0.  0.
          4    1    3    3  502    0 -0.55252559566E+02 -0.34460519653E+03  0.20526507923E+03  0.40489423256E+03  0.00000000000E+00 0. -1.
         -4    1    3    3    0  502  0.18510775147E+02 -0.14168562036E+03  0.13660771088E+03  0.19768442145E+03  0.00000000000E+00 0.  1.
         13    1    5    5    0    0  0.51506138966E+02  0.23423929300E+03 -0.56063457474E+02  0.24630071052E+03  0.00000000000E+00 0.  1.
        -13    1    5    5    0    0  0.15284296656E+03  0.26311683678E+03 -0.36170297840E+02  0.30643063272E+03  0.00000000000E+00 0. -1.
          4    1    6    6  503    0 -0.48094247299E+02 -0.26621253058E+01 -0.36959347596E+01  0.48309455266E+02  0.00000000000E+00 0.  1.
         -4    1    6    6    0  503 -0.11951307381E+03 -0.84031875961E+01 -0.18739373969E+03  0.22241942821E+03  0.00000000000E+00 0. -1.
<mgrwt>
<rscale>  0 0.60199795E+03</rscale>
<asrwt>0</asrwt>
<pdfrwt beam="1">  1        1 0.10519150E+00 0.60199795E+03</pdfrwt>
<pdfrwt beam="2">  1       -1 0.11419910E+00 0.60199795E+03</pdfrwt>
<totfact> 0.20612224E+01</totfact>
</mgrwt>
</event>
<event>
12    1  0.1335216E-007  0.6709880E+03  0.7818608E-02  0.9768175E-01
          1   -1    0    0  501    0  0.00000000000E+00  0.00000000000E+00  0.14039863206E+04  0.14039863206E+04  0.00000000000E+00 0. -1.
         -1   -1    0    0    0  501 -0.00000000000E+00 -0.00000000000E+00 -0.77948714398E+03  0.77948714398E+03  0.00000000000E+00 0.  1.
         23    2    1    2    0    0  0.64531368835E+03  0.10052032453E+02  0.10256038777E+04  0.12152315441E+04  0.91616549079E+02 0.  0.
    5000000    2    1    2    0    0 -0.64531368835E+03 -0.10052032453E+02 -0.40110470104E+03  0.96824192054E+03  0.60006385974E+03 0.  0.
         23    2    4    4    0    0 -0.19632732419E+03  0.82359233544E+02  0.12525615582E+03  0.26442575343E+03  0.94363196905E+02 0.  0.
         23    2    4    4    0    0 -0.44898636416E+03 -0.92411265997E+02 -0.52636085686E+03  0.70381616711E+03  0.90403806166E+02 0.  0.
          2    1    3    3  502    0  0.39790890580E+03  0.34624239672E+02  0.56676109345E+03  0.69336027601E+03  0.00000000000E+00 0. -1.
         -2    1    3    3    0  502  0.24740478255E+03 -0.24572207218E+02  0.45884278425E+03  0.52187126809E+03  0.00000000000E+00 0.  1.
         13    1    5    5    0    0 -0.20098580748E+02  0.47631077088E+02  0.15684393303E+02  0.54024741053E+02  0.00000000000E+00 0. -1.
        -13    1    5    5    0    0 -0.17622874344E+03  0.34728156456E+02  0.10957176252E+03  0.21040101237E+03  0.00000000000E+00 0.  1.
          2    1    6    6  503    0 -0.15866217749E+03 -0.24438317150E+01 -0.22898962235E+03  0.27859631373E+03  0.00000000000E+00 0. -1.
         -2    1    6    6    0  503 -0.29032418667E+03 -0.89967434282E+02 -0.29737123451E+03  0.42521985338E+03  0.00000000000E+00 0.  1.
<mgrwt>
<rscale>  0 0.67098796E+03</rscale>
<asrwt>0</asrwt>
<pdfrwt beam="1">  1        1 0.21599790E+00 0.67098796E+03</pdfrwt>
<pdfrwt beam="2">  1       -1 0.11992110E+00 0.67098796E+03</pdfrwt>
<totfact> 0.49946307E+00</totfact>
</mgrwt>
</event>
<event>
12    1  0.1335216E-007  0.6477141E+03  0.7818608E-02  0.9811078E-01
         -1   -1    0    0    0  501 -0.00000000000E+00  0.00000000000E+00  0.25613711830E+03  0.25613711830E+03  0.00000000000E+00 0.  1.
          1   -1    0    0  501    0  0.00000000000E+00 -0.00000000000E+00 -0.19931885073E+04  0.19931885073E+04  0.00000000000E+00 0. -1.
         23    2    1    2    0    0 -0.50389734764E+03  0.14744642949E+03 -0.11244298066E+04  0.12443250736E+04  0.91375666484E+02 0.  0.
    5000000    2    1    2    0    0  0.50389734764E+03 -0.14744642949E+03 -0.61262158240E+03  0.10050005519E+04  0.59922276296E+03 0.  0.
         23    2    4    4    0    0 -0.42862759512E+02  0.13904215313E+03 -0.11622914853E+03  0.20757293582E+03  0.91691723818E+02 0.  0.
         23    2    4    4    0    0  0.54676010715E+03 -0.28648858261E+03 -0.49639243387E+03  0.79742761612E+03  0.91994737925E+02 0.  0.
          2    1    3    3  502    0 -0.92253362034E+02  0.32166356977E+02 -0.30233397698E+03  0.31772817150E+03  0.00000000000E+00 0. -1.
         -2    1    3    3    0  502 -0.41164398560E+03  0.11528007251E+03 -0.82209582962E+03  0.92659690215E+03  0.00000000000E+00 0.  1.
         11    1    5    5    0    0 -0.29870541405E+02  0.62643326195E+02 -0.18652271321E+01  0.69425605023E+02  0.00000000000E+00 0. -1.
        -11    1    5    5    0    0 -0.12992218107E+02  0.76398826934E+02 -0.11436392140E+03  0.13814733080E+03  0.00000000000E+00 0.  1.
          3    1    6    6  503    0  0.63240978313E+02 -0.67673701501E+02 -0.60371846077E+02  0.11056179725E+03  0.00000000000E+00 0. -1.
         -3    1    6    6    0  503  0.48351912884E+03 -0.21881488111E+03 -0.43602058779E+03  0.68686581886E+03  0.00000000000E+00 0.  1.
<mgrwt>
<rscale>  0 0.64771407E+03</rscale>
<asrwt>0</asrwt>
<pdfrwt beam="1">  1        1 0.30664440E+00 0.64771407E+03</pdfrwt>
<pdfrwt beam="2">  1       -1 0.39405709E-01 0.64771407E+03</pdfrwt>
<totfact> 0.19933479E+01</totfact>
</mgrwt>
</event>
<event>
12    1  0.1335216E-007  0.5034370E+03  0.7818608E-02  0.1012886E+00
         -2   -1    0    0    0  501 -0.00000000000E+00  0.00000000000E+00  0.20379480137E+03  0.20379480137E+03  0.00000000000E+00 0.  1.
          2   -1    0    0  501    0  0.00000000000E+00 -0.00000000000E+00 -0.15091959795E+04  0.15091959795E+04  0.00000000000E+00 0. -1.
         23    2    1    2    0    0 -0.30542445183E+03 -0.17684043877E+03 -0.70499759769E+03  0.79367370022E+03  0.91321920171E+02 0.  0.
    5000000    2    1    2    0    0  0.30542445183E+03  0.17684043877E+03 -0.60040358044E+03  0.91931708065E+03  0.60008565955E+03 0.  0.
         23    2    4    4    0    0  0.45059322860E+03  0.20752843973E+03 -0.52833701489E+03  0.73071182158E+03  0.93260141172E+02 0.  0.
         23    2    4    4    0    0 -0.14516877677E+03 -0.30688000956E+02 -0.72066565549E+02  0.18860525907E+03  0.91447398693E+02 0.  0.
          3    1    3    3  502    0 -0.44732205599E+02 -0.20825150823E+02 -0.43638949700E+02  0.65871200501E+02  0.00000000000E+00 0. -1.
         -3    1    3    3    0  502 -0.26069224623E+03 -0.15601528795E+03 -0.66135864799E+03  0.72780249972E+03  0.00000000000E+00 0.  1.
         11    1    5    5    0    0  0.24320973497E+03  0.13852139599E+03 -0.35307925690E+03  0.45055977848E+03  0.00000000000E+00 0.  1.
        -11    1    5    5    0    0  0.20738349363E+03  0.69007043742E+02 -0.17525775800E+03  0.28015204310E+03  0.00000000000E+00 0. -1.
          4    1    6    6  503    0 -0.54400717362E+01 -0.13412249187E+02  0.16751739778E+02  0.22138283455E+02  0.00000000000E+00 0. -1.
         -4    1    6    6    0  503 -0.13972870503E+03 -0.17275751769E+02 -0.88818305328E+02  0.16646697561E+03  0.00000000000E+00 0.  1.
<mgrwt>
<rscale>  0 0.50343705E+03</rscale>
<asrwt>0</asrwt>
<pdfrwt beam="1">  1        2 0.23218398E+00 0.50343705E+03</pdfrwt>
<pdfrwt beam="2">  1       -2 0.31353048E-01 0.50343705E+03</pdfrwt>
<totfact> 0.12359643E+02</totfact>
</mgrwt>
</event>
<event>
12    1  0.1335216E-007  0.6563754E+03  0.7818608E-02  0.9794889E-01
          1   -1    0    0  501    0  0.00000000000E+00  0.00000000000E+00  0.36014364468E+03  0.36014364468E+03  0.00000000000E+00 0. -1.
         -1   -1    0    0    0  501 -0.00000000000E+00 -0.00000000000E+00 -0.17816538240E+04  0.17816538240E+04  0.00000000000E+00 0.  1.
         23    2    1    2    0    0 -0.43933686288E+03  0.41843004372E+03 -0.10390349659E+04  0.12067193188E+04  0.92072110138E+02 0.  0.
    5000000    2    1    2    0    0  0.43933686288E+03 -0.41843004372E+03 -0.38247521344E+03  0.93507814988E+03  0.59998606393E+03 0.  0.
         23    2    4    4    0    0  0.93183000803E+02  0.54597770540E+02  0.97933149349E+02  0.17159137427E+03  0.90491490182E+02 0.  0.
         23    2    4    4    0    0  0.34615386208E+03 -0.47302781426E+03 -0.48040836279E+03  0.76348677561E+03  0.92423223251E+02 0.  0.
          3    1    3    3  502    0 -0.21732215091E+03  0.15329250443E+03 -0.49911612146E+03  0.56554788647E+03  0.00000000000E+00 0. -1.
         -3    1    3    3    0  502 -0.22201471197E+03  0.26513753929E+03 -0.53991884445E+03  0.64117143235E+03  0.00000000000E+00 0.  1.
         13    1    5    5    0    0  0.69692629702E+02  0.19140217123E+02  0.87701502865E+01  0.72803338401E+02  0.00000000000E+00 0. -1.
        -13    1    5    5    0    0  0.23490371101E+02  0.35457553417E+02  0.89162999063E+02  0.98788035868E+02  0.00000000000E+00 0.  1.
          1    1    6    6  503    0  0.20084534379E+03 -0.26968035612E+03 -0.33343567962E+03  0.47354587850E+03  0.00000000000E+00 0. -1.
         -1    1    6    6    0  503  0.14530851829E+03 -0.20334745815E+03 -0.14697268317E+03  0.28994089712E+03  0.00000000000E+00 0.  1.
<mgrwt>
<rscale>  0 0.65637544E+03</rscale>
<asrwt>0</asrwt>
<pdfrwt beam="1">  1        1 0.55406714E-01 0.65637544E+03</pdfrwt>
<pdfrwt beam="2">  1       -1 0.27410059E+00 0.65637544E+03</pdfrwt>
<totfact> 0.35545789E+00</totfact>
</mgrwt>
</event>
<event>
12    1  0.1335216E-007  0.1302134E+04  0.7818608E-02  0.9027875E-01
         -1   -1    0    0    0  501 -0.00000000000E+00  0.00000000000E+00  0.82030951890E+03  0.82030951890E+03  0.00000000000E+00 0.  1.
          1   -1    0    0  501    0  0.00000000000E+00 -0.00000000000E+00 -0.28381860366E+04  0.28381860366E+04  0.00000000000E+00 0. -1.
         23    2    1    2    0    0  0.10478873738E+04 -0.75905236722E+03 -0.14626361424E+03  0.13053278769E+04  0.90881115253E+02 0.  0.
    5000000    2    1    2    0    0 -0.10478873738E+04  0.75905236722E+03 -0.18716129035E+04  0.23531676786E+04  0.60019565046E+03 0.  0.
         23    2    4    4    0    0 -0.83042120458E+03  0.55580779314E+03 -0.95471090993E+03  0.13848715665E+04  0.88739248466E+02 0.  0.
         23    2    4    4    0    0 -0.21746616919E+03  0.20324457409E+03 -0.91690199354E+03  0.96829611210E+03  0.91039569964E+02 0.  0.
          2    1    3    3  502    0  0.79171482099E+02 -0.87228776075E+02 -0.22960205723E+02  0.12001730709E+03  0.00000000000E+00 0. -1.
         -2    1    3    3    0  502  0.96871589167E+03 -0.67182359115E+03 -0.12330340852E+03  0.11853105698E+04  0.00000000000E+00 0.  1.
         11    1    5    5    0    0 -0.77607599891E+03  0.49648147119E+03 -0.89712017753E+03  0.12859286217E+04  0.00000000000E+00 0. -1.
        -11    1    5    5    0    0 -0.54345205673E+02  0.59326321953E+02 -0.57590732401E+02  0.98942944744E+02  0.00000000000E+00 0.  1.
          4    1    6    6  503    0 -0.21847040860E+03  0.18138934614E+03 -0.88630759019E+03  0.93068391989E+03  0.00000000000E+00 0. -1.
         -4    1    6    6    0  503  0.10042394123E+01  0.21855227950E+02 -0.30594403359E+02  0.37612192205E+02  0.00000000000E+00 0.  1.
<mgrwt>
<rscale>  0 0.13021336E+04</rscale>
<asrwt>0</asrwt>
<pdfrwt beam="1">  1        1 0.43664401E+00 0.13021336E+04</pdfrwt>
<pdfrwt beam="2">  1       -1 0.12620146E+00 0.13021336E+04</pdfrwt>
<totfact> 0.41817346E-01</totfact>
</mgrwt>
</event>
<event>
12    1  0.1335216E-007  0.5497149E+03  0.7818608E-02  0.1001560E+00
          2   -1    0    0  501    0  0.00000000000E+00  0.00000000000E+00  0.35167189794E+04  0.35167189794E+04  0.00000000000E+00 0.  1.
         -2   -1    0    0    0  501 -0.00000000000E+00 -0.00000000000E+00 -0.12239284264E+03  0.12239284264E+03  0.00000000000E+00 0. -1.
         23    2    1    2    0    0  0.21299838180E+03  0.46368719432E+03  0.11671689480E+04  0.12767942261E+04  0.86867818624E+02 0.  0.
    5000000    2    1    2    0    0 -0.21299838180E+03 -0.46368719432E+03  0.22271571888E+04  0.23623175959E+04  0.59995096103E+03 0.  0.
         23    2    4    4    0    0 -0.19494741187E+03 -0.15850103611E+03  0.18465657609E+04  0.18658089056E+04  0.91162991837E+02 0.  0.
         23    2    4    4    0    0 -0.18050969935E+02 -0.30518615822E+03  0.38059142795E+03  0.49650869038E+03  0.90590374290E+02 0.  0.
          2    1    3    3  502    0  0.19974081157E+03  0.37439899115E+03  0.90568554361E+03  0.10001686359E+04  0.00000000000E+00 0. -1.
         -2    1    3    3    0  502  0.13257570231E+02  0.89288203178E+02  0.26148340438E+03  0.27662559021E+03  0.00000000000E+00 0.  1.
         11    1    5    5    0    0 -0.88338010279E+02 -0.12955073200E+03  0.10773084892E+04  0.10886599915E+04  0.00000000000E+00 0. -1.
        -11    1    5    5    0    0 -0.10660940159E+03 -0.28950304107E+02  0.76925727169E+03  0.77714891408E+03  0.00000000000E+00 0.  1.
          3    1    6    6  503    0 -0.51866954201E+02 -0.21653988067E+03  0.24559572955E+03  0.33150710887E+03  0.00000000000E+00 0. -1.
         -3    1    6    6    0  503  0.33815984266E+02 -0.88646277544E+02  0.13499569841E+03  0.16500158151E+03  0.00000000000E+00 0.  1.
<mgrwt>
<rscale>  0 0.54971486E+03</rscale>
<asrwt>0</asrwt>
<pdfrwt beam="1">  1        2 0.54103361E+00 0.54971486E+03</pdfrwt>
<pdfrwt beam="2">  1       -2 0.18829671E-01 0.54971486E+03</pdfrwt>
<totfact> 0.21073333E+01</totfact>
</mgrwt>
</event>
<event>
12    1  0.1335216E-007  0.1530085E+04  0.7818608E-02  0.8864690E-01
         -2   -1    0    0    0  501 -0.00000000000E+00  0.00000000000E+00  0.77228150422E+03  0.77228150422E+03  0.00000000000E+00 0. -1.
          2   -1    0    0  501    0  0.00000000000E+00 -0.00000000000E+00 -0.31382713169E+04  0.31382713169E+04  0.00000000000E+00 0.  1.
         23    2    1    2    0    0  0.14941906336E+04 -0.54090894944E+01 -0.12690009782E+04  0.19622516202E+04  0.86215023210E+02 0.  0.
    5000000    2    1    2    0    0 -0.14941906336E+04  0.54090894944E+01 -0.10969888344E+04  0.19483012009E+04  0.59988178729E+03 0.  0.
         23    2    4    4    0    0 -0.11076688806E+04 -0.19755102281E+03 -0.59528037340E+03  0.12764031752E+04  0.94284607131E+02 0.  0.
         23    2    4    4    0    0 -0.38652175305E+03  0.20296011231E+03 -0.50170846102E+03  0.67189802568E+03  0.95622718461E+02 0.  0.
          3    1    3    3  502    0  0.59230678118E+03  0.38635918173E+02 -0.48925481217E+03  0.76921409791E+03  0.00000000000E+00 0. -1.
         -3    1    3    3    0  502  0.90188385247E+03 -0.44045007668E+02 -0.77974616608E+03  0.11930375223E+04  0.00000000000E+00 0.  1.
         13    1    5    5    0    0 -0.56901536662E+03 -0.12961882685E+03 -0.26525625901E+03  0.64104634050E+03  0.00000000000E+00 0.  1.
        -13    1    5    5    0    0 -0.53865351397E+03 -0.67932195960E+02 -0.33002411439E+03  0.63535683473E+03  0.00000000000E+00 0. -1.
          3    1    6    6  503    0 -0.11266773256E+03  0.70699174644E+02 -0.92327425764E+02  0.16191585717E+03  0.00000000000E+00 0. -1.
         -3    1    6    6    0  503 -0.27385402050E+03  0.13226093766E+03 -0.40938103526E+03  0.50998216851E+03  0.00000000000E+00 0.  1.
<mgrwt>
<rscale>  0 0.15300846E+04</rscale>
<asrwt>0</asrwt>
<pdfrwt beam="1">  1        2 0.48281096E+00 0.15300846E+04</pdfrwt>
<pdfrwt beam="2">  1       -2 0.11881254E+00 0.15300846E+04</pdfrwt>
<totfact> 0.73601518E-01</totfact>
</mgrwt>
</event>
<event>
12    1  0.1335216E-007  0.7743189E+03  0.7818608E-02  0.9597952E-01
          1   -1    0    0  501    0  0.00000000000E+00  0.00000000000E+00  0.93400425294E+03  0.93400425294E+03  0.00000000000E+00 0. -1.
         -1   -1    0    0    0  501 -0.00000000000E+00 -0.00000000000E+00 -0.68779252655E+03  0.68779252655E+03  0.00000000000E+00 0.  1.
         23    2    1    2    0    0  0.67412308332E+03  0.12380193929E+03  0.82889851561E+02  0.69631607189E+03  0.90644872164E+02 0.  0.
    5000000    2    1    2    0    0 -0.67412308332E+03 -0.12380193929E+03  0.16332187483E+03  0.92548070759E+03  0.60005970844E+03 0.  0.
         23    2    4    4    0    0 -0.14752746025E+03 -0.26468385783E+03  0.19490215092E+03  0.37203256710E+03  0.92733415914E+02 0.  0.
         23    2    4    4    0    0 -0.52659562306E+03  0.14088191854E+03 -0.31580276090E+02  0.55344814049E+03  0.90315365085E+02 0.  0.
          4    1    3    3  502    0  0.28859512152E+03  0.11822109520E+02  0.53774153480E+02  0.29380021447E+03  0.00000000000E+00 0. -1.
         -4    1    3    3    0  502  0.38552796180E+03  0.11197982977E+03  0.29115698081E+02  0.40251585743E+03  0.00000000000E+00 0.  1.
         11    1    5    5    0    0 -0.58269205351E+02 -0.41876695186E+02  0.74751441310E+02  0.10361822171E+03  0.00000000000E+00 0.  1.
        -11    1    5    5    0    0 -0.89258254902E+02 -0.22280716265E+03  0.12015070961E+03  0.26841434540E+03  0.00000000000E+00 0. -1.
          3    1    6    6  503    0 -0.41274051743E+03  0.93241185714E+02 -0.58385025873E+02  0.42715040055E+03  0.00000000000E+00 0. -1.
         -3    1    6    6    0  503 -0.11385510563E+03  0.47640732827E+02  0.26804749783E+02  0.12629773994E+03  0.00000000000E+00 0.  1.
<mgrwt>
<rscale>  0 0.77431887E+03</rscale>
<asrwt>0</asrwt>
<pdfrwt beam="1">  1        1 0.14369296E+00 0.77431887E+03</pdfrwt>
<pdfrwt beam="2">  1       -1 0.10581423E+00 0.77431887E+03</pdfrwt>
<totfact> 0.14660496E+01</totfact>
</mgrwt>
</event>
<event>
12    1  0.1335216E-007  0.8652945E+03  0.7818608E-02  0.9470036E-01
         -1   -1    0    0    0  501 -0.00000000000E+00  0.00000000000E+00  0.71604483820E+03  0.71604483820E+03  0.00000000000E+00 0.  1.
          1   -1    0    0  501    0  0.00000000000E+00 -0.00000000000E+00 -0.11245188633E+04  0.11245188633E+04  0.00000000000E+00 0. -1.
         23    2    1    2    0    0 -0.62181446302E+03 -0.47529414920E+03 -0.43308976291E+02  0.78880111894E+03  0.88169059918E+02 0.  0.
    5000000    2    1    2    0    0  0.62181446302E+03  0.47529414920E+03 -0.36516504884E+03  0.10517625826E+04  0.60025099961E+03 0.  0.
         23    2    4    4    0    0 -0.16777817652E+02 -0.78260662540E+02  0.11737255288E+02  0.12202820796E+03  0.91361337057E+02 0.  0.
         23    2    4    4    0    0  0.63859228068E+03  0.55355481174E+03 -0.37690230412E+03  0.92973437462E+03  0.90153369089E+02 0.  0.
          1    1    3    3  502    0 -0.44027765510E+03 -0.37331683512E+03 -0.60490839740E+01  0.57727503357E+03  0.00000000000E+00 0. -1.
         -1    1    3    3    0  502 -0.18153680792E+03 -0.10197731408E+03 -0.37259892317E+02  0.21152608537E+03  0.00000000000E+00 0.  1.
         13    1    5    5    0    0 -0.26825411224E+02 -0.83925033942E+02 -0.18180414942E+02  0.89964112273E+02  0.00000000000E+00 0.  1.
        -13    1    5    5    0    0  0.10047593571E+02  0.56643714026E+01  0.29917670230E+02  0.32064095683E+02  0.00000000000E+00 0. -1.
          4    1    6    6  503    0  0.24068829386E+03  0.19275724499E+03 -0.92352923300E+02  0.32189326296E+03  0.00000000000E+00 0. -1.
         -4    1    6    6    0  503  0.39790398681E+03  0.36079756675E+03 -0.28454938082E+03  0.60784111166E+03  0.00000000000E+00 0.  1.
<mgrwt>
<rscale>  0 0.86529447E+03</rscale>
<asrwt>0</asrwt>
<pdfrwt beam="1">  1        1 0.17300290E+00 0.86529447E+03</pdfrwt>
<pdfrwt beam="2">  1       -1 0.11016074E+00 0.86529447E+03</pdfrwt>
<totfact> 0.94127029E+00</totfact>
</mgrwt>
</event>
<event>
12    1  0.1335216E-007  0.5993123E+03  0.7818608E-02  0.9906834E-01
          1   -1    0    0  501    0  0.00000000000E+00  0.00000000000E+00  0.25159732557E+04  0.25159732557E+04  0.00000000000E+00 0. -1.
         -1   -1    0    0    0  501 -0.00000000000E+00 -0.00000000000E+00 -0.24612702993E+03  0.24612702993E+03  0.00000000000E+00 0.  1.
         23    2    1    2    0    0 -0.15692670793E+03  0.42655603486E+03  0.11220204720E+03  0.47694292895E+03  0.91154898629E+02 0.  0.
    5000000    2    1    2    0    0  0.15692670793E+03 -0.42655603486E+03  0.21576441786E+04  0.22851573567E+04  0.59994974865E+03 0.  0.
         23    2    4    4    0    0  0.35435892571E+03 -0.13945427397E+03  0.10473556651E+04  0.11179834129E+04  0.88967857153E+02 0.  0.
         23    2    4    4    0    0 -0.19743221778E+03 -0.28710176089E+03  0.11102885134E+04  0.11671739437E+04  0.90263669833E+02 0.  0.
          3    1    3    3  502    0 -0.86893681830E+02  0.33570617131E+03  0.64535378259E+02  0.35272363182E+03  0.00000000000E+00 0. -1.
         -3    1    3    3    0  502 -0.70033026100E+02  0.90849863550E+02  0.47666668945E+02  0.12421929713E+03  0.00000000000E+00 0.  1.
         11    1    5    5    0    0  0.13371339061E+03 -0.93954088933E+02  0.38082620646E+03  0.41440950904E+03  0.00000000000E+00 0.  1.
        -11    1    5    5    0    0  0.22064553510E+03 -0.45500185039E+02  0.66652945865E+03  0.70357390390E+03  0.00000000000E+00 0. -1.
          1    1    6    6  503    0 -0.61004916396E+02 -0.88168676742E+02  0.49089572665E+03  0.50246783959E+03  0.00000000000E+00 0. -1.
         -1    1    6    6    0  503 -0.13642730138E+03 -0.19893308415E+03  0.61939278680E+03  0.66470610413E+03  0.00000000000E+00 0.  1.
<mgrwt>
<rscale>  0 0.59931232E+03</rscale>
<asrwt>0</asrwt>
<pdfrwt beam="1">  1        1 0.38707279E+00 0.59931232E+03</pdfrwt>
<pdfrwt beam="2">  1       -1 0.37865699E-01 0.59931232E+03</pdfrwt>
<totfact> 0.96375465E+00</totfact>
</mgrwt>
</event>
<event>
12    1  0.1335216E-007  0.6642479E+03  0.7818608E-02  0.9780405E-01
         -2   -1    0    0    0  501 -0.00000000000E+00  0.00000000000E+00  0.49091492812E+03  0.49091492812E+03  0.00000000000E+00 0.  1.
          2   -1    0    0  501    0  0.00000000000E+00 -0.00000000000E+00 -0.14014985443E+04  0.14014985443E+04  0.00000000000E+00 0. -1.
         23    2    1    2    0    0  0.54900306345E+03 -0.36946334988E+03 -0.71459109817E+03  0.97795786983E+03  0.88620691670E+02 0.  0.
    5000000    2    1    2    0    0 -0.54900306345E+03  0.36946334988E+03 -0.19599251803E+03  0.91445560262E+03  0.59992370470E+03 0.  0.
         23    2    4    4    0    0 -0.22328290783E+03  0.13504147196E+03  0.20187444378E+03  0.34216924080E+03  0.90747133428E+02 0.  0.
         23    2    4    4    0    0 -0.32572015562E+03  0.23442187792E+03 -0.39786696181E+03  0.57228636182E+03  0.90367715464E+02 0.  0.
          4    1    3    3  502    0  0.10434137524E+03 -0.84458260571E+02 -0.19758345652E+03  0.23887139355E+03  0.00000000000E+00 0. -1.
         -4    1    3    3    0  502  0.44466168821E+03 -0.28500508931E+03 -0.51700764165E+03  0.73908647628E+03  0.00000000000E+00 0.  1.
         13    1    5    5    0    0 -0.63410167448E+02  0.30994084594E+02  0.10938751805E+03  0.13018107282E+03  0.00000000000E+00 0. -1.
        -13    1    5    5    0    0 -0.15987274038E+03  0.10404738736E+03  0.92486925724E+02  0.21198816798E+03  0.00000000000E+00 0.  1.
          3    1    6    6  503    0 -0.13340200706E+03  0.12843044262E+03 -0.23338141360E+03  0.29792173182E+03  0.00000000000E+00 0. -1.
         -3    1    6    6    0  503 -0.19231814856E+03  0.10599143530E+03 -0.16448554822E+03  0.27436463000E+03  0.00000000000E+00 0.  1.
<mgrwt>
<rscale>  0 0.66424788E+03</rscale>
<asrwt>0</asrwt>
<pdfrwt beam="1">  1        2 0.21561516E+00 0.66424788E+03</pdfrwt>
<pdfrwt beam="2">  1       -2 0.75525373E-01 0.66424788E+03</pdfrwt>
<totfact> 0.23454854E+01</totfact>
</mgrwt>
</event>
<event>
12    1  0.1335216E-007  0.6504319E+03  0.7818608E-02  0.9805969E-01
          2   -1    0    0  501    0  0.00000000000E+00  0.00000000000E+00  0.11311090701E+04  0.11311090701E+04  0.00000000000E+00 0. -1.
         -2   -1    0    0    0  501 -0.00000000000E+00 -0.00000000000E+00 -0.59935158914E+03  0.59935158914E+03  0.00000000000E+00 0.  1.
         23    2    1    2    0    0  0.58376662944E+03 -0.15308215355E+03  0.62598801454E+03  0.87424125967E+03  0.90659596183E+02 0.  0.
    5000000    2    1    2    0    0 -0.58376662944E+03  0.15308215355E+03 -0.94230533607E+02  0.85621939954E+03  0.60001220262E+03 0.  0.
         23    2    4    4    0    0 -0.44700921067E+03 -0.44944068396E+02 -0.28174471093E+03  0.53803275755E+03  0.90895337334E+02 0.  0.
         23    2    4    4    0    0 -0.13675741877E+03  0.19802622195E+03  0.18751417733E+03  0.31818664199E+03  0.90355942117E+02 0.  0.
          1    1    3    3  502    0  0.30803781356E+03 -0.35133444958E+02  0.33286229648E+03  0.45488345975E+03  0.00000000000E+00 0. -1.
         -1    1    3    3    0  502  0.27572881589E+03 -0.11794870859E+03  0.29312571806E+03  0.41935779992E+03  0.00000000000E+00 0.  1.
         13    1    5    5    0    0 -0.33591086525E+03 -0.43817058275E+02 -0.16476919010E+03  0.37670270771E+03  0.00000000000E+00 0. -1.
        -13    1    5    5    0    0 -0.11109834542E+03 -0.11270101213E+01 -0.11697552084E+03  0.16133004984E+03  0.00000000000E+00 0.  1.
          4    1    6    6  503    0 -0.49372398524E+02  0.83644322487E+02  0.13205874673E+03  0.16393144607E+03  0.00000000000E+00 0. -1.
         -4    1    6    6    0  503 -0.87385020249E+02  0.11438189946E+03  0.55455430592E+02  0.15425519593E+03  0.00000000000E+00 0.  1.
<mgrwt>
<rscale>  0 0.65043187E+03</rscale>
<asrwt>0</asrwt>
<pdfrwt beam="1">  1        2 0.17401678E+00 0.65043187E+03</pdfrwt>
<pdfrwt beam="2">  1       -2 0.92207937E-01 0.65043187E+03</pdfrwt>
<totfact> 0.21453620E+01</totfact>
</mgrwt>
</event>
<event>
12    1  0.1335216E-007  0.3561526E+03  0.7818608E-02  0.1060118E+00
          2   -1    0    0  501    0  0.00000000000E+00  0.00000000000E+00  0.18207122446E+04  0.18207122446E+04  0.00000000000E+00 0. -1.
         -2   -1    0    0    0  501 -0.00000000000E+00 -0.00000000000E+00 -0.14785754335E+03  0.14785754335E+03  0.00000000000E+00 0.  1.
         23    2    1    2    0    0  0.12543507765E+03 -0.20408851864E+03  0.11301094614E+03  0.28022109155E+03  0.91467502735E+02 0.  0.
    5000000    2    1    2    0    0 -0.12543507765E+03  0.20408851864E+03  0.15598437552E+04  0.16883486964E+04  0.60001891482E+03 0.  0.
         23    2    4    4    0    0 -0.12366862352E+03  0.30136169244E+03  0.15067676628E+04  0.15439682903E+04  0.85886515857E+02 0.  0.
         23    2    4    4    0    0 -0.17664541331E+01 -0.97273173795E+02  0.53076092328E+02  0.14438040614E+03  0.92538853467E+02 0.  0.
          1    1    3    3  502    0  0.72323981142E+02 -0.16613927225E+03  0.46587242693E+02  0.18709192182E+03  0.00000000000E+00 0. -1.
         -1    1    3    3    0  502  0.53111096510E+02 -0.37949246396E+02  0.66423703446E+02  0.93129169727E+02  0.00000000000E+00 0.  1.
         11    1    5    5    0    0 -0.12052337280E+03  0.20594422253E+03  0.98104981939E+03  0.10096522442E+04  0.00000000000E+00 0. -1.
        -11    1    5    5    0    0 -0.31452507183E+01  0.95417469903E+02  0.52571784344E+03  0.53431604606E+03  0.00000000000E+00 0.  1.
          1    1    6    6  503    0 -0.44479039896E+02 -0.36926761727E+02  0.37253415376E+02  0.68773451847E+02  0.00000000000E+00 0. -1.
         -1    1    6    6    0  503  0.42712585763E+02 -0.60346412068E+02  0.15822676952E+02  0.75606954296E+02  0.00000000000E+00 0.  1.
<mgrwt>
<rscale>  0 0.35615263E+03</rscale>
<asrwt>0</asrwt>
<pdfrwt beam="1">  1        2 0.28010956E+00 0.35615263E+03</pdfrwt>
<pdfrwt beam="2">  1       -2 0.22747316E-01 0.35615263E+03</pdfrwt>
<totfact> 0.15343156E+02</totfact>
</mgrwt>
</event>
<event>
12    1  0.1335216E-007  0.8771960E+03  0.7818608E-02  0.9454545E-01
         -2   -1    0    0    0  501 -0.00000000000E+00  0.00000000000E+00  0.38162202174E+03  0.38162202174E+03  0.00000000000E+00 0.  1.
          2   -1    0    0  501    0  0.00000000000E+00 -0.00000000000E+00 -0.25704441714E+04  0.25704441714E+04  0.00000000000E+00 0. -1.
         23    2    1    2    0    0  0.43891132443E+03 -0.71105247940E+03 -0.51080199389E+03  0.98377594616E+03  0.93046526578E+02 0.  0.
    5000000    2    1    2    0    0 -0.43891132443E+03  0.71105247940E+03 -0.16780201558E+04  0.19682902470E+04  0.60014671042E+03 0.  0.
         23    2    4    4    0    0 -0.65550069882E+02  0.42898981898E+03 -0.12554635081E+04  0.13314796922E+04  0.91216632661E+02 0.  0.
         23    2    4    4    0    0 -0.37336125455E+03  0.28206266042E+03 -0.42255664768E+03  0.63681055481E+03  0.89529835344E+02 0.  0.
          4    1    3    3  502    0  0.22943117416E+03 -0.38889194274E+03 -0.22248675949E+03  0.50336464413E+03  0.00000000000E+00 0. -1.
         -4    1    3    3    0  502  0.20948015027E+03 -0.32216053665E+03 -0.28831523440E+03  0.48041130203E+03  0.00000000000E+00 0.  1.
         11    1    5    5    0    0 -0.42052155490E+02  0.63657552218E+02 -0.18349523859E+03  0.19872385443E+03  0.00000000000E+00 0. -1.
        -11    1    5    5    0    0 -0.23497914392E+02  0.36533226676E+03 -0.10719682695E+04  0.11327558378E+04  0.00000000000E+00 0.  1.
          4    1    6    6  503    0  0.33733825451E+01 -0.24001115213E+01 -0.20817307254E+01  0.46339883387E+01  0.00000000000E+00 0. -1.
         -4    1    6    6    0  503 -0.37673463709E+03  0.28446277194E+03 -0.42047491696E+03  0.63217656647E+03  0.00000000000E+00 0.  1.
<mgrwt>
<rscale>  0 0.87719598E+03</rscale>
<asrwt>0</asrwt>
<pdfrwt beam="1">  1        2 0.39545294E+00 0.87719598E+03</pdfrwt>
<pdfrwt beam="2">  1       -2 0.58711082E-01 0.87719598E+03</pdfrwt>
<totfact> 0.88459587E+00</totfact>
</mgrwt>
</event>
<event>
12    1  0.1335216E-007  0.1078615E+04  0.7818608E-02  0.9226289E-01
          2   -1    0    0  501    0  0.00000000000E+00  0.00000000000E+00  0.13109044364E+04  0.13109044364E+04  0.00000000000E+00 0. -1.
         -2   -1    0    0    0  501 -0.00000000000E+00 -0.00000000000E+00 -0.14117308829E+04  0.14117308829E+04  0.00000000000E+00 0.  1.
         23    2    1    2    0    0  0.10491321244E+04  0.71886989670E+02 -0.80119640715E+03  0.13239332158E+04  0.70975510923E+02 0.  0.
    5000000    2    1    2    0    0 -0.10491321244E+04 -0.71886989670E+02  0.70036996069E+03  0.13987021035E+04  0.60000294896E+03 0.  0.
         23    2    4    4    0    0 -0.90944050283E+03 -0.17783526021E+03  0.34797056412E+03  0.99465801249E+03  0.97742725379E+02 0.  0.
         23    2    4    4    0    0 -0.13969162160E+03  0.10594827054E+03  0.35239939657E+03  0.40404409103E+03  0.91255178554E+02 0.  0.
          1    1    3    3  502    0  0.30408533073E+03  0.17955848427E+01 -0.19937727240E+03  0.36362399431E+03  0.00000000000E+00 0.  1.
         -1    1    3    3    0  502  0.74504679370E+03  0.70091404827E+02 -0.60181913475E+03  0.96030922145E+03  0.00000000000E+00 0. -1.
         13    1    5    5    0    0 -0.45445002388E+03 -0.84606030942E+02  0.12160290914E+03  0.47798564015E+03  0.00000000000E+00 0.  1.
        -13    1    5    5    0    0 -0.45499047895E+03 -0.93229229271E+02  0.22636765498E+03  0.51667237235E+03  0.00000000000E+00 0. -1.
          1    1    6    6  503    0 -0.24345302372E+02  0.35159193886E+02  0.24436072912E+02  0.49254282268E+02  0.00000000000E+00 0. -1.
         -1    1    6    6    0  503 -0.11534631923E+03  0.70789076656E+02  0.32796332366E+03  0.35478980876E+03  0.00000000000E+00 0.  1.
<mgrwt>
<rscale>  0 0.10786154E+04</rscale>
<asrwt>0</asrwt>
<pdfrwt beam="1">  1        2 0.20167761E+00 0.10786154E+04</pdfrwt>
<pdfrwt beam="2">  1       -2 0.21718936E+00 0.10786154E+04</pdfrwt>
<totfact> 0.16511024E+00</totfact>
</mgrwt>
</event>
<event>
12    1  0.1335216E-007  0.6420101E+03  0.7818608E-02  0.9821888E-01
          1   -1    0    0  501    0  0.00000000000E+00  0.00000000000E+00  0.69062400736E+03  0.69062400736E+03  0.00000000000E+00 0. -1.
         -1   -1    0    0    0  501 -0.00000000000E+00 -0.00000000000E+00 -0.76962431931E+03  0.76962431931E+03  0.00000000000E+00 0.  1.
         23    2    1    2    0    0  0.31140083440E+03  0.40493965662E+03  0.28502821586E+03  0.59223873521E+03  0.92515028427E+02 0.  0.
    5000000    2    1    2    0    0 -0.31140083440E+03 -0.40493965662E+03 -0.36402852780E+03  0.86800959145E+03  0.59998106355E+03 0.  0.
         23    2    4    4    0    0  0.14746785291E+03 -0.22610055454E+03 -0.81835024653E+02  0.29351549708E+03  0.81155082173E+02 0.  0.
         23    2    4    4    0    0 -0.45886868731E+03 -0.17883910209E+03 -0.28219350315E+03  0.57449409437E+03  0.88692697638E+02 0.  0.
          3    1    3    3  502    0  0.17148857770E+03  0.29487010213E+03  0.18559539776E+03  0.38833279682E+03  0.00000000000E+00 0. -1.
         -3    1    3    3    0  502  0.13991225669E+03  0.11006955449E+03  0.99432818093E+02  0.20390593840E+03  0.00000000000E+00 0.  1.
         13    1    5    5    0    0  0.77664915062E+02 -0.86235465750E+02 -0.72676088622E+02  0.13693140050E+03  0.00000000000E+00 0.  1.
        -13    1    5    5    0    0  0.69802937849E+02 -0.13986508879E+03 -0.91589360309E+01  0.15658409658E+03  0.00000000000E+00 0. -1.
          2    1    6    6  503    0 -0.12185358819E+03 -0.44778833724E+02 -0.31500591775E+02  0.13358790434E+03  0.00000000000E+00 0. -1.
         -2    1    6    6    0  503 -0.33701509912E+03 -0.13406026837E+03 -0.25069291138E+03  0.44090619002E+03  0.00000000000E+00 0.  1.
<mgrwt>
<rscale>  0 0.64201011E+03</rscale>
<asrwt>0</asrwt>
<pdfrwt beam="1">  1        1 0.10624985E+00 0.64201011E+03</pdfrwt>
<pdfrwt beam="2">  1       -1 0.11840374E+00 0.64201011E+03</pdfrwt>
<totfact> 0.18521626E+01</totfact>
</mgrwt>
</event>
<event>
12    1  0.1335216E-007  0.8288385E+03  0.7818608E-02  0.9519188E-01
         -2   -1    0    0    0  501 -0.00000000000E+00  0.00000000000E+00  0.11052460334E+04  0.11052460334E+04  0.00000000000E+00 0.  1.
          2   -1    0    0  501    0  0.00000000000E+00 -0.00000000000E+00 -0.18519967186E+04  0.18519967186E+04  0.00000000000E+00 0. -1.
         23    2    1    2    0    0  0.14274002312E+03 -0.75187839566E+03 -0.15268818201E+04  0.17103969333E+04  0.91617361630E+02 0.  0.
    5000000    2    1    2    0    0 -0.14274002312E+03  0.75187839566E+03  0.78013113497E+03  0.12468458187E+04  0.60026999902E+03 0.  0.
         23    2    4    4    0    0  0.13828067697E+03  0.40973512779E+03  0.13760275520E+03  0.46201354005E+03  0.86703935196E+02 0.  0.
         23    2    4    4    0    0 -0.28102070009E+03  0.34214326786E+03  0.64252837977E+03  0.78483227862E+03  0.84168504354E+02 0.  0.
          4    1    3    3  502    0 -0.13243952320E+01 -0.21169500433E+03 -0.42303849376E+03  0.47305189576E+03  0.00000000000E+00 0. -1.
         -4    1    3    3    0  502  0.14406441835E+03 -0.54018339133E+03 -0.11038433264E+04  0.12373450376E+04  0.00000000000E+00 0.  1.
         11    1    5    5    0    0  0.65714822722E+02  0.28096990014E+03  0.12236322218E+03  0.31342508013E+03  0.00000000000E+00 0. -1.
        -11    1    5    5    0    0  0.72565854248E+02  0.12876522765E+03  0.15239533021E+02  0.14858845992E+03  0.00000000000E+00 0.  1.
          1    1    6    6  503    0 -0.27209062779E+03  0.34654688548E+03  0.63093874388E+03  0.76955295601E+03  0.00000000000E+00 0. -1.
         -1    1    6    6    0  503 -0.89300722980E+01 -0.44036176179E+01  0.11589635893E+02  0.15279322613E+02  0.00000000000E+00 0.  1.
<mgrwt>
<rscale>  0 0.82883853E+03</rscale>
<asrwt>0</asrwt>
<pdfrwt beam="1">  1        2 0.28492257E+00 0.82883853E+03</pdfrwt>
<pdfrwt beam="2">  1       -2 0.17003785E+00 0.82883853E+03</pdfrwt>
<totfact> 0.17573280E+00</totfact>
</mgrwt>
</event>
<event>
12    1  0.1335216E-007  0.7910539E+03  0.7818608E-02  0.9573057E-01
         -2   -1    0    0    0  501 -0.00000000000E+00  0.00000000000E+00  0.58414425738E+03  0.58414425738E+03  0.00000000000E+00 0.  1.
          2   -1    0    0  501    0  0.00000000000E+00 -0.00000000000E+00 -0.16505571422E+04  0.16505571422E+04  0.00000000000E+00 0. -1.
         23    2    1    2    0    0  0.27785536881E+03  0.62360000599E+03 -0.11291854033E+04  0.13237550944E+04  0.10577004061E+03 0.  0.
    5000000    2    1    2    0    0 -0.27785536881E+03 -0.62360000599E+03  0.62772518540E+02  0.91094630511E+03  0.59983515090E+03 0.  0.
         23    2    4    4    0    0  0.16249329908E+03 -0.27556523225E+03 -0.33642228874E+02  0.33414963709E+03  0.90464970732E+02 0.  0.
         23    2    4    4    0    0 -0.44034866790E+03 -0.34803477374E+03  0.96414747414E+02  0.57679666802E+03  0.91451843446E+02 0.  0.
          3    1    3    3  502    0  0.94564495146E+01  0.91411451092E+02 -0.11284526724E+03  0.14553189399E+03  0.00000000000E+00 0. -1.
         -3    1    3    3    0  502  0.26839891930E+03  0.53218855490E+03 -0.10163401361E+04  0.11782232004E+04  0.00000000000E+00 0.  1.
         11    1    5    5    0    0  0.89995000003E+02 -0.20904520391E+03  0.69827601095E+01  0.22770102380E+03  0.00000000000E+00 0. -1.
        -11    1    5    5    0    0  0.72498299079E+02 -0.66520028345E+02 -0.40624988983E+02  0.10644861328E+03  0.00000000000E+00 0.  1.
          3    1    6    6  503    0 -0.35260926549E+03 -0.31975181833E+03  0.71813449663E+02  0.48138517944E+03  0.00000000000E+00 0. -1.
         -3    1    6    6    0  503 -0.87739402410E+02 -0.28282955410E+02  0.24601297751E+02  0.95411488579E+02  0.00000000000E+00 0.  1.
<mgrwt>
<rscale>  0 0.79105386E+03</rscale>
<asrwt>0</asrwt>
<pdfrwt beam="1">  1        2 0.25393187E+00 0.79105386E+03</pdfrwt>
<pdfrwt beam="2">  1       -2 0.89868348E-01 0.79105386E+03</pdfrwt>
<totfact> 0.11322287E+01</totfact>
</mgrwt>
</event>
<event>
12    1  0.1335216E-007  0.5172501E+03  0.7818608E-02  0.1009372E+00
         -2   -1    0    0    0  501 -0.00000000000E+00  0.00000000000E+00  0.38506594619E+03  0.38506594619E+03  0.00000000000E+00 0.  1.
          2   -1    0    0  501    0  0.00000000000E+00 -0.00000000000E+00 -0.77358090238E+03  0.77358090238E+03  0.00000000000E+00 0. -1.
         23    2    1    2    0    0  0.26384726027E+03  0.23454222435E+03 -0.26449997598E+03  0.45193584005E+03  0.98287000496E+02 0.  0.
    5000000    2    1    2    0    0 -0.26384726027E+03 -0.23454222435E+03 -0.12401498020E+03  0.70671100851E+03  0.59952923405E+03 0.  0.
         23    2    4    4    0    0  0.15587893214E+03  0.36884129238E+02 -0.66623073127E+02  0.19533206414E+03  0.89762469514E+02 0.  0.
         23    2    4    4    0    0 -0.41972619241E+03 -0.27142635359E+03 -0.57391907078E+02  0.51137894437E+03  0.91500009449E+02 0.  0.
          1    1    3    3  502    0  0.26966333447E+02  0.43403098371E+02 -0.39158289962E+01  0.51247885854E+02  0.00000000000E+00 0. -1.
         -1    1    3    3    0  502  0.23688092683E+03  0.19113912598E+03 -0.26058414699E+03  0.40068795420E+03  0.00000000000E+00 0.  1.
         13    1    5    5    0    0  0.68334610534E+02 -0.20557291996E+02 -0.24921593640E+00  0.71360236544E+02  0.00000000000E+00 0. -1.
        -13    1    5    5    0    0  0.87544321606E+02  0.57441421234E+02 -0.66373857191E+02  0.12397182759E+03  0.00000000000E+00 0.  1.
          4    1    6    6  503    0 -0.28528770866E+03 -0.15262851679E+03 -0.71712715010E+02  0.33140195283E+03  0.00000000000E+00 0. -1.
         -4    1    6    6    0  503 -0.13443848376E+03 -0.11879783681E+03  0.14320807933E+02  0.17997699154E+03  0.00000000000E+00 0.  1.
<mgrwt>
<rscale>  0 0.51725011E+03</rscale>
<asrwt>0</asrwt>
<pdfrwt beam="1">  1        2 0.11901244E+00 0.51725011E+03</pdfrwt>
<pdfrwt beam="2">  1       -2 0.59240916E-01 0.51725011E+03</pdfrwt>
<totfact> 0.98759791E+01</totfact>
</mgrwt>
</event>
<event>
12    1  0.1335216E-007  0.6396986E+03  0.7818608E-02  0.9826303E-01
         -1   -1    0    0    0  501 -0.00000000000E+00  0.00000000000E+00  0.29291373669E+03  0.29291373669E+03  0.00000000000E+00 0. -1.
          1   -1    0    0  501    0  0.00000000000E+00 -0.00000000000E+00 -0.23711771778E+04  0.23711771778E+04  0.00000000000E+00 0.  1.
         23    2    1    2    0    0  0.50719714060E+02  0.58678548617E+03 -0.15758520063E+04  0.16846945242E+04  0.89422580190E+02 0.  0.
    5000000    2    1    2    0    0 -0.50719714060E+02 -0.58678548617E+03 -0.50241143476E+03  0.97939639027E+03  0.59992528144E+03 0.  0.
         23    2    4    4    0    0 -0.54610509400E+02  0.13074261370E+02  0.84154592507E+02  0.13545857047E+03  0.90076549808E+02 0.  0.
         23    2    4    4    0    0  0.38907953400E+01 -0.59985974754E+03 -0.58656602727E+03  0.84393781980E+03  0.91238612082E+02 0.  0.
          2    1    3    3  502    0  0.73359421747E+01  0.11046016472E+03 -0.20791744296E+03  0.23555238722E+03  0.00000000000E+00 0.  1.
         -2    1    3    3    0  502  0.43383771885E+02  0.47632532145E+03 -0.13679345634E+04  0.14491421370E+04  0.00000000000E+00 0. -1.
         11    1    5    5    0    0 -0.19605862698E+02 -0.25545585213E+02 -0.46015952827E+01  0.32529086294E+02  0.00000000000E+00 0. -1.
        -11    1    5    5    0    0 -0.35004646702E+02  0.38619846582E+02  0.88756187790E+02  0.10292948417E+03  0.00000000000E+00 0.  1.
          4    1    6    6  503    0 -0.40511932414E+02 -0.34529295857E+03 -0.31633570886E+03  0.47003906710E+03  0.00000000000E+00 0. -1.
         -4    1    6    6    0  503  0.44402727754E+02 -0.25456678897E+03 -0.27023031841E+03  0.37389875270E+03  0.00000000000E+00 0.  1.
<mgrwt>
<rscale>  0 0.63969857E+03</rscale>
<asrwt>0</asrwt>
<pdfrwt beam="1">  1        1 0.36479647E+00 0.63969857E+03</pdfrwt>
<pdfrwt beam="2">  1       -1 0.45063654E-01 0.63969857E+03</pdfrwt>
<totfact> 0.87234633E+00</totfact>
</mgrwt>
</event>
<event>
12    1  0.1335216E-007  0.4245866E+03  0.7818608E-02  0.1035584E+00
          1   -1    0    0  501    0  0.00000000000E+00  0.00000000000E+00  0.14923539100E+04  0.14923539100E+04  0.00000000000E+00 0. -1.
         -1   -1    0    0    0  501 -0.00000000000E+00 -0.00000000000E+00 -0.16398628304E+03  0.16398628304E+03  0.00000000000E+00 0.  1.
         23    2    1    2    0    0  0.15772405119E+03 -0.24464964296E+03  0.57570750016E+03  0.65065890207E+03  0.84779460857E+02 0.  0.
    5000000    2    1    2    0    0 -0.15772405119E+03  0.24464964296E+03  0.75266012681E+03  0.10056812910E+04  0.60013937415E+03 0.  0.
         23    2    4    4    0    0 -0.26599248949E+02  0.35640972521E+03  0.71603821873E+03  0.80548614651E+03  0.91442819660E+02 0.  0.
         23    2    4    4    0    0 -0.13112480224E+03 -0.11176008225E+03  0.36621908080E+02  0.20019514447E+03  0.95146739142E+02 0.  0.
          1    1    3    3  502    0  0.13078245762E+03 -0.20781485833E+03  0.53827718235E+03  0.59163619869E+03  0.00000000000E+00 0. -1.
         -1    1    3    3    0  502  0.26941593575E+02 -0.36834784631E+02  0.37430317805E+02  0.59022703380E+02  0.00000000000E+00 0.  1.
         11    1    5    5    0    0  0.28525693965E+02  0.17070583460E+03  0.38123012905E+03  0.41867721275E+03  0.00000000000E+00 0. -1.
        -11    1    5    5    0    0 -0.55124942914E+02  0.18570389061E+03  0.33480808968E+03  0.38680893375E+03  0.00000000000E+00 0.  1.
          2    1    6    6  503    0 -0.23997218552E+02 -0.73720856735E+02  0.38364148995E+02  0.86501093311E+02  0.00000000000E+00 0. -1.
         -2    1    6    6    0  503 -0.10712758369E+03 -0.38039225518E+02 -0.17422409149E+01  0.11369405116E+03  0.00000000000E+00 0.  1.
<mgrwt>
<rscale>  0 0.42458658E+03</rscale>
<asrwt>0</asrwt>
<pdfrwt beam="1">  1        1 0.22959290E+00 0.42458658E+03</pdfrwt>
<pdfrwt beam="2">  1       -1 0.25228660E-01 0.42458658E+03</pdfrwt>
<totfact> 0.97188116E+01</totfact>
</mgrwt>
</event>
<event>
12    1  0.1335216E-007  0.9934363E+03  0.7818608E-02  0.9315773E-01
          2   -1    0    0  501    0  0.00000000000E+00  0.00000000000E+00  0.18877561297E+04  0.18877561297E+04  0.00000000000E+00 0. -1.
         -2   -1    0    0    0  501 -0.00000000000E+00 -0.00000000000E+00 -0.10734016677E+04  0.10734016677E+04  0.00000000000E+00 0.  1.
         23    2    1    2    0    0  0.83331589887E+03 -0.37037877150E+03 -0.65798808849E+03  0.11282757634E+04  0.91989412238E+02 0.  0.
    5000000    2    1    2    0    0 -0.83331589887E+03  0.37037877150E+03  0.14723425505E+04  0.18328820340E+04  0.60005678316E+03 0.  0.
         23    2    4    4    0    0 -0.60065459831E+03  0.51484894556E+03  0.11650822535E+04  0.14110526734E+04  0.88304056219E+02 0.  0.
         23    2    4    4    0    0 -0.23266130056E+03 -0.14447017406E+03  0.30726029694E+03  0.42182936063E+03  0.92348294233E+02 0.  0.
          4    1    3    3  502    0  0.71792452177E+03 -0.28262610854E+03 -0.55077696513E+03  0.94797067544E+03  0.00000000000E+00 0. -1.
         -4    1    3    3    0  502  0.11539137710E+03 -0.87752662956E+02 -0.10721112336E+03  0.18030508794E+03  0.00000000000E+00 0.  1.
         11    1    5    5    0    0 -0.10994096560E+03  0.78809402064E+02  0.25855040590E+03  0.29179830391E+03  0.00000000000E+00 0.  1.
        -11    1    5    5    0    0 -0.49071363271E+03  0.43603954350E+03  0.90653184762E+03  0.11192543695E+04  0.00000000000E+00 0. -1.
          1    1    6    6  503    0 -0.17037406252E+03 -0.13096909862E+03  0.18333101156E+03  0.28247209733E+03  0.00000000000E+00 0. -1.
         -1    1    6    6    0  503 -0.62287238038E+02 -0.13501075444E+02  0.12392928537E+03  0.13935726330E+03  0.00000000000E+00 0.  1.
<mgrwt>
<rscale>  0 0.99343629E+03</rscale>
<asrwt>0</asrwt>
<pdfrwt beam="1">  1        2 0.29042402E+00 0.99343629E+03</pdfrwt>
<pdfrwt beam="2">  1       -2 0.16513872E+00 0.99343629E+03</pdfrwt>
<totfact> 0.17764161E+00</totfact>
</mgrwt>
</event>
<event>
12    1  0.1335216E-007  0.6772672E+03  0.7818608E-02  0.9756918E-01
          1   -1    0    0  501    0  0.00000000000E+00  0.00000000000E+00  0.77459941808E+03  0.77459941808E+03  0.00000000000E+00 0. -1.
         -1   -1    0    0    0  501 -0.00000000000E+00 -0.00000000000E+00 -0.70843129040E+03  0.70843129040E+03  0.00000000000E+00 0.  1.
         23    2    1    2    0    0 -0.49198479045E+03  0.28764181858E+03 -0.20377140044E+03  0.61262443968E+03  0.94863431461E+02 0.  0.
    5000000    2    1    2    0    0  0.49198479045E+03 -0.28764181858E+03  0.26993952812E+03  0.87040626879E+03  0.59996072711E+03 0.  0.
         23    2    4    4    0    0  0.10313294930E+03  0.15619826618E+03 -0.15679695150E+02  0.20885040801E+03  0.91314492264E+02 0.  0.
         23    2    4    4    0    0  0.38885184115E+03 -0.44384008476E+03  0.28561922327E+03  0.66155586078E+03  0.88758329342E+02 0.  0.
          2    1    3    3  502    0 -0.10148122683E+03  0.92493903615E+02 -0.79800381927E+02  0.15881329466E+03  0.00000000000E+00 0. -1.
         -2    1    3    3    0  502 -0.39050356363E+03  0.19514791496E+03 -0.12397101852E+03  0.45381114503E+03  0.00000000000E+00 0.  1.
         11    1    5    5    0    0  0.71047321656E+02  0.12620901452E+03  0.27319807956E+02  0.14738659765E+03  0.00000000000E+00 0. -1.
        -11    1    5    5    0    0  0.32085627646E+02  0.29989251659E+02 -0.42999503106E+02  0.61463810359E+02  0.00000000000E+00 0.  1.
          1    1    6    6  503    0  0.15981856668E+03 -0.21767344670E+03  0.88802475924E+02  0.28427026468E+03  0.00000000000E+00 0.  1.
         -1    1    6    6    0  503  0.22903327447E+03 -0.22616663806E+03  0.19681674735E+03  0.37728559610E+03  0.00000000000E+00 0. -1.
<mgrwt>
<rscale>  0 0.67726717E+03</rscale>
<asrwt>0</asrwt>
<pdfrwt beam="1">  1        1 0.11916914E+00 0.67726717E+03</pdfrwt>
<pdfrwt beam="2">  1       -1 0.10898943E+00 0.67726717E+03</pdfrwt>
<totfact> 0.18828968E+01</totfact>
</mgrwt>
</event>
<event>
12    1  0.1335216E-007  0.1498082E+04  0.7818608E-02  0.8885729E-01
          2   -1    0    0  501    0  0.00000000000E+00  0.00000000000E+00  0.31709908246E+04  0.31709908246E+04  0.00000000000E+00 0.  1.
         -2   -1    0    0    0  501 -0.00000000000E+00 -0.00000000000E+00 -0.90957047687E+03  0.90957047687E+03  0.00000000000E+00 0. -1.
         23    2    1    2    0    0  0.14232117863E+04 -0.43645183944E+03  0.25818118323E+03  0.15136615349E+04  0.92150539314E+02 0.  0.
    5000000    2    1    2    0    0 -0.14232117863E+04  0.43645183944E+03  0.20032391645E+04  0.25668997666E+04  0.59998772025E+03 0.  0.
         23    2    4    4    0    0 -0.88825705670E+03  0.15761664914E+03  0.76379548218E+03  0.11854523118E+04  0.89833390739E+02 0.  0.
         23    2    4    4    0    0 -0.53495472965E+03  0.27883519030E+03  0.12394436823E+04  0.13814474548E+04  0.90833928204E+02 0.  0.
          2    1    3    3  502    0  0.22461118075E+03 -0.47144599989E+02  0.13602168585E+02  0.22990827479E+03  0.00000000000E+00 0.  1.
         -2    1    3    3    0  502  0.11986006056E+04 -0.38930723945E+03  0.24457901464E+03  0.12837532601E+04  0.00000000000E+00 0. -1.
         11    1    5    5    0    0 -0.28400473501E+03  0.30215618567E+02  0.19453287695E+03  0.34556434036E+03  0.00000000000E+00 0. -1.
        -11    1    5    5    0    0 -0.60425232169E+03  0.12740103057E+03  0.56926260523E+03  0.83988797145E+03  0.00000000000E+00 0.  1.
          1    1    6    6  503    0 -0.27321952463E+03  0.14460838534E+03  0.73748984650E+03  0.79965728124E+03  0.00000000000E+00 0. -1.
         -1    1    6    6    0  503 -0.26173520502E+03  0.13422680496E+03  0.50195383580E+03  0.58179017351E+03  0.00000000000E+00 0.  1.
<mgrwt>
<rscale>  0 0.14980823E+04</rscale>
<asrwt>0</asrwt>
<pdfrwt beam="1">  1        2 0.48784474E+00 0.14980823E+04</pdfrwt>
<pdfrwt beam="2">  1       -2 0.13993392E+00 0.14980823E+04</pdfrwt>
<totfact> 0.46319294E-01</totfact>
</mgrwt>
</event>
<event>
12    1  0.1335216E-007  0.4933786E+03  0.7818608E-02  0.1015522E+00
         -3   -1    0    0    0  501 -0.00000000000E+00  0.00000000000E+00  0.32700886500E+03  0.32700886500E+03  0.00000000000E+00 0.  1.
          3   -1    0    0  501    0  0.00000000000E+00 -0.00000000000E+00 -0.96298630622E+03  0.96298630622E+03  0.00000000000E+00 0. -1.
         23    2    1    2    0    0  0.30019726360E+03 -0.22778341195E+03 -0.95751300381E+02  0.39892717330E+03  0.89279887101E+02 0.  0.
    5000000    2    1    2    0    0 -0.30019726360E+03  0.22778341195E+03 -0.54022614083E+03  0.89106799791E+03  0.60012849777E+03 0.  0.
         23    2    4    4    0    0  0.70946967669E+02  0.19592214770E+03  0.12185507958E+01  0.22764541146E+03  0.91662360392E+02 0.  0.
         23    2    4    4    0    0 -0.37114423127E+03  0.31861264250E+02 -0.54144469163E+03  0.66342258645E+03  0.90575899411E+02 0.  0.
          4    1    3    3  502    0  0.12949013352E+03 -0.84961668786E+02 -0.83658562029E+02  0.17602538124E+03  0.00000000000E+00 0. -1.
         -4    1    3    3    0  502  0.17070713009E+03 -0.14282174317E+03 -0.12092738353E+02  0.22290179206E+03  0.00000000000E+00 0.  1.
         13    1    5    5    0    0  0.74042888654E+02  0.74218326762E+02  0.11517611418E+02  0.10546736348E+03  0.00000000000E+00 0. -1.
        -13    1    5    5    0    0 -0.30959209851E+01  0.12170382094E+03 -0.10299060622E+02  0.12217804798E+03  0.00000000000E+00 0.  1.
          4    1    6    6  503    0 -0.11075360229E+03 -0.30697691372E+02 -0.18043043138E+03  0.21392486822E+03  0.00000000000E+00 0. -1.
         -4    1    6    6    0  503 -0.26039062898E+03  0.62558955621E+02 -0.36101426025E+03  0.44949771823E+03  0.00000000000E+00 0.  1.
<mgrwt>
<rscale>  0 0.49337864E+03</rscale>
<asrwt>0</asrwt>
<pdfrwt beam="1">  1        3 0.14815174E+00 0.49337864E+03</pdfrwt>
<pdfrwt beam="2">  1       -3 0.50309057E-01 0.49337864E+03</pdfrwt>
<totfact> 0.34359564E+00</totfact>
</mgrwt>
</event>
<event>
12    1  0.1335216E-007  0.4712485E+03  0.7818608E-02  0.1021568E+00
         -1   -1    0    0    0  501 -0.00000000000E+00  0.00000000000E+00  0.86660152976E+03  0.86660152976E+03  0.00000000000E+00 0.  1.
          1   -1    0    0  501    0  0.00000000000E+00 -0.00000000000E+00 -0.20031823738E+04  0.20031823738E+04  0.00000000000E+00 0. -1.
         23    2    1    2    0    0  0.95186693120E+02  0.38738610598E+03 -0.18269521797E+04  0.18718190298E+04  0.82605760280E+02 0.  0.
    5000000    2    1    2    0    0 -0.95186693120E+02 -0.38738610598E+03  0.69037133566E+03  0.99796487380E+03  0.60016065065E+03 0.  0.
         23    2    4    4    0    0 -0.16038719048E+03 -0.41517094088E+03  0.20635775571E+03  0.49894411938E+03  0.90943663311E+02 0.  0.
         23    2    4    4    0    0  0.65200497363E+02  0.27784834903E+02  0.48401357995E+03  0.49902075442E+03  0.98638054823E+02 0.  0.
          1    1    3    3  502    0  0.57891408609E+02  0.32607059189E+03 -0.15950150941E+04  0.16290324112E+04  0.00000000000E+00 0. -1.
         -1    1    3    3    0  502  0.37295284512E+02  0.61315514092E+02 -0.23193708560E+03  0.24278661864E+03  0.00000000000E+00 0.  1.
         11    1    5    5    0    0 -0.13638881770E+02 -0.15115245106E+03  0.58680987682E+02  0.16271613587E+03  0.00000000000E+00 0. -1.
        -11    1    5    5    0    0 -0.14674830871E+03 -0.26401848982E+03  0.14767676802E+03  0.33622798350E+03  0.00000000000E+00 0.  1.
          4    1    6    6  503    0  0.69260618263E+02  0.13089687008E+02  0.16229058365E+03  0.17693673075E+03  0.00000000000E+00 0. -1.
         -4    1    6    6    0  503 -0.40601209001E+01  0.14695147895E+02  0.32172299630E+03  0.32208402367E+03  0.00000000000E+00 0.  1.
<mgrwt>
<rscale>  0 0.47124846E+03</rscale>
<asrwt>0</asrwt>
<pdfrwt beam="1">  1        1 0.30818190E+00 0.47124846E+03</pdfrwt>
<pdfrwt beam="2">  1       -1 0.13332331E+00 0.47124846E+03</pdfrwt>
<totfact> 0.16019810E+00</totfact>
</mgrwt>
</event>
<event>
12    1  0.1335216E-007  0.6323589E+03  0.7818608E-02  0.9840456E-01
          1   -1    0    0  501    0  0.00000000000E+00  0.00000000000E+00  0.27388763999E+04  0.27388763999E+04  0.00000000000E+00 0. -1.
         -1   -1    0    0    0  501 -0.00000000000E+00 -0.00000000000E+00 -0.16323090928E+03  0.16323090928E+03  0.00000000000E+00 0.  1.
         23    2    1    2    0    0 -0.35400539388E+03 -0.39311915634E+03  0.99817033833E+03  0.11334724844E+04  0.92484369813E+02 0.  0.
    5000000    2    1    2    0    0  0.35400539388E+03  0.39311915634E+03  0.15774751523E+04  0.17686348248E+04  0.59981563605E+03 0.  0.
         23    2    4    4    0    0  0.47416553110E+03  0.29722196092E+03  0.14250495349E+04  0.15337481550E+04  0.91887871056E+02 0.  0.
         23    2    4    4    0    0 -0.12016013722E+03  0.95897195415E+02  0.15242561738E+03  0.23488666982E+03  0.91123258071E+02 0.  0.
          2    1    3    3  502    0 -0.24484325579E+03 -0.31399024789E+03  0.68142292343E+03  0.78922449041E+03  0.00000000000E+00 0. -1.
         -2    1    3    3    0  502 -0.10916213809E+03 -0.79128908442E+02  0.31674741490E+03  0.34424799402E+03  0.00000000000E+00 0.  1.
         11    1    5    5    0    0  0.24507355181E+03  0.15478864880E+03  0.86159657752E+03  0.90904853225E+03  0.00000000000E+00 0. -1.
        -11    1    5    5    0    0  0.22909197929E+03  0.14243331212E+03  0.56345295743E+03  0.62469962271E+03  0.00000000000E+00 0.  1.
          2    1    6    6  503    0 -0.12776428146E+03  0.71208135674E+02  0.10229035698E+03  0.17848705089E+03  0.00000000000E+00 0.  1.
         -2    1    6    6    0  503  0.76041442423E+01  0.24689059741E+02  0.50135260399E+02  0.56399618933E+02  0.00000000000E+00 0. -1.
<mgrwt>
<rscale>  0 0.63235886E+03</rscale>
<asrwt>0</asrwt>
<pdfrwt beam="1">  1        1 0.42136556E+00 0.63235886E+03</pdfrwt>
<pdfrwt beam="2">  1       -1 0.25112450E-01 0.63235886E+03</pdfrwt>
<totfact> 0.13781275E+01</totfact>
</mgrwt>
</event>
<event>
12    1  0.1335216E-007  0.1105243E+04  0.7818608E-02  0.9200097E-01
         -2   -1    0    0    0  501 -0.00000000000E+00  0.00000000000E+00  0.53768678876E+03  0.53768678876E+03  0.00000000000E+00 0.  1.
          2   -1    0    0  501    0  0.00000000000E+00 -0.00000000000E+00 -0.24292226417E+04  0.24292226417E+04  0.00000000000E+00 0. -1.
         23    2    1    2    0    0 -0.85090164453E+03 -0.57472104381E+03 -0.12341245289E+04  0.16080313170E+04  0.91452046984E+02 0.  0.
    5000000    2    1    2    0    0  0.85090164453E+03  0.57472104381E+03 -0.65741132410E+03  0.13588781135E+04  0.60001849252E+03 0.  0.
         23    2    4    4    0    0  0.74810683601E+03  0.19498055998E+03 -0.50050807706E+03  0.92521301561E+03  0.88484643831E+02 0.  0.
         23    2    4    4    0    0  0.10279480852E+03  0.37974048383E+03 -0.15690324704E+03  0.43366509787E+03  0.93151384638E+02 0.  0.
          4    1    3    3  502    0 -0.78820730131E+02 -0.27156407148E+02 -0.11990750910E+03  0.14604105138E+03  0.00000000000E+00 0. -1.
         -4    1    3    3    0  502 -0.77208091440E+03 -0.54756463666E+03 -0.11142170198E+04  0.14619902657E+04  0.00000000000E+00 0.  1.
         11    1    5    5    0    0  0.62761800436E+03  0.19049650583E+03 -0.39997684166E+03  0.76822832023E+03  0.00000000000E+00 0. -1.
        -11    1    5    5    0    0  0.12048883165E+03  0.44840541547E+01 -0.10053123540E+03  0.15698469538E+03  0.00000000000E+00 0.  1.
          3    1    6    6  503    0  0.13478671316E+02  0.22534030600E+03 -0.81398391181E+02  0.23997005266E+03  0.00000000000E+00 0. -1.
         -3    1    6    6    0  503  0.89316137203E+02  0.15440017783E+03 -0.75504855859E+02  0.19369504521E+03  0.00000000000E+00 0.  1.
<mgrwt>
<rscale>  0 0.11052429E+04</rscale>
<asrwt>0</asrwt>
<pdfrwt beam="1">  1        2 0.37372656E+00 0.11052429E+04</pdfrwt>
<pdfrwt beam="2">  1       -2 0.82721044E-01 0.11052429E+04</pdfrwt>
<totfact> 0.48808037E+00</totfact>
</mgrwt>
</event>
<event>
12    1  0.1335216E-007  0.7888018E+03  0.7818608E-02  0.9576369E-01
         -2   -1    0    0    0  501 -0.00000000000E+00  0.00000000000E+00  0.54554693199E+03  0.54554693199E+03  0.00000000000E+00 0.  1.
          2   -1    0    0  501    0  0.00000000000E+00 -0.00000000000E+00 -0.13259913663E+04  0.13259913663E+04  0.00000000000E+00 0. -1.
         23    2    1    2    0    0 -0.70157425944E+03 -0.23213582610E+02 -0.60493830490E+03  0.93170621272E+03  0.96854541289E+02 0.  0.
    5000000    2    1    2    0    0  0.70157425944E+03  0.23213582610E+02 -0.17550612942E+03  0.93983208558E+03  0.59978048960E+03 0.  0.
         23    2    4    4    0    0  0.75057637729E+03  0.79570896238E+02 -0.25328353659E+03  0.80122060169E+03  0.90030422587E+02 0.  0.
         23    2    4    4    0    0 -0.49002117848E+02 -0.56357313628E+02  0.77777407162E+02  0.13861148390E+03  0.87100310279E+02 0.  0.
          1    1    3    3  502    0 -0.42099355981E+03  0.23233337199E+01 -0.42008201234E+03  0.59473512791E+03  0.00000000000E+00 0. -1.
         -1    1    3    3    0  502 -0.28058069963E+03 -0.25536916330E+02 -0.18485629256E+03  0.33697108481E+03  0.00000000000E+00 0.  1.
         13    1    5    5    0    0  0.10556273300E+03  0.43297131990E+02 -0.38820728922E+02  0.12052045980E+03  0.00000000000E+00 0. -1.
        -13    1    5    5    0    0  0.64501364429E+03  0.36273764248E+02 -0.21446280766E+03  0.68070014188E+03  0.00000000000E+00 0.  1.
          2    1    6    6  503    0 -0.53975880589E+02  0.40445147694E+01  0.36828467006E+02  0.65468234795E+02  0.00000000000E+00 0. -1.
         -2    1    6    6    0  503  0.49737627415E+01 -0.60401828397E+02  0.40948940157E+02  0.73143249104E+02  0.00000000000E+00 0.  1.
<mgrwt>
<rscale>  0 0.78880184E+03</rscale>
<asrwt>0</asrwt>
<pdfrwt beam="1">  1        2 0.20399867E+00 0.78880184E+03</pdfrwt>
<pdfrwt beam="2">  1       -2 0.83930298E-01 0.78880184E+03</pdfrwt>
<totfact> 0.20126781E+01</totfact>
</mgrwt>
</event>
<event>
12    1  0.1335216E-007  0.6725157E+03  0.7818608E-02  0.9765424E-01
          2   -1    0    0  501    0  0.00000000000E+00  0.00000000000E+00  0.84311860940E+03  0.84311860940E+03  0.00000000000E+00 0. -1.
         -2   -1    0    0    0  501 -0.00000000000E+00 -0.00000000000E+00 -0.91559869393E+03  0.91559869393E+03  0.00000000000E+00 0.  1.
         23    2    1    2    0    0 -0.15153191121E+03  0.56620590369E+03  0.47249345687E+03  0.75832322528E+03  0.90846033089E+02 0.  0.
    5000000    2    1    2    0    0  0.15153191121E+03 -0.56620590369E+03 -0.54497354140E+03  0.10003940780E+04  0.60020088727E+03 0.  0.
         23    2    4    4    0    0 -0.15539698749E+03 -0.18298462699E+03 -0.40714249223E+03  0.48205316088E+03  0.94755704308E+02 0.  0.
         23    2    4    4    0    0  0.30692889870E+03 -0.38322127670E+03 -0.13783104917E+03  0.51834091717E+03  0.92822478564E+02 0.  0.
          1    1    3    3  502    0 -0.95539188654E+02  0.24991908446E+03  0.16929428295E+03  0.31661939231E+03  0.00000000000E+00 0. -1.
         -1    1    3    3    0  502 -0.55992722554E+02  0.31628681922E+03  0.30319917391E+03  0.44170383297E+03  0.00000000000E+00 0.  1.
         13    1    5    5    0    0 -0.52320627368E+02 -0.52176275893E+01 -0.85399768651E+02  0.10028854457E+03  0.00000000000E+00 0.  1.
        -13    1    5    5    0    0 -0.10307636012E+03 -0.17776699940E+03 -0.32174272358E+03  0.38176461631E+03  0.00000000000E+00 0. -1.
          4    1    6    6  503    0  0.13767818738E+03 -0.10750350875E+03 -0.67480438039E+02  0.18725890417E+03  0.00000000000E+00 0.  1.
         -4    1    6    6    0  503  0.16925071132E+03 -0.27571776795E+03 -0.70350611133E+02  0.33108201300E+03  0.00000000000E+00 0. -1.
<mgrwt>
<rscale>  0 0.67251565E+03</rscale>
<asrwt>0</asrwt>
<pdfrwt beam="1">  1        2 0.12971055E+00 0.67251565E+03</pdfrwt>
<pdfrwt beam="2">  1       -2 0.14086134E+00 0.67251565E+03</pdfrwt>
<totfact> 0.11631116E+01</totfact>
</mgrwt>
</event>
<event>
12    1  0.1335216E-007  0.7851675E+03  0.7818608E-02  0.9581738E-01
          1   -1    0    0  501    0  0.00000000000E+00  0.00000000000E+00  0.20258649444E+04  0.20258649444E+04  0.00000000000E+00 0. -1.
         -1   -1    0    0    0  501 -0.00000000000E+00 -0.00000000000E+00 -0.33976996439E+03  0.33976996439E+03  0.00000000000E+00 0.  1.
         23    2    1    2    0    0 -0.41558994149E+03 -0.56089053001E+03  0.49704492888E+03  0.86191092972E+03  0.92323362830E+02 0.  0.
    5000000    2    1    2    0    0  0.41558994149E+03  0.56089053001E+03  0.11890500511E+04  0.15037239790E+04  0.60002716186E+03 0.  0.
         23    2    4    4    0    0  0.47130297660E+02  0.47345308757E+03  0.41778348683E+03  0.63934530116E+03  0.88545362153E+02 0.  0.
         23    2    4    4    0    0  0.36845964383E+03  0.87437442435E+02  0.77126656426E+03  0.86437867786E+03  0.94289819844E+02 0.  0.
          3    1    3    3  502    0 -0.80656628261E+02 -0.14412506639E+03  0.15951133202E+03  0.22961139233E+03  0.00000000000E+00 0. -1.
         -3    1    3    3    0  502 -0.33493331323E+03 -0.41676546362E+03  0.33753359686E+03  0.63229953739E+03  0.00000000000E+00 0.  1.
         13    1    5    5    0    0 -0.14494405669E+02  0.16352882424E+02  0.11530397716E+02  0.24707380087E+02  0.00000000000E+00 0.  1.
        -13    1    5    5    0    0  0.61624703329E+02  0.45710020515E+03  0.40625308911E+03  0.61463792107E+03  0.00000000000E+00 0. -1.
          1    1    6    6  503    0  0.13580031668E+03 -0.77899715791E+01  0.32215435399E+03  0.34969391968E+03  0.00000000000E+00 0. -1.
         -1    1    6    6    0  503  0.23265932715E+03  0.95227414014E+02  0.44911221027E+03  0.51468475818E+03  0.00000000000E+00 0.  1.
<mgrwt>
<rscale>  0 0.78516753E+03</rscale>
<asrwt>0</asrwt>
<pdfrwt beam="1">  1        1 0.31167152E+00 0.78516753E+03</pdfrwt>
<pdfrwt beam="2">  1       -1 0.52272304E-01 0.78516753E+03</pdfrwt>
<totfact> 0.10972855E+01</totfact>
</mgrwt>
</event>
<event>
12    1  0.1335216E-007  0.6435030E+03  0.7818608E-02  0.9819047E-01
         -2   -1    0    0    0  501 -0.00000000000E+00  0.00000000000E+00  0.34762162402E+03  0.34762162402E+03  0.00000000000E+00 0.  1.
          2   -1    0    0  501    0  0.00000000000E+00 -0.00000000000E+00 -0.13718504550E+04  0.13718504550E+04  0.00000000000E+00 0. -1.
         23    2    1    2    0    0  0.13240510446E+02 -0.54750064784E+03 -0.53567852506E+03  0.77146524353E+03  0.90966308464E+02 0.  0.
    5000000    2    1    2    0    0 -0.13240510446E+02  0.54750064784E+03 -0.48855030594E+03  0.94800683551E+03  0.60008606736E+03 0.  0.
         23    2    4    4    0    0  0.21313504921E+03  0.13929435389E+03 -0.42453789976E+01  0.26926285419E+03  0.87492829299E+02 0.  0.
         23    2    4    4    0    0 -0.22637555965E+03  0.40820629395E+03 -0.48430492694E+03  0.67874398132E+03  0.90905761586E+02 0.  0.
          4    1    3    3  502    0  0.34732554994E+02 -0.43664104911E+03 -0.38500983663E+03  0.58317607157E+03  0.00000000000E+00 0. -1.
         -4    1    3    3    0  502 -0.21492044548E+02 -0.11085959873E+03 -0.15066868842E+03  0.18828917197E+03  0.00000000000E+00 0.  1.
         13    1    5    5    0    0  0.21596904159E+03  0.14434257445E+03  0.32593920565E+01  0.25978458261E+03  0.00000000000E+00 0.  1.
        -13    1    5    5    0    0 -0.28339923856E+01 -0.50482205573E+01 -0.75047710541E+01  0.94782715836E+01  0.00000000000E+00 0. -1.
          1    1    6    6  503    0 -0.18070176604E+03  0.26948409032E+03 -0.28638188804E+03  0.43276944091E+03  0.00000000000E+00 0.  1.
         -1    1    6    6    0  503 -0.45673793611E+02  0.13872220363E+03 -0.19792303890E+03  0.24597454041E+03  0.00000000000E+00 0. -1.
<mgrwt>
<rscale>  0 0.64350297E+03</rscale>
<asrwt>0</asrwt>
<pdfrwt beam="1">  1        2 0.21105391E+00 0.64350297E+03</pdfrwt>
<pdfrwt beam="2">  1       -2 0.53480251E-01 0.64350297E+03</pdfrwt>
<totfact> 0.51060443E+01</totfact>
</mgrwt>
</event>
<event>
12    1  0.1335216E-007  0.6075441E+03  0.7818608E-02  0.9889877E-01
         -2   -1    0    0    0  501 -0.00000000000E+00  0.00000000000E+00  0.10847729037E+04  0.10847729037E+04  0.00000000000E+00 0.  1.
          2   -1    0    0  501    0  0.00000000000E+00 -0.00000000000E+00 -0.40119616861E+03  0.40119616861E+03  0.00000000000E+00 0. -1.
         23    2    1    2    0    0  0.23118475633E+03  0.46249070046E+03  0.31799605163E+03  0.61360380144E+03  0.89688888510E+02 0.  0.
    5000000    2    1    2    0    0 -0.23118475633E+03 -0.46249070046E+03  0.36558068351E+03  0.87236527091E+03  0.60002324136E+03 0.  0.
         23    2    4    4    0    0  0.13738726813E+03 -0.11413045166E+03  0.28912625282E+03  0.35146666704E+03  0.89631504115E+02 0.  0.
         23    2    4    4    0    0 -0.36857202446E+03 -0.34836024880E+03  0.76454430691E+02  0.52089860387E+03  0.91048752794E+02 0.  0.
          2    1    3    3  502    0  0.11497654908E+03  0.20959792554E+03  0.96085545896E+02  0.25764962519E+03  0.00000000000E+00 0. -1.
         -2    1    3    3    0  502  0.11620820724E+03  0.25289277492E+03  0.22191050573E+03  0.35595417625E+03  0.00000000000E+00 0.  1.
         11    1    5    5    0    0  0.83102627563E+02 -0.26946233515E+02  0.18812847266E+03  0.20742340377E+03  0.00000000000E+00 0.  1.
        -11    1    5    5    0    0  0.54284640570E+02 -0.87184218140E+02  0.10099778016E+03  0.14404326326E+03  0.00000000000E+00 0. -1.
          1    1    6    6  503    0 -0.10300713816E+03 -0.83786145106E+02 -0.18840363874E+02  0.13411020817E+03  0.00000000000E+00 0. -1.
         -1    1    6    6    0  503 -0.26556488630E+03 -0.26457410370E+03  0.95294794565E+02  0.38678839570E+03  0.00000000000E+00 0.  1.
<mgrwt>
<rscale>  0 0.60754411E+03</rscale>
<asrwt>0</asrwt>
<pdfrwt beam="1">  1        2 0.61722488E-01 0.60754411E+03</pdfrwt>
<pdfrwt beam="2">  1       -2 0.16688814E+00 0.60754411E+03</pdfrwt>
<totfact> 0.18283230E+01</totfact>
</mgrwt>
</event>
<event>
12    1  0.1335216E-007  0.5655416E+03  0.7818608E-02  0.9979593E-01
          1   -1    0    0  501    0  0.00000000000E+00  0.00000000000E+00  0.15504149796E+04  0.15504149796E+04  0.00000000000E+00 0. -1.
         -1   -1    0    0    0  501 -0.00000000000E+00 -0.00000000000E+00 -0.26206793030E+03  0.26206793030E+03  0.00000000000E+00 0.  1.
         23    2    1    2    0    0 -0.44991345556E+03 -0.30808435126E+02  0.77232461875E+03  0.90169965881E+03  0.11491597282E+03 0.  0.
    5000000    2    1    2    0    0  0.44991345556E+03  0.30808435126E+02  0.51602243051E+03  0.91078325104E+03  0.59989641141E+03 0.  0.
         23    2    4    4    0    0 -0.10313478669E+03  0.43692714339E+02  0.25343651181E+03  0.29199124619E+03  0.92103120577E+02 0.  0.
         23    2    4    4    0    0  0.55304824225E+03 -0.12884279213E+02  0.26258591870E+03  0.61879200486E+03  0.89015828167E+02 0.  0.
          2    1    3    3  502    0 -0.30934063170E+03 -0.38338401526E+02  0.42603335890E+03  0.52788813431E+03  0.00000000000E+00 0. -1.
         -2    1    3    3    0  502 -0.14057282386E+03  0.75299663998E+01  0.34629125985E+03  0.37381152450E+03  0.00000000000E+00 0.  1.
         11    1    5    5    0    0 -0.87062729562E+02  0.56438729860E+02  0.12743887474E+03  0.16433476778E+03  0.00000000000E+00 0. -1.
        -11    1    5    5    0    0 -0.16072057131E+02 -0.12746015522E+02  0.12599763707E+03  0.12765647840E+03  0.00000000000E+00 0.  1.
          3    1    6    6  503    0  0.25705828171E+03  0.11696587527E+02  0.77120008692E+02  0.26863221343E+03  0.00000000000E+00 0. -1.
         -3    1    6    6    0  503  0.29598996055E+03 -0.24580866740E+02  0.18546591001E+03  0.35015979142E+03  0.00000000000E+00 0.  1.
<mgrwt>
<rscale>  0 0.56554163E+03</rscale>
<asrwt>0</asrwt>
<pdfrwt beam="1">  1        1 0.23852538E+00 0.56554163E+03</pdfrwt>
<pdfrwt beam="2">  1       -1 0.40318144E-01 0.56554163E+03</pdfrwt>
<totfact> 0.38296358E+01</totfact>
</mgrwt>
</event>
<event>
12    1  0.1335216E-007  0.6242722E+03  0.7818608E-02  0.9856290E-01
         -2   -1    0    0    0  501 -0.00000000000E+00  0.00000000000E+00  0.39492160872E+03  0.39492160872E+03  0.00000000000E+00 0.  1.
          2   -1    0    0  501    0  0.00000000000E+00 -0.00000000000E+00 -0.13281247646E+04  0.13281247646E+04  0.00000000000E+00 0. -1.
         23    2    1    2    0    0 -0.40059248030E+03  0.36060704678E+03 -0.85766738418E+02  0.55312655752E+03  0.89895927348E+02 0.  0.
    5000000    2    1    2    0    0  0.40059248030E+03 -0.36060704678E+03 -0.84743641744E+03  0.11699198158E+04  0.60004342867E+03 0.  0.
         23    2    4    4    0    0  0.37982234693E+03 -0.52892518112E+02 -0.72476436196E+03  0.82527705746E+03  0.93467681537E+02 0.  0.
         23    2    4    4    0    0  0.20770133362E+02 -0.30771452867E+03 -0.12267205548E+03  0.34464275833E+03  0.92793146719E+02 0.  0.
          1    1    3    3  502    0 -0.17973575163E+03  0.20582627137E+03 -0.11973152072E+02  0.27351919634E+03  0.00000000000E+00 0. -1.
         -1    1    3    3    0  502 -0.22085672867E+03  0.15478077541E+03 -0.73793586346E+02  0.27960736117E+03  0.00000000000E+00 0.  1.
         13    1    5    5    0    0  0.20592965777E+03 -0.72191213490E+02 -0.43809510615E+03  0.48943428290E+03  0.00000000000E+00 0. -1.
        -13    1    5    5    0    0  0.17389268917E+03  0.19298695378E+02 -0.28666925582E+03  0.33584277455E+03  0.00000000000E+00 0.  1.
          1    1    6    6  503    0 -0.12575414686E+02 -0.17938932441E+03 -0.11148782840E+03  0.21158498683E+03  0.00000000000E+00 0. -1.
         -1    1    6    6    0  503  0.33345548048E+02 -0.12832520425E+03 -0.11184227080E+02  0.13305777150E+03  0.00000000000E+00 0.  1.
<mgrwt>
<rscale>  0 0.62427224E+03</rscale>
<asrwt>0</asrwt>
<pdfrwt beam="1">  1        2 0.20432689E+00 0.62427224E+03</pdfrwt>
<pdfrwt beam="2">  1       -2 0.60757170E-01 0.62427224E+03</pdfrwt>
<totfact> 0.41531400E+01</totfact>
</mgrwt>
</event>
<event>
12    1  0.1335216E-007  0.4377982E+03  0.7818608E-02  0.1031425E+00
         -1   -1    0    0    0  501 -0.00000000000E+00  0.00000000000E+00  0.39726465105E+03  0.39726465105E+03  0.00000000000E+00 0.  1.
          1   -1    0    0  501    0  0.00000000000E+00 -0.00000000000E+00 -0.69420692818E+03  0.69420692818E+03  0.00000000000E+00 0. -1.
         23    2    1    2    0    0 -0.28210510240E+03 -0.12835324370E+03 -0.26206899204E+03  0.41528887653E+03  0.87902505163E+02 0.  0.
    5000000    2    1    2    0    0  0.28210510240E+03  0.12835324370E+03 -0.34873285094E+02  0.67618270270E+03  0.59995754637E+03 0.  0.
         23    2    4    4    0    0  0.38165261961E+03  0.17669899067E+03 -0.18607100427E+03  0.46896079199E+03  0.91763557256E+02 0.  0.
         23    2    4    4    0    0 -0.99547517210E+02 -0.48345746974E+02  0.15119771918E+03  0.20722191071E+03  0.88505087758E+02 0.  0.
          2    1    3    3  502    0 -0.19032647918E+03 -0.86100666029E+02 -0.22662474564E+03  0.30821464713E+03  0.00000000000E+00 0. -1.
         -2    1    3    3    0  502 -0.91778623211E+02 -0.42252577666E+02 -0.35444246397E+02  0.10707422940E+03  0.00000000000E+00 0.  1.
         11    1    5    5    0    0  0.26778719746E+03  0.16525043801E+03 -0.15264111049E+03  0.34973847229E+03  0.00000000000E+00 0.  1.
        -11    1    5    5    0    0  0.11386542214E+03  0.11448552663E+02 -0.33429893786E+02  0.11922231971E+03  0.00000000000E+00 0. -1.
          2    1    6    6  503    0 -0.11259254746E+03 -0.35040372628E+02  0.14639435597E+03  0.18797929917E+03  0.00000000000E+00 0.  1.
         -2    1    6    6    0  503  0.13045030248E+02 -0.13305374346E+02  0.48033632105E+01  0.19242611537E+02  0.00000000000E+00 0. -1.
<mgrwt>
<rscale>  0 0.43779816E+03</rscale>
<asrwt>0</asrwt>
<pdfrwt beam="1">  1        1 0.10680107E+00 0.43779816E+03</pdfrwt>
<pdfrwt beam="2">  1       -1 0.61117639E-01 0.43779816E+03</pdfrwt>
<totfact> 0.78882277E+01</totfact>
</mgrwt>
</event>
<event>
12    1  0.1335216E-007  0.1421618E+04  0.7818608E-02  0.8938317E-01
          2   -1    0    0  501    0  0.00000000000E+00  0.00000000000E+00  0.27700231875E+04  0.27700231875E+04  0.00000000000E+00 0.  1.
         -2   -1    0    0    0  501 -0.00000000000E+00 -0.00000000000E+00 -0.87583612037E+03  0.87583612037E+03  0.00000000000E+00 0. -1.
         23    2    1    2    0    0  0.43715446459E+03 -0.12949158034E+04  0.19373159954E+03  0.13832402413E+04  0.88941939608E+02 0.  0.
    5000000    2    1    2    0    0 -0.43715446459E+03  0.12949158034E+04  0.17004554676E+04  0.22626190666E+04  0.59998773289E+03 0.  0.
         23    2    4    4    0    0 -0.83044067283E+02  0.10189919377E+04  0.12841698494E+04  0.16437596536E+04  0.87250847617E+02 0.  0.
         23    2    4    4    0    0 -0.35411039730E+03  0.27592386566E+03  0.41628561823E+03  0.61885941307E+03  0.90360965421E+02 0.  0.
          3    1    3    3  502    0  0.24760053843E+03 -0.60504417678E+03  0.75384919009E+02  0.65807854281E+03  0.00000000000E+00 0. -1.
         -3    1    3    3    0  502  0.18955392615E+03 -0.68987162659E+03  0.11834668053E+03  0.72516169844E+03  0.00000000000E+00 0.  1.
         13    1    5    5    0    0 -0.58311875834E+02  0.52248590978E+03  0.59474260119E+03  0.79379503806E+03  0.00000000000E+00 0.  1.
        -13    1    5    5    0    0 -0.24732191450E+02  0.49650602794E+03  0.68942724818E+03  0.84996461550E+03  0.00000000000E+00 0. -1.
          3    1    6    6  503    0 -0.24561463024E+03  0.21695823553E+03  0.34689471337E+03  0.47721417070E+03  0.00000000000E+00 0. -1.
         -3    1    6    6    0  503 -0.10849576706E+03  0.58965630132E+02  0.69390904868E+02  0.14164524237E+03  0.00000000000E+00 0.  1.
<mgrwt>
<rscale>  0 0.14216183E+04</rscale>
<asrwt>0</asrwt>
<pdfrwt beam="1">  1        2 0.42615741E+00 0.14216183E+04</pdfrwt>
<pdfrwt beam="2">  1       -2 0.13474402E+00 0.14216183E+04</pdfrwt>
<totfact> 0.91424573E-01</totfact>
</mgrwt>
</event>
<event>
12    1  0.1335216E-007  0.1371908E+04  0.7818608E-02  0.8974408E-01
          2   -1    0    0  501    0  0.00000000000E+00  0.00000000000E+00  0.15553581764E+04  0.15553581764E+04  0.00000000000E+00 0.  1.
         -2   -1    0    0    0  501 -0.00000000000E+00 -0.00000000000E+00 -0.15203953647E+04  0.15203953647E+04  0.00000000000E+00 0. -1.
         23    2    1    2    0    0 -0.12689971255E+04 -0.43025399612E+03 -0.60645685293E+03  0.14736189374E+04  0.91053020542E+02 0.  0.
    5000000    2    1    2    0    0  0.12689971255E+04  0.43025399612E+03  0.64141966464E+03  0.16021346037E+04  0.59995324538E+03 0.  0.
         23    2    4    4    0    0  0.56281824252E+03 -0.12296889630E+02  0.42843152078E+02  0.57209202305E+03  0.92402162054E+02 0.  0.
         23    2    4    4    0    0  0.70617888293E+03  0.44255088575E+03  0.59857651257E+03  0.10300425807E+04  0.90299365488E+02 0.  0.
          4    1    3    3  502    0 -0.64032078422E+03 -0.26461497787E+03 -0.32029244177E+03  0.76329485880E+03  0.00000000000E+00 0. -1.
         -4    1    3    3    0  502 -0.62867634123E+03 -0.16563901825E+03 -0.28616441116E+03  0.71032407857E+03  0.00000000000E+00 0.  1.
         11    1    5    5    0    0  0.22526417178E+03  0.37848145789E+01  0.61817161815E+02  0.23362284435E+03  0.00000000000E+00 0. -1.
        -11    1    5    5    0    0  0.33755407074E+03 -0.16081704208E+02 -0.18974009737E+02  0.33846917870E+03  0.00000000000E+00 0.  1.
          2    1    6    6  503    0  0.10070170654E+03  0.30486979874E+02  0.89100695039E+02  0.13787394061E+03  0.00000000000E+00 0. -1.
         -2    1    6    6    0  503  0.60547717640E+03  0.41206390587E+03  0.50947581753E+03  0.89216864006E+03  0.00000000000E+00 0.  1.
<mgrwt>
<rscale>  0 0.13719077E+04</rscale>
<asrwt>0</asrwt>
<pdfrwt beam="1">  1        2 0.23928587E+00 0.13719077E+04</pdfrwt>
<pdfrwt beam="2">  1       -2 0.23390698E+00 0.13719077E+04</pdfrwt>
<totfact> 0.90934610E-01</totfact>
</mgrwt>
</event>
<event>
12    1  0.1335216E-007  0.7371352E+03  0.7818608E-02  0.9655752E-01
         -2   -1    0    0    0  501 -0.00000000000E+00  0.00000000000E+00  0.11063747180E+04  0.11063747180E+04  0.00000000000E+00 0.  1.
          2   -1    0    0  501    0  0.00000000000E+00 -0.00000000000E+00 -0.64694990670E+03  0.64694990670E+03  0.00000000000E+00 0. -1.
         23    2    1    2    0    0  0.42820628018E+03  0.56394697464E+03 -0.82374102109E+01  0.71394328187E+03  0.90831416398E+02 0.  0.
    5000000    2    1    2    0    0 -0.42820628018E+03 -0.56394697464E+03  0.46766222148E+03  0.10393813428E+04  0.60017398624E+03 0.  0.
         23    2    4    4    0    0 -0.19194631664E+03 -0.76176649674E+02  0.43370243701E+03  0.48867836120E+03  0.89791237938E+02 0.  0.
         23    2    4    4    0    0 -0.23625996354E+03 -0.48777032497E+03  0.33959784471E+02  0.55070298160E+03  0.91552425897E+02 0.  0.
          2    1    3    3  502    0  0.26820592758E+03  0.41397509211E+03  0.14439860385E+02  0.49347574007E+03  0.00000000000E+00 0. -1.
         -2    1    3    3    0  502  0.16000035260E+03  0.14997188253E+03 -0.22677270596E+02  0.22046754179E+03  0.00000000000E+00 0.  1.
         11    1    5    5    0    0 -0.18794654458E+03 -0.55837386836E+02  0.33794161537E+03  0.39069969643E+03  0.00000000000E+00 0.  1.
        -11    1    5    5    0    0 -0.39997720507E+01 -0.20339262838E+02  0.95760821637E+02  0.97978664768E+02  0.00000000000E+00 0. -1.
          1    1    6    6  503    0 -0.28484492300E+02 -0.11157449562E+03  0.36937692136E+02  0.12093232601E+03  0.00000000000E+00 0. -1.
         -1    1    6    6    0  503 -0.20777547124E+03 -0.37619582935E+03 -0.29779076649E+01  0.42977065559E+03  0.00000000000E+00 0.  1.
<mgrwt>
<rscale>  0 0.73713521E+03</rscale>
<asrwt>0</asrwt>
<pdfrwt beam="1">  1        2 0.99530755E-01 0.73713521E+03</pdfrwt>
<pdfrwt beam="2">  1       -2 0.17021149E+00 0.73713521E+03</pdfrwt>
<totfact> 0.97789079E+00</totfact>
</mgrwt>
</event>
<event>
12    1  0.1335216E-007  0.1006520E+04  0.7818608E-02  0.9301423E-01
          1   -1    0    0  501    0  0.00000000000E+00  0.00000000000E+00  0.11172721508E+04  0.11172721508E+04  0.00000000000E+00 0. -1.
         -1   -1    0    0    0  501 -0.00000000000E+00 -0.00000000000E+00 -0.10537291343E+04  0.10537291343E+04  0.00000000000E+00 0.  1.
         23    2    1    2    0    0 -0.44293820852E+03  0.83554300060E+03  0.35410176913E+03  0.10139718903E+04  0.91785451007E+02 0.  0.
    5000000    2    1    2    0    0  0.44293820852E+03 -0.83554300060E+03 -0.29055875264E+03  0.11570293948E+04  0.59997189044E+03 0.  0.
         23    2    4    4    0    0  0.24298468033E+03 -0.60433494779E+02  0.69211319553E+02  0.27495223754E+03  0.90081984925E+02 0.  0.
         23    2    4    4    0    0  0.19995352819E+03 -0.77510950582E+03 -0.35977007219E+03  0.88207715728E+03  0.88597105491E+02 0.  0.
          4    1    3    3  502    0 -0.27225674249E+03  0.59341916913E+03  0.26501562990E+03  0.70462992288E+03  0.00000000000E+00 0. -1.
         -4    1    3    3    0  502 -0.17068146602E+03  0.24212383147E+03  0.89086139226E+02  0.30934196743E+03  0.00000000000E+00 0.  1.
         11    1    5    5    0    0  0.10477276447E+03  0.13514184934E+02  0.50493730524E+02  0.11708792504E+03  0.00000000000E+00 0. -1.
        -11    1    5    5    0    0  0.13821191586E+03 -0.73947679713E+02  0.18717589029E+02  0.15786431250E+03  0.00000000000E+00 0.  1.
          2    1    6    6  503    0  0.39867448553E+02 -0.22836935537E+03 -0.65656760825E+02  0.24094145797E+03  0.00000000000E+00 0. -1.
         -2    1    6    6    0  503  0.16008607964E+03 -0.54674015045E+03 -0.29411331137E+03  0.64113569931E+03  0.00000000000E+00 0.  1.
<mgrwt>
<rscale>  0 0.10065199E+04</rscale>
<asrwt>0</asrwt>
<pdfrwt beam="1">  1        1 0.17188802E+00 0.10065199E+04</pdfrwt>
<pdfrwt beam="2">  1       -1 0.16211218E+00 0.10065199E+04</pdfrwt>
<totfact> 0.34746850E+00</totfact>
</mgrwt>
</event>
<event>
12    1  0.1335216E-007  0.7656955E+03  0.7818608E-02  0.9611043E-01
          2   -1    0    0  501    0  0.00000000000E+00  0.00000000000E+00  0.15823224774E+04  0.15823224774E+04  0.00000000000E+00 0. -1.
         -2   -1    0    0    0  501 -0.00000000000E+00 -0.00000000000E+00 -0.39539118639E+03  0.39539118639E+03  0.00000000000E+00 0.  1.
         23    2    1    2    0    0  0.44961892749E+03  0.49503501653E+03  0.40452837730E+03  0.78635442099E+03  0.86563386110E+02 0.  0.
    5000000    2    1    2    0    0 -0.44961892749E+03 -0.49503501653E+03  0.78240291370E+03  0.11913592428E+04  0.59997139803E+03 0.  0.
         23    2    4    4    0    0 -0.15832054269E+03 -0.53726475774E+03  0.62624374974E+03  0.84509219405E+03  0.90998726402E+02 0.  0.
         23    2    4    4    0    0 -0.29129838480E+03  0.42229741214E+02  0.15615916396E+03  0.34626704874E+03  0.94218281247E+02 0.  0.
          2    1    3    3  502    0  0.31868451185E+03  0.40159319429E+03  0.32388070826E+03  0.60641209172E+03  0.00000000000E+00 0. -1.
         -2    1    3    3    0  502  0.13093441564E+03  0.93441822239E+02  0.80647669042E+02  0.17994232927E+03  0.00000000000E+00 0.  1.
         13    1    5    5    0    0 -0.56952943495E+02 -0.11833160018E+03  0.10122012881E+03  0.16580566893E+03  0.00000000000E+00 0.  1.
        -13    1    5    5    0    0 -0.10136759920E+03 -0.41893315756E+03  0.52502362093E+03  0.67928652512E+03  0.00000000000E+00 0. -1.
          3    1    6    6  503    0 -0.19862377953E+03  0.41086801430E+02  0.15205231108E+03  0.25349445034E+03  0.00000000000E+00 0. -1.
         -3    1    6    6    0  503 -0.92674605270E+02  0.11429397844E+01  0.41068528819E+01  0.92772598400E+02  0.00000000000E+00 0.  1.
<mgrwt>
<rscale>  0 0.76569546E+03</rscale>
<asrwt>0</asrwt>
<pdfrwt beam="1">  1        2 0.24343422E+00 0.76569546E+03</pdfrwt>
<pdfrwt beam="2">  1       -2 0.60829414E-01 0.76569546E+03</pdfrwt>
<totfact> 0.29357469E+01</totfact>
</mgrwt>
</event>
<event>
12    1  0.1335216E-007  0.1928043E+04  0.7818608E-02  0.8641022E-01
         -2   -1    0    0    0  501 -0.00000000000E+00  0.00000000000E+00  0.44053546930E+04  0.44053546930E+04  0.00000000000E+00 0. -1.
          2   -1    0    0  501    0  0.00000000000E+00 -0.00000000000E+00 -0.10881843505E+04  0.10881843505E+04  0.00000000000E+00 0.  1.
         23    2    1    2    0    0  0.12095660273E+04 -0.14948677278E+04  0.28273487902E+04  0.34204762588E+04  0.89873007708E+02 0.  0.
    5000000    2    1    2    0    0 -0.12095660273E+04  0.14948677278E+04  0.48982155229E+03  0.20730627847E+04  0.59998721515E+03 0.  0.
         23    2    4    4    0    0 -0.48275390443E+03  0.52640896177E+03  0.46802708909E+03  0.85875055376E+03  0.90804351208E+02 0.  0.
         23    2    4    4    0    0 -0.72681212288E+03  0.96845876604E+03  0.21794463199E+02  0.12143122310E+04  0.88943533741E+02 0.  0.
          1    1    3    3  502    0  0.62175427051E+03 -0.83918527038E+03  0.15255383323E+04  0.18488043418E+04  0.00000000000E+00 0. -1.
         -1    1    3    3    0  502  0.58781175680E+03 -0.65568245742E+03  0.13018104579E+04  0.15716719170E+04  0.00000000000E+00 0.  1.
         11    1    5    5    0    0 -0.34860908755E+03  0.32521398379E+03  0.33583899904E+03  0.58316401162E+03  0.00000000000E+00 0.  1.
        -11    1    5    5    0    0 -0.13414481688E+03  0.20119497798E+03  0.13218809005E+03  0.27558654214E+03  0.00000000000E+00 0. -1.
          1    1    6    6  503    0 -0.64418491926E+03  0.82194292245E+03 -0.28705457879E+01  0.10443048492E+04  0.00000000000E+00 0. -1.
         -1    1    6    6    0  503 -0.82627203614E+02  0.14651584359E+03  0.24665008987E+02  0.17000738180E+03  0.00000000000E+00 0.  1.
<mgrwt>
<rscale>  0 0.19280433E+04</rscale>
<asrwt>0</asrwt>
<pdfrwt beam="1">  1        2 0.16741298E+00 0.19280433E+04</pdfrwt>
<pdfrwt beam="2">  1       -2 0.67774687E+00 0.19280433E+04</pdfrwt>
<totfact> 0.53212296E-03</totfact>
</mgrwt>
</event>
<event>
12    1  0.1335216E-007  0.8834683E+03  0.7818608E-02  0.9446486E-01
          4   -1    0    0  501    0  0.00000000000E+00  0.00000000000E+00  0.60344579202E+03  0.60344579202E+03  0.00000000000E+00 0. -1.
         -4   -1    0    0    0  501 -0.00000000000E+00 -0.00000000000E+00 -0.15846750209E+04  0.15846750209E+04  0.00000000000E+00 0.  1.
         23    2    1    2    0    0  0.26752500389E+03  0.81767039532E+03 -0.22161868337E+03  0.89303313580E+03  0.90768043546E+02 0.  0.
    5000000    2    1    2    0    0 -0.26752500389E+03 -0.81767039532E+03 -0.75961054554E+03  0.12950876771E+04  0.60007450164E+03 0.  0.
         23    2    4    4    0    0 -0.89039201208E+01 -0.40915687030E+03 -0.36915462571E+02  0.42084870067E+03  0.90896937094E+02 0.  0.
         23    2    4    4    0    0 -0.25862108377E+03 -0.40851352503E+03 -0.72269508297E+03  0.87423897648E+03  0.90760343500E+02 0.  0.
          3    1    3    3  502    0  0.18469400261E+03  0.45295706825E+03 -0.15508469046E+03  0.51316005446E+03  0.00000000000E+00 0. -1.
         -3    1    3    3    0  502  0.82831001287E+02  0.36471332707E+03 -0.66533992913E+02  0.37987308134E+03  0.00000000000E+00 0.  1.
         13    1    5    5    0    0  0.12382045343E+01 -0.40277000992E+03 -0.24385700937E+02  0.40350945026E+03  0.00000000000E+00 0. -1.
        -13    1    5    5    0    0 -0.10142124655E+02 -0.63868603752E+01 -0.12529761634E+02  0.17339250404E+02  0.00000000000E+00 0.  1.
          1    1    6    6  503    0 -0.10705612150E+03 -0.23742873885E+03 -0.33711354845E+03  0.42600347854E+03  0.00000000000E+00 0. -1.
         -1    1    6    6    0  503 -0.15156496228E+03 -0.17108478617E+03 -0.38558153452E+03  0.44823549794E+03  0.00000000000E+00 0.  1.
<mgrwt>
<rscale>  0 0.88346830E+03</rscale>
<asrwt>0</asrwt>
<pdfrwt beam="1">  1        4 0.92837815E-01 0.88346830E+03</pdfrwt>
<pdfrwt beam="2">  1       -4 0.24379615E+00 0.88346830E+03</pdfrwt>
<totfact> 0.13296881E-01</totfact>
</mgrwt>
</event>
<event>
12    1  0.1335216E-007  0.4375337E+03  0.7818608E-02  0.1031506E+00
          2   -1    0    0  501    0  0.00000000000E+00  0.00000000000E+00  0.12562903642E+04  0.12562903642E+04  0.00000000000E+00 0. -1.
         -2   -1    0    0    0  501 -0.00000000000E+00 -0.00000000000E+00 -0.22236267713E+03  0.22236267713E+03  0.00000000000E+00 0.  1.
         23    2    1    2    0    0 -0.23566913030E+03  0.13540781870E+03  0.66355064245E+03  0.72302437367E+03  0.92679951829E+02 0.  0.
    5000000    2    1    2    0    0  0.23566913030E+03 -0.13540781870E+03  0.37037704457E+03  0.75562866762E+03  0.59993358952E+03 0.  0.
         23    2    4    4    0    0  0.98887994093E+02  0.19406498270E+03  0.29553348044E+03  0.37836072150E+03  0.91524557496E+02 0.  0.
         23    2    4    4    0    0  0.13678113621E+03 -0.32947280140E+03  0.74843564129E+02  0.37726794611E+03  0.97304357483E+02 0.  0.
          1    1    3    3  502    0 -0.85087031665E+02  0.82442950064E+02  0.19654856595E+03  0.22949505822E+03  0.00000000000E+00 0.  1.
         -1    1    3    3    0  502 -0.15058209864E+03  0.52964868635E+02  0.46700207651E+03  0.49352931545E+03  0.00000000000E+00 0. -1.
         13    1    5    5    0    0 -0.14766973684E+02  0.53240041132E+02  0.66254487742E+02  0.86268317692E+02  0.00000000000E+00 0. -1.
        -13    1    5    5    0    0  0.11365496778E+03  0.14082494157E+03  0.22927899270E+03  0.29209240381E+03  0.00000000000E+00 0.  1.
          3    1    6    6  503    0  0.77074310934E+02 -0.11746499636E+03 -0.10890995197E+02  0.14091518212E+03  0.00000000000E+00 0. -1.
         -3    1    6    6    0  503  0.59706825277E+02 -0.21200780504E+03  0.85734559326E+02  0.23635276399E+03  0.00000000000E+00 0.  1.
<mgrwt>
<rscale>  0 0.43753372E+03</rscale>
<asrwt>0</asrwt>
<pdfrwt beam="1">  1        2 0.19327544E+00 0.43753372E+03</pdfrwt>
<pdfrwt beam="2">  1       -2 0.34209643E-01 0.43753372E+03</pdfrwt>
<totfact> 0.14660971E+02</totfact>
</mgrwt>
</event>
<event>
12    1  0.1335216E-007  0.1117156E+04  0.7818608E-02  0.9188630E-01
          2   -1    0    0  501    0  0.00000000000E+00  0.00000000000E+00  0.44940798358E+04  0.44940798358E+04  0.00000000000E+00 0. -1.
         -2   -1    0    0    0  501 -0.00000000000E+00 -0.00000000000E+00 -0.30550618361E+03  0.30550618361E+03  0.00000000000E+00 0.  1.
         23    2    1    2    0    0 -0.10361278484E+04  0.28725344999E+03  0.23624045170E+04  0.25971236192E+04  0.89557402763E+02 0.  0.
    5000000    2    1    2    0    0  0.10361278484E+04 -0.28725344999E+03  0.18261691352E+04  0.22024624003E+04  0.59989286660E+03 0.  0.
         23    2    4    4    0    0  0.76689532465E+03 -0.38154810637E+03  0.16322695061E+04  0.18456438824E+04  0.91598055360E+02 0.  0.
         23    2    4    4    0    0  0.26923252379E+03  0.94294656378E+02  0.19389962912E+03  0.35681851786E+03  0.91349627400E+02 0.  0.
          3    1    3    3  502    0 -0.31204377366E+03  0.12108287628E+03  0.79415975835E+03  0.86181326364E+03  0.00000000000E+00 0. -1.
         -3    1    3    3    0  502 -0.72408407478E+03  0.16617057371E+03  0.15682447587E+04  0.17353103555E+04  0.00000000000E+00 0.  1.
         13    1    5    5    0    0  0.29008024593E+03 -0.11213900130E+03  0.66397268345E+03  0.73319944698E+03  0.00000000000E+00 0. -1.
        -13    1    5    5    0    0  0.47681507872E+03 -0.26940910506E+03  0.96829682266E+03  0.11124444355E+04  0.00000000000E+00 0.  1.
          2    1    6    6  503    0  0.27367543501E+03  0.83142836057E+02  0.19241264591E+03  0.34472249886E+03  0.00000000000E+00 0. -1.
         -2    1    6    6    0  503 -0.44429112176E+01  0.11151820321E+02  0.14869832117E+01  0.12096018999E+02  0.00000000000E+00 0.  1.
<mgrwt>
<rscale>  0 0.11171564E+04</rscale>
<asrwt>0</asrwt>
<pdfrwt beam="1">  1        2 0.69139685E+00 0.11171564E+04</pdfrwt>
<pdfrwt beam="2">  1       -2 0.47000955E-01 0.11171564E+04</pdfrwt>
<totfact> 0.56332753E-01</totfact>
</mgrwt>
</event>
<event>
12    1  0.1649973E-007  0.1194153E+04  0.7818608E-02  0.9117990E-01
          2   -1    0    0  501    0  0.00000000000E+00  0.00000000000E+00  0.13741254758E+04  0.13741254758E+04  0.00000000000E+00 0.  1.
         -2   -1    0    0    0  501 -0.00000000000E+00 -0.00000000000E+00 -0.11945974286E+04  0.11945974286E+04  0.00000000000E+00 0. -1.
         23    2    1    2    0    0  0.11573799917E+04  0.99989417862E+02  0.42089149001E+03  0.12387850221E+04  0.88951424172E+02 0.  0.
    5000000    2    1    2    0    0 -0.11573799917E+04 -0.99989417862E+02 -0.24136344286E+03  0.13299378823E+04  0.60079291814E+03 0.  0.
         23    2    4    4    0    0 -0.93131888436E+03  0.71638370733E+02 -0.36583304481E+03  0.10070311452E+04  0.88266585989E+02 0.  0.
         23    2    4    4    0    0 -0.22606110730E+03 -0.17162778859E+03  0.12446960195E+03  0.32290673711E+03  0.90644122864E+02 0.  0.
          2    1    3    3  502    0  0.76713884181E+03  0.10630100828E+03  0.26588635453E+03  0.81883909316E+03  0.00000000000E+00 0.  1.
         -2    1    3    3    0  502  0.39024114985E+03 -0.63115904167E+01  0.15500513549E+03  0.41994592894E+03  0.00000000000E+00 0. -1.
         11    1    5    5    0    0 -0.50904882586E+03  0.72788076709E+02 -0.23125494311E+03  0.56383300714E+03  0.00000000000E+00 0.  1.
        -11    1    5    5    0    0 -0.42227005849E+03 -0.11497059766E+01 -0.13457810170E+03  0.44319813806E+03  0.00000000000E+00 0. -1.
          1    1    6    6  503    0 -0.14052554651E+03 -0.80007083799E+02  0.26593933052E+02  0.16387739306E+03  0.00000000000E+00 0. -1.
         -1    1    6    6    0  503 -0.85535560785E+02 -0.91620704796E+02  0.97875668903E+02  0.15902934405E+03  0.00000000000E+00 0.  1.
<mgrwt>
<rscale>  0 0.11941532E+04</rscale>
<asrwt>0</asrwt>
<pdfrwt beam="1">  1        2 0.21140392E+00 0.11941532E+04</pdfrwt>
<pdfrwt beam="2">  1       -2 0.18378422E+00 0.11941532E+04</pdfrwt>
<totfact> 0.24834956E+00</totfact>
</mgrwt>
</event>
<event>
12    1  0.1335216E-007  0.4330085E+03  0.7818608E-02  0.1032914E+00
         -2   -1    0    0    0  501 -0.00000000000E+00  0.00000000000E+00  0.14255595102E+03  0.14255595102E+03  0.00000000000E+00 0.  1.
          2   -1    0    0  501    0  0.00000000000E+00 -0.00000000000E+00 -0.15916121139E+04  0.15916121139E+04  0.00000000000E+00 0. -1.
         23    2    1    2    0    0  0.13671370069E+03 -0.17889488893E+03 -0.73419543381E+03  0.77404319272E+03  0.96984080797E+02 0.  0.
    5000000    2    1    2    0    0 -0.13671370069E+03  0.17889488893E+03 -0.71486072907E+03  0.96012487219E+03  0.60009990085E+03 0.  0.
         23    2    4    4    0    0 -0.35273574786E+03  0.40078114629E+02 -0.36405985315E+03  0.51521988181E+03  0.82964973637E+02 0.  0.
         23    2    4    4    0    0  0.21602204717E+03  0.13881677430E+03 -0.35080087592E+03  0.44490499038E+03  0.94570472299E+02 0.  0.
          3    1    3    3  502    0  0.10787924873E+03 -0.18585747672E+03 -0.66141279819E+03  0.69544793016E+03  0.00000000000E+00 0. -1.
         -3    1    3    3    0  502  0.28834451964E+02  0.69625877882E+01 -0.72782635618E+02  0.78595262556E+02  0.00000000000E+00 0.  1.
         11    1    5    5    0    0 -0.18064157854E+03  0.56719948278E+02 -0.16109438488E+03  0.24859592368E+03  0.00000000000E+00 0. -1.
        -11    1    5    5    0    0 -0.17209416931E+03 -0.16641833649E+02 -0.20296546827E+03  0.26662395813E+03  0.00000000000E+00 0.  1.
          1    1    6    6  503    0  0.11301961129E+03  0.93540386794E+02 -0.26686110828E+03  0.30452928859E+03  0.00000000000E+00 0. -1.
         -1    1    6    6    0  503  0.10300243587E+03  0.45276387509E+02 -0.83939767643E+02  0.14037570179E+03  0.00000000000E+00 0.  1.
<mgrwt>
<rscale>  0 0.43300846E+03</rscale>
<asrwt>0</asrwt>
<pdfrwt beam="1">  1        2 0.24486339E+00 0.43300846E+03</pdfrwt>
<pdfrwt beam="2">  1       -2 0.21931686E-01 0.43300846E+03</pdfrwt>
<totfact> 0.21431876E+02</totfact>
</mgrwt>
</event>
<event>
12    1  0.1335216E-007  0.6188456E+03  0.7818608E-02  0.9867061E-01
          2   -1    0    0  501    0  0.00000000000E+00  0.00000000000E+00  0.18444977116E+04  0.18444977116E+04  0.00000000000E+00 0. -1.
         -2   -1    0    0    0  501 -0.00000000000E+00 -0.00000000000E+00 -0.23894282059E+03  0.23894282059E+03  0.00000000000E+00 0.  1.
         23    2    1    2    0    0  0.44148613849E+03  0.16826418449E+03  0.28944193709E+03  0.56158380480E+03  0.91525344076E+02 0.  0.
    5000000    2    1    2    0    0 -0.44148613849E+03 -0.16826418449E+03  0.13161129540E+04  0.15218567274E+04  0.60055952655E+03 0.  0.
         23    2    4    4    0    0  0.12550540560E+03 -0.10071655871E+03  0.32866943559E+03  0.37825691141E+03  0.95704028660E+02 0.  0.
         23    2    4    4    0    0 -0.56699154409E+03 -0.67547625780E+02  0.98744351837E+03  0.11435998160E+04  0.82059395467E+02 0.  0.
          1    1    3    3  502    0  0.25179081422E+03  0.74723833816E+02  0.11209389723E+03  0.28556489151E+03  0.00000000000E+00 0. -1.
         -1    1    3    3    0  502  0.18969532427E+03  0.93540350676E+02  0.17734803985E+03  0.27601891329E+03  0.00000000000E+00 0.  1.
         13    1    5    5    0    0  0.36118741090E+01 -0.57896342456E+02  0.99053910324E+02  0.11478984822E+03  0.00000000000E+00 0.  1.
        -13    1    5    5    0    0  0.12189353149E+03 -0.42820216256E+02  0.22961552527E+03  0.26346706318E+03  0.00000000000E+00 0. -1.
          1    1    6    6  503    0 -0.56909412918E+03 -0.64646471033E+02  0.98439914285E+03  0.11388981370E+04  0.00000000000E+00 0. -1.
         -1    1    6    6    0  503  0.21025850890E+01 -0.29011547475E+01  0.30443755229E+01  0.47016789820E+01  0.00000000000E+00 0.  1.
<mgrwt>
<rscale>  0 0.61884556E+03</rscale>
<asrwt>0</asrwt>
<pdfrwt beam="1">  1        2 0.28376887E+00 0.61884556E+03</pdfrwt>
<pdfrwt beam="2">  1       -2 0.36760435E-01 0.61884556E+03</pdfrwt>
<totfact> 0.59268317E+01</totfact>
</mgrwt>
</event>
<event>
12    1  0.1335216E-007  0.9794671E+03  0.7818608E-02  0.9331356E-01
         -2   -1    0    0    0  501 -0.00000000000E+00  0.00000000000E+00  0.13293344023E+04  0.13293344023E+04  0.00000000000E+00 0.  1.
          2   -1    0    0  501    0  0.00000000000E+00 -0.00000000000E+00 -0.81042972030E+03  0.81042972030E+03  0.00000000000E+00 0. -1.
         23    2    1    2    0    0 -0.94779827877E+03 -0.34984524249E+02  0.26779468730E+03  0.98960638496E+03  0.89784789431E+02 0.  0.
    5000000    2    1    2    0    0  0.94779827877E+03  0.34984524249E+02  0.25110999474E+03  0.11501577377E+04  0.60021754214E+03 0.  0.
         23    2    4    4    0    0  0.19657213867E+03  0.13996979304E+03  0.28627275617E+03  0.38538676429E+03  0.91316583904E+02 0.  0.
         23    2    4    4    0    0  0.75122614011E+03 -0.10498526879E+03 -0.35162761434E+02  0.76477097339E+03  0.90970334218E+02 0.  0.
          3    1    3    3  502    0 -0.37627978698E+03  0.29951083241E+02  0.10309673679E+03  0.39129590160E+03  0.00000000000E+00 0. -1.
         -3    1    3    3    0  502 -0.57151849180E+03 -0.64935607490E+02  0.16469795051E+03  0.59831048335E+03  0.00000000000E+00 0.  1.
         13    1    5    5    0    0  0.71065843101E+02  0.67247862813E+02  0.18237821728E+03  0.20696483577E+03  0.00000000000E+00 0. -1.
        -13    1    5    5    0    0  0.12550629557E+03  0.72721930223E+02  0.10389453890E+03  0.17842192852E+03  0.00000000000E+00 0.  1.
          1    1    6    6  503    0  0.47800805825E+03 -0.24871941366E+02 -0.36526138783E+02  0.48004632697E+03  0.00000000000E+00 0. -1.
         -1    1    6    6    0  503  0.27321808185E+03 -0.80113327421E+02  0.13633773490E+01  0.28472464642E+03  0.00000000000E+00 0.  1.
<mgrwt>
<rscale>  0 0.97946712E+03</rscale>
<asrwt>0</asrwt>
<pdfrwt beam="1">  1        2 0.12468150E+00 0.97946712E+03</pdfrwt>
<pdfrwt beam="2">  1       -2 0.20451298E+00 0.97946712E+03</pdfrwt>
<totfact> 0.41866796E+00</totfact>
</mgrwt>
</event>
<event>
12    1  0.1335216E-007  0.1326361E+04  0.7818608E-02  0.9008918E-01
         -1   -1    0    0    0  501 -0.00000000000E+00  0.00000000000E+00  0.91295406527E+03  0.91295406527E+03  0.00000000000E+00 0.  1.
          1   -1    0    0  501    0  0.00000000000E+00 -0.00000000000E+00 -0.22489962486E+04  0.22489962486E+04  0.00000000000E+00 0. -1.
         23    2    1    2    0    0 -0.35866748372E+02 -0.12851681513E+04 -0.12173446580E+03  0.12944978213E+04  0.89228518166E+02 0.  0.
    5000000    2    1    2    0    0  0.35866748372E+02  0.12851681513E+04 -0.12143077176E+04  0.18674524926E+04  0.59990997529E+03 0.  0.
         23    2    4    4    0    0  0.17017699285E+03  0.11475415604E+04 -0.11698934786E+04  0.16501276122E+04  0.91970341198E+02 0.  0.
         23    2    4    4    0    0 -0.13431024448E+03  0.13762659093E+03 -0.44414238985E+02  0.21732488041E+03  0.90978891592E+02 0.  0.
          4    1    3    3  502    0 -0.19645314201E+01 -0.98274670433E+03 -0.12109587302E+03  0.99018137465E+03  0.00000000000E+00 0. -1.
         -4    1    3    3    0  502 -0.33902216951E+02 -0.30242144697E+03 -0.63859277714E+00  0.30431644665E+03  0.00000000000E+00 0.  1.
         13    1    5    5    0    0  0.65027473753E+02  0.22442585673E+03 -0.26296069431E+03  0.35177246093E+03  0.00000000000E+00 0. -1.
        -13    1    5    5    0    0  0.10514951910E+03  0.92311570364E+03 -0.90693278428E+03  0.12983551513E+04  0.00000000000E+00 0.  1.
          1    1    6    6  503    0  0.72544706292E+01  0.96996277150E+01 -0.22125846856E+02  0.25224258582E+02  0.00000000000E+00 0. -1.
         -1    1    6    6    0  503 -0.14156471511E+03  0.12792696322E+03 -0.22288392129E+02  0.19210062182E+03  0.00000000000E+00 0.  1.
<mgrwt>
<rscale>  0 0.13263610E+04</rscale>
<asrwt>0</asrwt>
<pdfrwt beam="1">  1        1 0.34599942E+00 0.13263610E+04</pdfrwt>
<pdfrwt beam="2">  1       -1 0.14045447E+00 0.13263610E+04</pdfrwt>
<totfact> 0.81270049E-01</totfact>
</mgrwt>
</event>
<event>
12    1  0.1335216E-007  0.1013145E+04  0.7818608E-02  0.9294244E-01
          1   -1    0    0  501    0  0.00000000000E+00  0.00000000000E+00  0.19685752280E+04  0.19685752280E+04  0.00000000000E+00 0.  1.
         -1   -1    0    0    0  501 -0.00000000000E+00 -0.00000000000E+00 -0.53240007931E+03  0.53240007931E+03  0.00000000000E+00 0. -1.
         23    2    1    2    0    0 -0.85428236869E+02 -0.92954770411E+03  0.66173267777E+03  0.11476955280E+04  0.89207456521E+02 0.  0.
    5000000    2    1    2    0    0  0.85428236869E+02  0.92954770411E+03  0.77444247094E+03  0.13532797793E+04  0.60020671644E+03 0.  0.
         23    2    4    4    0    0  0.30291504379E+03  0.70698266226E+03  0.62722809454E+03  0.99654033537E+03  0.89975268576E+02 0.  0.
         23    2    4    4    0    0 -0.21748680692E+03  0.22256504185E+03  0.14721437640E+03  0.35673944395E+03  0.93569488693E+02 0.  0.
          3    1    3    3  502    0 -0.22962778423E+02 -0.17142964765E+03  0.82775998479E+02  0.19174795751E+03  0.00000000000E+00 0. -1.
         -3    1    3    3    0  502 -0.62465458445E+02 -0.75811805646E+03  0.57895667929E+03  0.95594757049E+03  0.00000000000E+00 0.  1.
         11    1    5    5    0    0  0.25988758219E+03  0.51761119058E+03  0.49127916829E+03  0.75948543184E+03  0.00000000000E+00 0. -1.
        -11    1    5    5    0    0  0.43027461598E+02  0.18937147168E+03  0.13594892626E+03  0.23705490353E+03  0.00000000000E+00 0.  1.
          4    1    6    6  503    0 -0.16954152287E+03  0.12531835807E+03  0.12795059625E+03  0.24661787025E+03  0.00000000000E+00 0. -1.
         -4    1    6    6    0  503 -0.47945284049E+02  0.97246683776E+02  0.19263780148E+02  0.11012157370E+03  0.00000000000E+00 0.  1.
<mgrwt>
<rscale>  0 0.10131453E+04</rscale>
<asrwt>0</asrwt>
<pdfrwt beam="1">  1        1 0.30285772E+00 0.10131453E+04</pdfrwt>
<pdfrwt beam="2">  1       -1 0.81907705E-01 0.10131453E+04</pdfrwt>
<totfact> 0.46852013E+00</totfact>
</mgrwt>
</event>
<event>
12    1  0.1335216E-007  0.7596134E+03  0.7818608E-02  0.9620388E-01
         -2   -1    0    0    0  501 -0.00000000000E+00  0.00000000000E+00  0.42289601854E+03  0.42289601854E+03  0.00000000000E+00 0.  1.
          2   -1    0    0  501    0  0.00000000000E+00 -0.00000000000E+00 -0.21501770631E+04  0.21501770631E+04  0.00000000000E+00 0. -1.
         23    2    1    2    0    0 -0.54745725375E+03  0.51045146875E+03 -0.13407384106E+04  0.15388612681E+04  0.10121447703E+03 0.  0.
    5000000    2    1    2    0    0  0.54745725375E+03 -0.51045146875E+03 -0.38654263405E+03  0.10342118136E+04  0.59992392913E+03 0.  0.
         23    2    4    4    0    0  0.35803026060E+03 -0.43901577928E+03 -0.51957295106E+03  0.77456809511E+03  0.95284628995E+02 0.  0.
         23    2    4    4    0    0  0.18942699315E+03 -0.71435689469E+02  0.13303031701E+03  0.25964371846E+03  0.93445983467E+02 0.  0.
          4    1    3    3  502    0 -0.14694741918E+03  0.13407712704E+03 -0.45314337666E+03  0.49488295567E+03  0.00000000000E+00 0. -1.
         -4    1    3    3    0  502 -0.40050983457E+03  0.37637434171E+03 -0.88759503390E+03  0.10439783125E+04  0.00000000000E+00 0.  1.
         11    1    5    5    0    0  0.66359541024E+02 -0.56134728293E+02 -0.12467175840E+03  0.15197941883E+03  0.00000000000E+00 0. -1.
        -11    1    5    5    0    0  0.29167071958E+03 -0.38288105099E+03 -0.39490119265E+03  0.62258867627E+03  0.00000000000E+00 0.  1.
          4    1    6    6  503    0  0.58885751531E+02 -0.21147303252E+02  0.96587798129E+02  0.11508233103E+03  0.00000000000E+00 0. -1.
         -4    1    6    6    0  503  0.13054124162E+03 -0.50288386217E+02  0.36442518880E+02  0.14456138742E+03  0.00000000000E+00 0.  1.
<mgrwt>
<rscale>  0 0.75961339E+03</rscale>
<asrwt>0</asrwt>
<pdfrwt beam="1">  1        2 0.33079647E+00 0.75961339E+03</pdfrwt>
<pdfrwt beam="2">  1       -2 0.65060926E-01 0.75961339E+03</pdfrwt>
<totfact> 0.12446671E+01</totfact>
</mgrwt>
</event>
<event>
12    1  0.1335216E-007  0.3443752E+03  0.7818608E-02  0.1064948E+00
          4   -1    0    0  501    0  0.00000000000E+00  0.00000000000E+00  0.76118208422E+03  0.76118208422E+03  0.00000000000E+00 0. -1.
         -4   -1    0    0    0  501 -0.00000000000E+00 -0.00000000000E+00 -0.14231056589E+04  0.14231056589E+04  0.00000000000E+00 0.  1.
         23    2    1    2    0    0 -0.10320428523E+03  0.72063405634E+02  0.68604760934E+03  0.70343227216E+03  0.91166772037E+02 0.  0.
    5000000    2    1    2    0    0  0.10320428523E+03 -0.72063405634E+02 -0.13479711840E+04  0.14808554709E+04  0.60005195939E+03 0.  0.
         23    2    4    4    0    0 -0.34440922730E+02  0.20201088894E+03 -0.25450651124E+03  0.34173247530E+03  0.10006469906E+03 0.  0.
         23    2    4    4    0    0  0.13764520796E+03 -0.27407429458E+03 -0.10934646728E+04  0.11391229956E+04  0.88731541095E+02 0.  0.
          3    1    3    3  502    0 -0.61625326468E+02  0.90806704484E+02  0.49408611567E+03  0.50612708695E+03  0.00000000000E+00 0. -1.
         -3    1    3    3    0  502 -0.41578958759E+02 -0.18743298851E+02  0.19196149366E+03  0.19730518521E+03  0.00000000000E+00 0.  1.
         13    1    5    5    0    0 -0.55019551416E+02  0.13948581884E+03 -0.22308165849E+03  0.26879150107E+03  0.00000000000E+00 0. -1.
        -13    1    5    5    0    0  0.20578628686E+02  0.62525070108E+02 -0.31424852753E+02  0.72940974227E+02  0.00000000000E+00 0.  1.
          1    1    6    6  503    0  0.40925868581E+02 -0.17283853889E+03 -0.55345938844E+03  0.58126188753E+03  0.00000000000E+00 0. -1.
         -1    1    6    6    0  503  0.96719339377E+02 -0.10123575569E+03 -0.54000528431E+03  0.55786110809E+03  0.00000000000E+00 0.  1.
<mgrwt>
<rscale>  0 0.34437517E+03</rscale>
<asrwt>0</asrwt>
<pdfrwt beam="1">  1        4 0.11710494E+00 0.34437517E+03</pdfrwt>
<pdfrwt beam="2">  1       -4 0.21893933E+00 0.34437517E+03</pdfrwt>
<totfact> 0.11335832E-01</totfact>
</mgrwt>
</event>
<event>
12    1  0.1335216E-007  0.8895248E+03  0.7818608E-02  0.9438771E-01
          1   -1    0    0  501    0  0.00000000000E+00  0.00000000000E+00  0.22160599523E+04  0.22160599523E+04  0.00000000000E+00 0. -1.
         -1   -1    0    0    0  501 -0.00000000000E+00 -0.00000000000E+00 -0.48025316321E+03  0.48025316321E+03  0.00000000000E+00 0.  1.
         23    2    1    2    0    0  0.32480831721E+03 -0.80269737192E+03  0.12810679127E+04  0.15489384649E+04  0.90839735393E+02 0.  0.
    5000000    2    1    2    0    0 -0.32480831721E+03  0.80269737192E+03  0.45473887647E+03  0.11473746506E+04  0.59988134596E+03 0.  0.
         23    2    4    4    0    0 -0.11450118770E+02  0.34626892773E+03  0.46304548711E+03  0.58554999008E+03  0.91784487863E+02 0.  0.
         23    2    4    4    0    0 -0.31335819844E+03  0.45642844419E+03 -0.83066106472E+01  0.56182466051E+03  0.95171761492E+02 0.  0.
          2    1    3    3  502    0  0.74742161890E+02 -0.13988015998E+03  0.29273126880E+03  0.33293309486E+03  0.00000000000E+00 0.  1.
         -2    1    3    3    0  502  0.25006615532E+03 -0.66281721194E+03  0.98833664386E+03  0.12160053701E+04  0.00000000000E+00 0. -1.
         13    1    5    5    0    0  0.37694642251E+02  0.11535549929E+03  0.13725433702E+03  0.18321170897E+03  0.00000000000E+00 0. -1.
        -13    1    5    5    0    0 -0.49144761021E+02  0.23091342844E+03  0.32579115009E+03  0.40233828111E+03  0.00000000000E+00 0.  1.
          2    1    6    6  503    0 -0.36506426764E+02  0.73454974846E+02 -0.33470247351E+02  0.88592381063E+02  0.00000000000E+00 0. -1.
         -2    1    6    6    0  503 -0.27685177168E+03  0.38297346934E+03  0.25163636704E+02  0.47323227945E+03  0.00000000000E+00 0.  1.
<mgrwt>
<rscale>  0 0.88952483E+03</rscale>
<asrwt>0</asrwt>
<pdfrwt beam="1">  1        1 0.34093229E+00 0.88952483E+03</pdfrwt>
<pdfrwt beam="2">  1       -1 0.73885103E-01 0.88952483E+03</pdfrwt>
<totfact> 0.40382786E+00</totfact>
</mgrwt>
</event>
<event>
12    1  0.1335216E-007  0.6616461E+03  0.7818608E-02  0.9785168E-01
         -2   -1    0    0    0  501 -0.00000000000E+00  0.00000000000E+00  0.66140780642E+03  0.66140780642E+03  0.00000000000E+00 0.  1.
          2   -1    0    0  501    0  0.00000000000E+00 -0.00000000000E+00 -0.85483040744E+03  0.85483040744E+03  0.00000000000E+00 0. -1.
         23    2    1    2    0    0  0.48508439405E+03 -0.39581658728E+03 -0.25683520577E+02  0.63285609641E+03  0.88710514675E+02 0.  0.
    5000000    2    1    2    0    0 -0.48508439405E+03  0.39581658728E+03 -0.16773908044E+03  0.88338211745E+03  0.60020823570E+03 0.  0.
         23    2    4    4    0    0 -0.20127225236E+02  0.15059401765E+03 -0.28564405413E+03  0.33680297911E+03  0.93595180050E+02 0.  0.
         23    2    4    4    0    0 -0.46495716882E+03  0.24522256963E+03  0.11790497369E+03  0.54657913834E+03  0.92346597960E+02 0.  0.
          2    1    3    3  502    0  0.23359409551E+03 -0.14313647821E+03 -0.35286728113E+02  0.27622347118E+03  0.00000000000E+00 0. -1.
         -2    1    3    3    0  502  0.25149029855E+03 -0.25268010908E+03  0.96032075363E+01  0.35663262524E+03  0.00000000000E+00 0.  1.
         13    1    5    5    0    0 -0.44150621802E+01  0.14837708903E+03 -0.19655063818E+03  0.24630754494E+03  0.00000000000E+00 0.  1.
        -13    1    5    5    0    0 -0.15712163056E+02  0.22169286179E+01 -0.89093415945E+02  0.90495434167E+02  0.00000000000E+00 0. -1.
          1    1    6    6  503    0 -0.41776599089E+03  0.20005880564E+03  0.77126161383E+02  0.46957469441E+03  0.00000000000E+00 0. -1.
         -1    1    6    6    0  503 -0.47191177932E+02  0.45163763992E+02  0.40778812308E+02  0.77004443936E+02  0.00000000000E+00 0.  1.
<mgrwt>
<rscale>  0 0.66164612E+03</rscale>
<asrwt>0</asrwt>
<pdfrwt beam="1">  1        2 0.13151237E+00 0.66164612E+03</pdfrwt>
<pdfrwt beam="2">  1       -2 0.10175505E+00 0.66164612E+03</pdfrwt>
<totfact> 0.25553604E+01</totfact>
</mgrwt>
</event>
<event>
12    1  0.1335216E-007  0.1095059E+04  0.7818608E-02  0.9210021E-01
         -2   -1    0    0    0  501 -0.00000000000E+00  0.00000000000E+00  0.62662320703E+03  0.62662320703E+03  0.00000000000E+00 0.  1.
          2   -1    0    0  501    0  0.00000000000E+00 -0.00000000000E+00 -0.22884427013E+04  0.22884427013E+04  0.00000000000E+00 0. -1.
         23    2    1    2    0    0  0.10149526429E+03  0.10587437013E+04 -0.12084606785E+04  0.16124519406E+04  0.91567109542E+02 0.  0.
    5000000    2    1    2    0    0 -0.10149526429E+03 -0.10587437013E+04 -0.45335881581E+03  0.13026139678E+04  0.60002451569E+03 0.  0.
         23    2    4    4    0    0 -0.11148653001E+03 -0.10211584054E+04 -0.22828511986E+03  0.10562738469E+04  0.91687558665E+02 0.  0.
         23    2    4    4    0    0  0.99912657154E+01 -0.37585295889E+02 -0.22507369594E+03  0.24634012085E+03  0.92264872387E+02 0.  0.
          1    1    3    3  502    0  0.65534940552E+02  0.89591595170E+03 -0.10572636889E+04  0.13873596249E+04  0.00000000000E+00 0. -1.
         -1    1    3    3    0  502  0.35960323743E+02  0.16282774960E+03 -0.15119698963E+03  0.22509231572E+03  0.00000000000E+00 0.  1.
         11    1    5    5    0    0 -0.10967929446E+03 -0.77272686721E+03 -0.14204135517E+03  0.79329194218E+03  0.00000000000E+00 0. -1.
        -11    1    5    5    0    0 -0.18072355490E+01 -0.24843153820E+03 -0.86243764689E+02  0.26298190474E+03  0.00000000000E+00 0.  1.
          1    1    6    6  503    0  0.39842979796E+02  0.89721271526E+01 -0.13094619420E+03  0.13716729887E+03  0.00000000000E+00 0. -1.
         -1    1    6    6    0  503 -0.29851714080E+02 -0.46557423041E+02 -0.94127501749E+02  0.10917282198E+03  0.00000000000E+00 0.  1.
<mgrwt>
<rscale>  0 0.10950587E+04</rscale>
<asrwt>0</asrwt>
<pdfrwt beam="1">  1        2 0.35206811E+00 0.10950587E+04</pdfrwt>
<pdfrwt beam="2">  1       -2 0.96403569E-01 0.10950587E+04</pdfrwt>
<totfact> 0.41170246E+00</totfact>
</mgrwt>
</event>
<event>
12    1  0.1335216E-007  0.6018528E+03  0.7818608E-02  0.9901570E-01
         -1   -1    0    0    0  501 -0.00000000000E+00  0.00000000000E+00  0.70609695511E+03  0.70609695511E+03  0.00000000000E+00 0.  1.
          1   -1    0    0  501    0  0.00000000000E+00 -0.00000000000E+00 -0.10751581987E+04  0.10751581987E+04  0.00000000000E+00 0. -1.
         23    2    1    2    0    0  0.83961512086E+02  0.55001321343E+03  0.37377625181E+03  0.67615828093E+03  0.88979008732E+02 0.  0.
    5000000    2    1    2    0    0 -0.83961512086E+02 -0.55001321343E+03 -0.74283749541E+03  0.11050968729E+04  0.59988955936E+03 0.  0.
         23    2    4    4    0    0 -0.16017971433E+03 -0.14437592719E+03 -0.62289971843E+03  0.66528319786E+03  0.89976246328E+02 0.  0.
         23    2    4    4    0    0  0.76218202241E+02 -0.40563728623E+03 -0.11993777698E+03  0.43981367503E+03  0.93274734300E+02 0.  0.
          4    1    3    3  502    0  0.53742018600E+02  0.25689584385E+03  0.22676178143E+03  0.34684951300E+03  0.00000000000E+00 0. -1.
         -4    1    3    3    0  502  0.30219493486E+02  0.29311736957E+03  0.14701447038E+03  0.32930876793E+03  0.00000000000E+00 0.  1.
         13    1    5    5    0    0 -0.97591023347E+02 -0.28029232654E+02 -0.27401377036E+03  0.29222113556E+03  0.00000000000E+00 0.  1.
        -13    1    5    5    0    0 -0.62588690979E+02 -0.11634669454E+03 -0.34888594806E+03  0.37306206229E+03  0.00000000000E+00 0. -1.
          1    1    6    6  503    0  0.20970173867E+02 -0.14419764098E+03 -0.89173576451E+02  0.17083510937E+03  0.00000000000E+00 0. -1.
         -1    1    6    6    0  503  0.55248028374E+02 -0.26143964525E+03 -0.30764200530E+02  0.26897856566E+03  0.00000000000E+00 0.  1.
<mgrwt>
<rscale>  0 0.60185279E+03</rscale>
<asrwt>0</asrwt>
<pdfrwt beam="1">  1        1 0.16540895E+00 0.60185279E+03</pdfrwt>
<pdfrwt beam="2">  1       -1 0.10863030E+00 0.60185279E+03</pdfrwt>
<totfact> 0.11000244E+01</totfact>
</mgrwt>
</event>
<event>
12    1  0.1335216E-007  0.7039000E+03  0.7818608E-02  0.9710586E-01
          1   -1    0    0  501    0  0.00000000000E+00  0.00000000000E+00  0.27694946525E+04  0.27694946525E+04  0.00000000000E+00 0. -1.
         -1   -1    0    0    0  501 -0.00000000000E+00 -0.00000000000E+00 -0.25158400037E+03  0.25158400037E+03  0.00000000000E+00 0.  1.
         23    2    1    2    0    0  0.14614210357E+03  0.56186118507E+03  0.31846094135E+03  0.66851919363E+03  0.91951266209E+02 0.  0.
    5000000    2    1    2    0    0 -0.14614210357E+03 -0.56186118507E+03  0.21994497108E+04  0.23525594592E+04  0.59992622318E+03 0.  0.
         23    2    4    4    0    0  0.13204341652E+03 -0.50577500074E+03  0.15683447340E+04  0.16557360546E+04  0.92265175863E+02 0.  0.
         23    2    4    4    0    0 -0.27818552009E+03 -0.56086184330E+02  0.63110497681E+03  0.69682340464E+03  0.82076317215E+02 0.  0.
          1    1    3    3  502    0  0.35393288381E+02  0.21915694106E+03  0.16706904904E+03  0.27783901242E+03  0.00000000000E+00 0. -1.
         -1    1    3    3    0  502  0.11074881519E+03  0.34270424401E+03  0.15139189231E+03  0.39068018120E+03  0.00000000000E+00 0.  1.
         11    1    5    5    0    0  0.13810865609E+03 -0.37676524442E+03  0.12126154470E+04  0.12772870753E+04  0.00000000000E+00 0.  1.
        -11    1    5    5    0    0 -0.60652395711E+01 -0.12900975633E+03  0.35572928691E+03  0.37844897929E+03  0.00000000000E+00 0. -1.
          4    1    6    6  503    0 -0.22605605562E+03 -0.11048837895E+02  0.49439737491E+03  0.54373907476E+03  0.00000000000E+00 0.  1.
         -4    1    6    6    0  503 -0.52129464471E+02 -0.45037346436E+02  0.13670760190E+03  0.15308432989E+03  0.00000000000E+00 0. -1.
<mgrwt>
<rscale>  0 0.70390005E+03</rscale>
<asrwt>0</asrwt>
<pdfrwt beam="1">  1        1 0.42607608E+00 0.70390005E+03</pdfrwt>
<pdfrwt beam="2">  1       -1 0.38705233E-01 0.70390005E+03</pdfrwt>
<totfact> 0.60703364E+00</totfact>
</mgrwt>
</event>
<event>
12    1  0.1335216E-007  0.7387458E+03  0.7818608E-02  0.9653174E-01
          2   -1    0    0  501    0  0.00000000000E+00  0.00000000000E+00  0.20108082721E+04  0.20108082721E+04  0.00000000000E+00 0. -1.
         -2   -1    0    0    0  501 -0.00000000000E+00 -0.00000000000E+00 -0.35367065342E+03  0.35367065342E+03  0.00000000000E+00 0.  1.
         23    2    1    2    0    0 -0.68047081261E+03  0.13385641347E+03  0.10607106910E+04  0.12705446270E+04  0.90655462097E+02 0.  0.
    5000000    2    1    2    0    0  0.68047081261E+03 -0.13385641347E+03  0.59642692763E+03  0.10939342985E+04  0.60000758603E+03 0.  0.
         23    2    4    4    0    0  0.14644884547E+02 -0.50998121069E+02 -0.82530983010E+02  0.13493811338E+03  0.92637197112E+02 0.  0.
         23    2    4    4    0    0  0.66582592806E+03 -0.82858292397E+02  0.67895791064E+03  0.95899618517E+03  0.92196397171E+02 0.  0.
          3    1    3    3  502    0 -0.52580662897E+03  0.14061395663E+03  0.80969538096E+03  0.97562877459E+03  0.00000000000E+00 0. -1.
         -3    1    3    3    0  502 -0.15466418364E+03 -0.67575431669E+01  0.25101531008E+03  0.29491585238E+03  0.00000000000E+00 0.  1.
         13    1    5    5    0    0 -0.36809395085E+02 -0.55378883573E+01 -0.37442064327E+02  0.52796855541E+02  0.00000000000E+00 0. -1.
        -13    1    5    5    0    0  0.51454279632E+02 -0.45460232712E+02 -0.45088918682E+02  0.82141257834E+02  0.00000000000E+00 0.  1.
          1    1    6    6  503    0  0.26248005212E+03 -0.10225762754E+02  0.21087744618E+03  0.33685255126E+03  0.00000000000E+00 0. -1.
         -1    1    6    6    0  503  0.40334587594E+03 -0.72632529643E+02  0.46808046446E+03  0.62214363391E+03  0.00000000000E+00 0.  1.
<mgrwt>
<rscale>  0 0.73874580E+03</rscale>
<asrwt>0</asrwt>
<pdfrwt beam="1">  1        2 0.30935511E+00 0.73874580E+03</pdfrwt>
<pdfrwt beam="2">  1       -2 0.54410871E-01 0.73874580E+03</pdfrwt>
<totfact> 0.21695813E+01</totfact>
</mgrwt>
</event>
<event>
12    1  0.1335216E-007  0.5980108E+03  0.7818608E-02  0.9909542E-01
          1   -1    0    0  501    0  0.00000000000E+00  0.00000000000E+00  0.20795474215E+04  0.20795474215E+04  0.00000000000E+00 0. -1.
         -1   -1    0    0    0  501 -0.00000000000E+00 -0.00000000000E+00 -0.60677491438E+03  0.60677491438E+03  0.00000000000E+00 0.  1.
         23    2    1    2    0    0  0.48530512629E+03  0.28426922860E+03  0.17326499149E+04  0.18239006980E+04  0.90597839823E+02 0.  0.
    5000000    2    1    2    0    0 -0.48530512629E+03 -0.28426922860E+03 -0.25987740778E+03  0.86242163789E+03  0.59992062350E+03 0.  0.
         23    2    4    4    0    0 -0.31116952739E+03 -0.31036359054E+03 -0.41628401679E+03  0.61155260367E+03  0.86903229577E+02 0.  0.
         23    2    4    4    0    0 -0.17413559890E+03  0.26094361944E+02  0.15640660901E+03  0.25086903422E+03  0.86418299326E+02 0.  0.
          4    1    3    3  502    0  0.33716949362E+03  0.19068456052E+03  0.10516254779E+04  0.11206962188E+04  0.00000000000E+00 0. -1.
         -4    1    3    3    0  502  0.14813563267E+03  0.93584668076E+02  0.68102443700E+03  0.70320447920E+03  0.00000000000E+00 0.  1.
         13    1    5    5    0    0 -0.21724814933E+03 -0.26494477408E+03 -0.30090127586E+03  0.45599788323E+03  0.00000000000E+00 0.  1.
        -13    1    5    5    0    0 -0.93921378060E+02 -0.45418816463E+02 -0.11538274093E+03  0.15555472044E+03  0.00000000000E+00 0. -1.
          1    1    6    6  503    0 -0.15037810601E+03 -0.11013056561E+01  0.15310614181E+03  0.21460726526E+03  0.00000000000E+00 0. -1.
         -1    1    6    6    0  503 -0.23757492890E+02  0.27195667600E+02  0.33004672034E+01  0.36261768964E+02  0.00000000000E+00 0.  1.
<mgrwt>
<rscale>  0 0.59801085E+03</rscale>
<asrwt>0</asrwt>
<pdfrwt beam="1">  1        1 0.31993037E+00 0.59801085E+03</pdfrwt>
<pdfrwt beam="2">  1       -1 0.93349988E-01 0.59801085E+03</pdfrwt>
<totfact> 0.31887763E+00</totfact>
</mgrwt>
</event>
<event>
12    1  0.1335216E-007  0.4080951E+03  0.7818608E-02  0.1041012E+00
         -1   -1    0    0    0  501 -0.00000000000E+00  0.00000000000E+00  0.12372065635E+03  0.12372065635E+03  0.00000000000E+00 0.  1.
          1   -1    0    0  501    0  0.00000000000E+00 -0.00000000000E+00 -0.35389382776E+04  0.35389382776E+04  0.00000000000E+00 0. -1.
         23    2    1    2    0    0  0.29779798499E+03  0.14639160722E+03 -0.25092230002E+03  0.42491674618E+03  0.86475996712E+02 0.  0.
    5000000    2    1    2    0    0 -0.29779798499E+03 -0.14639160722E+03 -0.31642953212E+04  0.32377421878E+04  0.60007953808E+03 0.  0.
         23    2    4    4    0    0 -0.28685362603E+02  0.77111810532E+02 -0.11529069213E+03  0.16745082351E+03  0.89323867208E+02 0.  0.
         23    2    4    4    0    0 -0.26911262239E+03 -0.22350341775E+03 -0.30490046291E+04  0.30702913643E+04  0.88794436236E+02 0.  0.
          3    1    3    3  502    0  0.15635213726E+03  0.11450163782E+03 -0.17562337985E+03  0.26153429496E+03  0.00000000000E+00 0. -1.
         -3    1    3    3    0  502  0.14144584773E+03  0.31889969402E+02 -0.75298920170E+02  0.16338245122E+03  0.00000000000E+00 0.  1.
         13    1    5    5    0    0 -0.58241065265E+02  0.52030239676E+02 -0.97160353360E+02  0.12465673583E+03  0.00000000000E+00 0.  1.
        -13    1    5    5    0    0  0.29555702662E+02  0.25081570855E+02 -0.18130338767E+02  0.42794087678E+02  0.00000000000E+00 0. -1.
          2    1    6    6  503    0 -0.10249358592E+03 -0.33507332821E+02 -0.97747554585E+03  0.98340536873E+03  0.00000000000E+00 0. -1.
         -2    1    6    6    0  503 -0.16661903647E+03 -0.18999608493E+03 -0.20715290833E+04  0.20868859955E+04  0.00000000000E+00 0.  1.
<mgrwt>
<rscale>  0 0.40809513E+03</rscale>
<asrwt>0</asrwt>
<pdfrwt beam="1">  1        1 0.54445203E+00 0.40809513E+03</pdfrwt>
<pdfrwt beam="2">  1       -1 0.19033947E-01 0.40809513E+03</pdfrwt>
<totfact> 0.60800160E+00</totfact>
</mgrwt>
</event>
<event>
12    1  0.1335216E-007  0.5670958E+03  0.7818608E-02  0.9976126E-01
          1   -1    0    0  501    0  0.00000000000E+00  0.00000000000E+00  0.24636896238E+04  0.24636896238E+04  0.00000000000E+00 0. -1.
         -1   -1    0    0    0  501 -0.00000000000E+00 -0.00000000000E+00 -0.52175525077E+03  0.52175525077E+03  0.00000000000E+00 0.  1.
         23    2    1    2    0    0 -0.37826617183E+03 -0.34491667825E+03  0.21150513445E+04  0.21779610717E+04  0.89551262472E+02 0.  0.
    5000000    2    1    2    0    0  0.37826617183E+03  0.34491667825E+03 -0.17311697145E+03  0.80748380282E+03  0.60000649523E+03 0.  0.
         23    2    4    4    0    0  0.38960049065E+02  0.24185068255E+03 -0.31963350176E+03  0.41311399544E+03  0.92130123786E+02 0.  0.
         23    2    4    4    0    0  0.33930612277E+03  0.10306599570E+03  0.14651653031E+03  0.39436980737E+03  0.91154851192E+02 0.  0.
          2    1    3    3  502    0 -0.15936105758E+03 -0.88773791226E+02  0.78007827209E+03  0.80112348815E+03  0.00000000000E+00 0. -1.
         -2    1    3    3    0  502 -0.21890511425E+03 -0.25614288702E+03  0.13349730724E+04  0.13768375836E+04  0.00000000000E+00 0.  1.
         13    1    5    5    0    0  0.32913167187E+02  0.75193619855E+02 -0.17118796466E+03  0.18984908819E+03  0.00000000000E+00 0.  1.
        -13    1    5    5    0    0  0.60468818783E+01  0.16665706269E+03 -0.14844553711E+03  0.22326490726E+03  0.00000000000E+00 0. -1.
          4    1    6    6  503    0  0.18834523533E+03  0.10373261770E+03  0.91781431407E+02  0.23379096389E+03  0.00000000000E+00 0. -1.
         -4    1    6    6    0  503  0.15096088744E+03 -0.66662200540E+00  0.54735098905E+02  0.16057884348E+03  0.00000000000E+00 0.  1.
<mgrwt>
<rscale>  0 0.56709576E+03</rscale>
<asrwt>0</asrwt>
<pdfrwt beam="1">  1        1 0.37902917E+00 0.56709576E+03</pdfrwt>
<pdfrwt beam="2">  1       -1 0.80270040E-01 0.56709576E+03</pdfrwt>
<totfact> 0.24639739E+00</totfact>
</mgrwt>
</event>
<event>
12    1  0.1335216E-007  0.5732306E+03  0.7818608E-02  0.9962555E-01
          2   -1    0    0  501    0  0.00000000000E+00  0.00000000000E+00  0.24952087029E+04  0.24952087029E+04  0.00000000000E+00 0. -1.
         -2   -1    0    0    0  501 -0.00000000000E+00 -0.00000000000E+00 -0.16423185429E+03  0.16423185429E+03  0.00000000000E+00 0.  1.
         23    2    1    2    0    0  0.19139330854E+03 -0.45343818843E+03  0.10158077150E+04  0.11324141306E+04  0.90878270479E+02 0.  0.
    5000000    2    1    2    0    0 -0.19139330854E+03  0.45343818843E+03  0.13151691336E+04  0.15270264266E+04  0.59991855131E+03 0.  0.
         23    2    4    4    0    0  0.69090770907E+02 -0.15246682358E+02  0.14924082276E+02  0.11755894105E+03  0.92689699756E+02 0.  0.
         23    2    4    4    0    0 -0.26048407945E+03  0.46868487079E+03  0.13002450513E+04  0.14094674855E+04  0.91890889188E+02 0.  0.
          4    1    3    3  502    0  0.17054779294E+03 -0.29771930821E+03  0.71412963306E+03  0.79227802505E+03  0.00000000000E+00 0. -1.
         -4    1    3    3    0  502  0.20845515607E+02 -0.15571888022E+03  0.30167808197E+03  0.34013610558E+03  0.00000000000E+00 0.  1.
         13    1    5    5    0    0  0.57427588514E+02  0.26072695821E+02 -0.15490595951E+02  0.64943605942E+02  0.00000000000E+00 0. -1.
        -13    1    5    5    0    0  0.11663182394E+02 -0.41319378178E+02  0.30414678227E+02  0.52615335105E+02  0.00000000000E+00 0.  1.
          3    1    6    6  503    0 -0.12403455087E+03  0.29003248814E+03  0.67589977279E+03  0.74588465384E+03  0.00000000000E+00 0. -1.
         -3    1    6    6    0  503 -0.13644952858E+03  0.17865238265E+03  0.62434527853E+03  0.66358283168E+03  0.00000000000E+00 0.  1.
<mgrwt>
<rscale>  0 0.57323059E+03</rscale>
<asrwt>0</asrwt>
<pdfrwt beam="1">  1        2 0.38387824E+00 0.57323059E+03</pdfrwt>
<pdfrwt beam="2">  1       -2 0.25266441E-01 0.57323059E+03</pdfrwt>
<totfact> 0.52651778E+01</totfact>
</mgrwt>
</event>
<event>
12    1  0.1335216E-007  0.8301865E+03  0.7818608E-02  0.9517323E-01
         -2   -1    0    0    0  501 -0.00000000000E+00  0.00000000000E+00  0.41129357363E+03  0.41129357363E+03  0.00000000000E+00 0.  1.
          2   -1    0    0  501    0  0.00000000000E+00 -0.00000000000E+00 -0.20043550972E+04  0.20043550972E+04  0.00000000000E+00 0. -1.
         23    2    1    2    0    0  0.65989287211E+03 -0.38353984887E+03 -0.36735738315E+03  0.85208082245E+03  0.92351841911E+02 0.  0.
    5000000    2    1    2    0    0 -0.65989287211E+03  0.38353984887E+03 -0.12257041405E+04  0.15635678484E+04  0.59986028234E+03 0.  0.
         23    2    4    4    0    0 -0.70856671002E+03  0.42479875993E+03 -0.92541561178E+03  0.12439075362E+04  0.91603139153E+02 0.  0.
         23    2    4    4    0    0  0.48673837910E+02 -0.41258911067E+02 -0.30028852868E+03  0.31966031222E+03  0.89095872564E+02 0.  0.
          2    1    3    3  502    0  0.68804004962E+02 -0.48802089371E+02 -0.11230363851E+02  0.85098508201E+02  0.00000000000E+00 0.  1.
         -2    1    3    3    0  502  0.59108886715E+03 -0.33473775949E+03 -0.35612701930E+03  0.76698231425E+03  0.00000000000E+00 0. -1.
         11    1    5    5    0    0 -0.26175117581E+03  0.20125448889E+03 -0.40409637426E+03  0.52183419495E+03  0.00000000000E+00 0.  1.
        -11    1    5    5    0    0 -0.44681553421E+03  0.22354427105E+03 -0.52131923752E+03  0.72207334124E+03  0.00000000000E+00 0. -1.
          1    1    6    6  503    0  0.49575016183E+02 -0.35178379154E+02 -0.86170377061E+02  0.10545394479E+03  0.00000000000E+00 0. -1.
         -1    1    6    6    0  503 -0.90117827328E+00 -0.60805319125E+01 -0.21411815162E+03  0.21420636742E+03  0.00000000000E+00 0.  1.
<mgrwt>
<rscale>  0 0.83018651E+03</rscale>
<asrwt>0</asrwt>
<pdfrwt beam="1">  1        2 0.30836233E+00 0.83018651E+03</pdfrwt>
<pdfrwt beam="2">  1       -2 0.63275933E-01 0.83018651E+03</pdfrwt>
<totfact> 0.15728204E+01</totfact>
</mgrwt>
</event>
<event>
12    1  0.1335216E-007  0.6388792E+03  0.7818608E-02  0.9827873E-01
          2   -1    0    0  501    0  0.00000000000E+00  0.00000000000E+00  0.99229366817E+03  0.99229366817E+03  0.00000000000E+00 0. -1.
         -2   -1    0    0    0  501 -0.00000000000E+00 -0.00000000000E+00 -0.57107235355E+03  0.57107235355E+03  0.00000000000E+00 0.  1.
         23    2    1    2    0    0 -0.88709609425E+01  0.52361616717E+03 -0.18498375829E+03  0.56250408647E+03  0.89102592545E+02 0.  0.
    5000000    2    1    2    0    0  0.88709609425E+01 -0.52361616717E+03  0.60620507292E+03  0.10008619352E+04  0.59998953202E+03 0.  0.
         23    2    4    4    0    0  0.24302969545E+03 -0.10406491653E+03  0.99911138875E+02  0.29688867912E+03  0.90926961872E+02 0.  0.
         23    2    4    4    0    0 -0.23415873451E+03 -0.41955125064E+03  0.50629393404E+03  0.70397325613E+03  0.91603672632E+02 0.  0.
          4    1    3    3  502    0  0.97465267769E+01  0.38329367233E+03 -0.95816837381E+02  0.39520867951E+03  0.00000000000E+00 0. -1.
         -4    1    3    3    0  502 -0.18617487719E+02  0.14032249484E+03 -0.89166920913E+02  0.16729540696E+03  0.00000000000E+00 0.  1.
         11    1    5    5    0    0  0.15835569679E+03 -0.91599977387E+02  0.27936078180E+02  0.18506081980E+03  0.00000000000E+00 0.  1.
        -11    1    5    5    0    0  0.84673998664E+02 -0.12464939147E+02  0.71975060695E+02  0.11182785932E+03  0.00000000000E+00 0. -1.
          1    1    6    6  503    0  0.25759651596E+01 -0.17518452887E+02  0.42834359019E+02  0.46349909392E+02  0.00000000000E+00 0. -1.
         -1    1    6    6    0  503 -0.23673469967E+03 -0.40203279775E+03  0.46345957502E+03  0.65762334674E+03  0.00000000000E+00 0.  1.
<mgrwt>
<rscale>  0 0.63887918E+03</rscale>
<asrwt>0</asrwt>
<pdfrwt beam="1">  1        2 0.15266056E+00 0.63887918E+03</pdfrwt>
<pdfrwt beam="2">  1       -2 0.87857285E-01 0.63887918E+03</pdfrwt>
<totfact> 0.29260286E+01</totfact>
</mgrwt>
</event>
<event>
12    1  0.1335216E-007  0.7869591E+03  0.7818608E-02  0.9579088E-01
         -1   -1    0    0    0  501 -0.00000000000E+00  0.00000000000E+00  0.61702838875E+03  0.61702838875E+03  0.00000000000E+00 0.  1.
          1   -1    0    0  501    0  0.00000000000E+00 -0.00000000000E+00 -0.12583592483E+04  0.12583592483E+04  0.00000000000E+00 0. -1.
         23    2    1    2    0    0 -0.71125692672E+03  0.28309445833E+03 -0.41976648854E+03  0.87778338279E+03  0.90944345916E+02 0.  0.
    5000000    2    1    2    0    0  0.71125692672E+03 -0.28309445833E+03 -0.22156437104E+03  0.99760425428E+03  0.60007881941E+03 0.  0.
         23    2    4    4    0    0  0.68334130848E+02 -0.24252545137E+02 -0.27318893672E+03  0.29671893614E+03  0.90289492934E+02 0.  0.
         23    2    4    4    0    0  0.64292279587E+03 -0.25884191320E+03  0.51624565686E+02  0.70088531814E+03  0.90698819876E+02 0.  0.
          4    1    3    3  502    0 -0.38615596009E+03  0.10608032478E+03 -0.22991368100E+03  0.46176808197E+03  0.00000000000E+00 0. -1.
         -4    1    3    3    0  502 -0.32510096663E+03  0.17701413356E+03 -0.18985280754E+03  0.41601530081E+03  0.00000000000E+00 0.  1.
         11    1    5    5    0    0 -0.17676821687E+02  0.61814690527E+01 -0.19111002977E+02  0.26756513588E+02  0.00000000000E+00 0.  1.
        -11    1    5    5    0    0  0.86010952535E+02 -0.30434014190E+02 -0.25407793374E+03  0.26996242255E+03  0.00000000000E+00 0. -1.
          3    1    6    6  503    0  0.53661614297E+03 -0.20846529339E+03  0.89823741901E+01  0.57575632562E+03  0.00000000000E+00 0. -1.
         -3    1    6    6    0  503  0.10630665290E+03 -0.50376619808E+02  0.42642191496E+02  0.12512899252E+03  0.00000000000E+00 0.  1.
<mgrwt>
<rscale>  0 0.78695907E+03</rscale>
<asrwt>0</asrwt>
<pdfrwt beam="1">  1        1 0.19359373E+00 0.78695907E+03</pdfrwt>
<pdfrwt beam="2">  1       -1 0.94927446E-01 0.78695907E+03</pdfrwt>
<totfact> 0.10703084E+01</totfact>
</mgrwt>
</event>
<event>
12    1  0.1335216E-007  0.8542699E+03  0.7818608E-02  0.9484624E-01
          1   -1    0    0  501    0  0.00000000000E+00  0.00000000000E+00  0.17969840390E+04  0.17969840390E+04  0.00000000000E+00 0. -1.
         -1   -1    0    0    0  501 -0.00000000000E+00 -0.00000000000E+00 -0.58298532842E+03  0.58298532842E+03  0.00000000000E+00 0.  1.
         23    2    1    2    0    0 -0.61325295526E+03  0.56018151891E+03  0.61581431492E+02  0.83792014506E+03  0.91844300488E+02 0.  0.
    5000000    2    1    2    0    0  0.61325295526E+03 -0.56018151891E+03  0.11524172791E+04  0.15420492224E+04  0.59997308086E+03 0.  0.
         23    2    4    4    0    0  0.21800442820E+03 -0.36378686858E+03  0.95755845655E+03  0.10510792908E+04  0.89345740720E+02 0.  0.
         23    2    4    4    0    0  0.39524852706E+03 -0.19639465033E+03  0.19485882255E+03  0.49096993156E+03  0.91045352151E+02 0.  0.
          1    1    3    3  502    0 -0.29489527646E+03  0.20791553030E+03  0.29765298918E+02  0.36204704783E+03  0.00000000000E+00 0. -1.
         -1    1    3    3    0  502 -0.31835767879E+03  0.35226598861E+03  0.31816132574E+02  0.47587309723E+03  0.00000000000E+00 0.  1.
         11    1    5    5    0    0  0.15717003287E+03 -0.24217958466E+03  0.54587717999E+03  0.61752349437E+03  0.00000000000E+00 0.  1.
        -11    1    5    5    0    0  0.60834395327E+02 -0.12160728392E+03  0.41168127656E+03  0.43355579644E+03  0.00000000000E+00 0. -1.
          2    1    6    6  503    0  0.22116401104E+03 -0.66259068878E+02  0.12573495600E+03  0.26289363466E+03  0.00000000000E+00 0. -1.
         -2    1    6    6    0  503  0.17408451602E+03 -0.13013558145E+03  0.69123866555E+02  0.22807629690E+03  0.00000000000E+00 0.  1.
<mgrwt>
<rscale>  0 0.85426988E+03</rscale>
<asrwt>0</asrwt>
<pdfrwt beam="1">  1        1 0.27645908E+00 0.85426988E+03</pdfrwt>
<pdfrwt beam="2">  1       -1 0.89690051E-01 0.85426988E+03</pdfrwt>
<totfact> 0.51268118E+00</totfact>
</mgrwt>
</event>
<event>
12    1  0.1335216E-007  0.1222849E+04  0.7818608E-02  0.9093088E-01
         -2   -1    0    0    0  501 -0.00000000000E+00  0.00000000000E+00  0.93759333913E+03  0.93759333913E+03  0.00000000000E+00 0.  1.
          2   -1    0    0  501    0  0.00000000000E+00 -0.00000000000E+00 -0.19833858680E+04  0.19833858680E+04  0.00000000000E+00 0. -1.
         23    2    1    2    0    0 -0.59093345955E+03 -0.10226658846E+04  0.73180364477E+02  0.11868630569E+04  0.90778218739E+02 0.  0.
    5000000    2    1    2    0    0  0.59093345955E+03  0.10226658846E+04 -0.11189728933E+04  0.17341161502E+04  0.60000885099E+03 0.  0.
         23    2    4    4    0    0  0.12498608521E+03  0.64068125622E+03 -0.32958127331E+03  0.73685572487E+03  0.90766458501E+02 0.  0.
         23    2    4    4    0    0  0.46594737434E+03  0.38198462837E+03 -0.78939162001E+03  0.99726042533E+03  0.91487781815E+02 0.  0.
          3    1    3    3  502    0 -0.47928476091E+03 -0.76611648256E+03  0.77849910589E+02  0.90703305093E+03  0.00000000000E+00 0. -1.
         -3    1    3    3    0  502 -0.11164869864E+03 -0.25654940203E+03 -0.46695461122E+01  0.27983000599E+03  0.00000000000E+00 0.  1.
         11    1    5    5    0    0  0.42662557586E+01  0.23364302680E+03 -0.13442968858E+03  0.26958969951E+03  0.00000000000E+00 0.  1.
        -11    1    5    5    0    0  0.12071982946E+03  0.40703822942E+03 -0.19515158473E+03  0.46726602536E+03  0.00000000000E+00 0. -1.
          3    1    6    6  503    0  0.33748111724E+03  0.30026466566E+03 -0.52902040299E+03  0.69563996486E+03  0.00000000000E+00 0. -1.
         -3    1    6    6    0  503  0.12846625710E+03  0.81719962711E+02 -0.26037121702E+03  0.30162046046E+03  0.00000000000E+00 0.  1.
<mgrwt>
<rscale>  0 0.12228493E+04</rscale>
<asrwt>0</asrwt>
<pdfrwt beam="1">  1        2 0.30513628E+00 0.12228493E+04</pdfrwt>
<pdfrwt beam="2">  1       -2 0.14424513E+00 0.12228493E+04</pdfrwt>
<totfact> 0.22021244E+00</totfact>
</mgrwt>
</event>
<event>
12    1  0.1335216E-007  0.1058208E+04  0.7818608E-02  0.9246911E-01
         -2   -1    0    0    0  501 -0.00000000000E+00  0.00000000000E+00  0.10977175738E+04  0.10977175738E+04  0.00000000000E+00 0.  1.
          2   -1    0    0  501    0  0.00000000000E+00 -0.00000000000E+00 -0.10360624001E+04  0.10360624001E+04  0.00000000000E+00 0. -1.
         23    2    1    2    0    0  0.87319155000E+03 -0.44186345254E+03 -0.16764432047E+02  0.98316992808E+03  0.92926140651E+02 0.  0.
    5000000    2    1    2    0    0 -0.87319155000E+03  0.44186345254E+03  0.78419605798E+02  0.11506100458E+04  0.60003920649E+03 0.  0.
         23    2    4    4    0    0 -0.35356641603E+03 -0.10880639749E+03 -0.25068076512E+02  0.38185889881E+03  0.91322327311E+02 0.  0.
         23    2    4    4    0    0 -0.51962513397E+03  0.55066985003E+03  0.10348768231E+03  0.76875114702E+03  0.83791778068E+02 0.  0.
          4    1    3    3  502    0  0.57325863492E+03 -0.28206997143E+03 -0.54605813482E+02  0.64122595562E+03  0.00000000000E+00 0. -1.
         -4    1    3    3    0  502  0.29993291508E+03 -0.15979348111E+03  0.37841381434E+02  0.34194397246E+03  0.00000000000E+00 0.  1.
         11    1    5    5    0    0 -0.32319311714E+03 -0.12101899698E+03 -0.36843418243E+02  0.34706890680E+03  0.00000000000E+00 0.  1.
        -11    1    5    5    0    0 -0.30373298886E+02  0.12212599491E+02  0.11775341731E+02  0.34789992015E+02  0.00000000000E+00 0. -1.
          4    1    6    6  503    0 -0.36358058124E+03  0.34102959816E+03  0.93752085067E+02  0.50722921774E+03  0.00000000000E+00 0. -1.
         -4    1    6    6    0  503 -0.15604455274E+03  0.20964025188E+03  0.97355972429E+01  0.26152192929E+03  0.00000000000E+00 0.  1.
<mgrwt>
<rscale>  0 0.10582075E+04</rscale>
<asrwt>0</asrwt>
<pdfrwt beam="1">  1        2 0.15939422E+00 0.10582075E+04</pdfrwt>
<pdfrwt beam="2">  1       -2 0.16887963E+00 0.10582075E+04</pdfrwt>
<totfact> 0.51104168E+00</totfact>
</mgrwt>
</event>
<event>
12    1  0.1335216E-007  0.5655335E+03  0.7818608E-02  0.9979611E-01
         -1   -1    0    0    0  501 -0.00000000000E+00  0.00000000000E+00  0.26668376032E+03  0.26668376032E+03  0.00000000000E+00 0.  1.
          1   -1    0    0  501    0  0.00000000000E+00 -0.00000000000E+00 -0.17976263965E+04  0.17976263965E+04  0.00000000000E+00 0. -1.
         23    2    1    2    0    0  0.18471728309E+03  0.44605955816E+03 -0.10401672272E+04  0.11512760659E+04  0.10197605273E+03 0.  0.
    5000000    2    1    2    0    0 -0.18471728309E+03 -0.44605955816E+03 -0.49077540895E+03  0.91303409087E+03  0.59973422860E+03 0.  0.
         23    2    4    4    0    0 -0.30388598693E+03 -0.31414524457E+03 -0.54611870016E+03  0.70528242819E+03  0.90242679022E+02 0.  0.
         23    2    4    4    0    0  0.11916870384E+03 -0.13191431359E+03  0.55343291203E+02  0.20775166267E+03  0.92169991636E+02 0.  0.
          4    1    3    3  502    0  0.14648039866E+03  0.42481305862E+03 -0.95954312707E+03  0.10595497415E+04  0.00000000000E+00 0. -1.
         -4    1    3    3    0  502  0.38236884436E+02  0.21246499535E+02 -0.80624100154E+02  0.91726324463E+02  0.00000000000E+00 0.  1.
         13    1    5    5    0    0 -0.27927813881E+03 -0.24204724865E+03 -0.46541598550E+03  0.59430227070E+03  0.00000000000E+00 0. -1.
        -13    1    5    5    0    0 -0.24607848118E+02 -0.72097995916E+02 -0.80702714656E+02  0.11098015749E+03  0.00000000000E+00 0.  1.
          4    1    6    6  503    0  0.11976987303E+03 -0.13992210048E+03  0.64888238540E+02  0.19527800744E+03  0.00000000000E+00 0. -1.
         -4    1    6    6    0  503 -0.60116918433E+00  0.80077868931E+01 -0.95449473374E+01  0.12473655238E+02  0.00000000000E+00 0.  1.
<mgrwt>
<rscale>  0 0.56553351E+03</rscale>
<asrwt>0</asrwt>
<pdfrwt beam="1">  1        1 0.27655792E+00 0.56553351E+03</pdfrwt>
<pdfrwt beam="2">  1       -1 0.41028269E-01 0.56553351E+03</pdfrwt>
<totfact> 0.25347117E+01</totfact>
</mgrwt>
</event>
<event>
12    1  0.1335216E-007  0.1162707E+04  0.7818608E-02  0.9146140E-01
          1   -1    0    0  501    0  0.00000000000E+00  0.00000000000E+00  0.35479456338E+04  0.35479456338E+04  0.00000000000E+00 0. -1.
         -1   -1    0    0    0  501 -0.00000000000E+00 -0.00000000000E+00 -0.83867597518E+03  0.83867597518E+03  0.00000000000E+00 0.  1.
         23    2    1    2    0    0  0.10955364530E+04 -0.80202660592E+02  0.29166373390E+04  0.31178875945E+04  0.88414356075E+02 0.  0.
    5000000    2    1    2    0    0 -0.10955364530E+04  0.80202660592E+02 -0.20736768040E+03  0.12687340144E+04  0.60004338002E+03 0.  0.
         23    2    4    4    0    0 -0.11403136563E+03  0.20252666170E+03 -0.10094802676E+03  0.26970016959E+03  0.92344335638E+02 0.  0.
         23    2    4    4    0    0 -0.98150508735E+03 -0.12232400111E+03 -0.10641965364E+03  0.99903384483E+03  0.91804589719E+02 0.  0.
          3    1    3    3  502    0  0.72361353734E+03 -0.61117570511E+02  0.18088237969E+04  0.19491524920E+04  0.00000000000E+00 0. -1.
         -3    1    3    3    0  502  0.37192291564E+03 -0.19085090081E+02  0.11078135421E+04  0.11687351025E+04  0.00000000000E+00 0.  1.
         11    1    5    5    0    0 -0.10598448343E+03  0.19966358142E+03 -0.68578708630E+02  0.23622297888E+03  0.00000000000E+00 0.  1.
        -11    1    5    5    0    0 -0.80468821989E+01  0.28630802820E+01 -0.32369318132E+02  0.33477190715E+02  0.00000000000E+00 0. -1.
          1    1    6    6  503    0 -0.48931200272E+03 -0.10062292199E+03 -0.77368886447E+02  0.50550682787E+03  0.00000000000E+00 0. -1.
         -1    1    6    6    0  503 -0.49219308463E+03 -0.21701079120E+02 -0.29050767194E+02  0.49352701696E+03  0.00000000000E+00 0.  1.
<mgrwt>
<rscale>  0 0.11627074E+04</rscale>
<asrwt>0</asrwt>
<pdfrwt beam="1">  1        1 0.54583778E+00 0.11627074E+04</pdfrwt>
<pdfrwt beam="2">  1       -1 0.12902707E+00 0.11627074E+04</pdfrwt>
<totfact> 0.11945139E-01</totfact>
</mgrwt>
</event>
<event>
12    1  0.1335216E-007  0.6312259E+03  0.7818608E-02  0.9842659E-01
         -2   -1    0    0    0  501 -0.00000000000E+00  0.00000000000E+00  0.11969303766E+04  0.11969303766E+04  0.00000000000E+00 0.  1.
          2   -1    0    0  501    0  0.00000000000E+00 -0.00000000000E+00 -0.34263832510E+03  0.34263832510E+03  0.00000000000E+00 0. -1.
         23    2    1    2    0    0 -0.44855735610E+03  0.20865517495E+03  0.34517323993E+03  0.61003383237E+03  0.90862683936E+02 0.  0.
    5000000    2    1    2    0    0  0.44855735610E+03 -0.20865517495E+03  0.50911881160E+03  0.92953486936E+03  0.60007701613E+03 0.  0.
         23    2    4    4    0    0  0.47801951189E+03 -0.35152611283E+03  0.34965258715E+03  0.69486521911E+03  0.92235997731E+02 0.  0.
         23    2    4    4    0    0 -0.29462155794E+02  0.14287093789E+03  0.15946622445E+03  0.23466965025E+03  0.91434372584E+02 0.  0.
          4    1    3    3  502    0 -0.20794162655E+03  0.96839538903E+02  0.21541599759E+03  0.31467708586E+03  0.00000000000E+00 0. -1.
         -4    1    3    3    0  502 -0.24061572955E+03  0.11181563604E+03  0.12975724234E+03  0.29535674651E+03  0.00000000000E+00 0.  1.
         11    1    5    5    0    0  0.34904242186E+03 -0.20335479320E+03  0.22989078624E+03  0.46479410256E+03  0.00000000000E+00 0. -1.
        -11    1    5    5    0    0  0.12897709003E+03 -0.14817131963E+03  0.11976180090E+03  0.23007111655E+03  0.00000000000E+00 0.  1.
          2    1    6    6  503    0  0.20940277524E+02  0.96837179525E+02  0.66457869531E+02  0.11930038971E+03  0.00000000000E+00 0. -1.
         -2    1    6    6    0  503 -0.50402433318E+02  0.46033758362E+02  0.93008354917E+02  0.11536926054E+03  0.00000000000E+00 0.  1.
<mgrwt>
<rscale>  0 0.63122593E+03</rscale>
<asrwt>0</asrwt>
<pdfrwt beam="1">  1        2 0.52713589E-01 0.63122593E+03</pdfrwt>
<pdfrwt beam="2">  1       -2 0.18414313E+00 0.63122593E+03</pdfrwt>
<totfact> 0.16511117E+01</totfact>
</mgrwt>
</event>
<event>
12    1  0.1335216E-007  0.1199831E+04  0.7818608E-02  0.9113005E-01
          2   -1    0    0  501    0  0.00000000000E+00  0.00000000000E+00  0.39241898905E+04  0.39241898905E+04  0.00000000000E+00 0. -1.
         -2   -1    0    0    0  501 -0.00000000000E+00 -0.00000000000E+00 -0.44702447115E+03  0.44702447115E+03  0.00000000000E+00 0.  1.
         23    2    1    2    0    0  0.11324301666E+04  0.30493351137E+03  0.91530010109E+03  0.14904430189E+04  0.90904283482E+02 0.  0.
    5000000    2    1    2    0    0 -0.11324301666E+04 -0.30493351137E+03  0.25618653182E+04  0.28807713428E+04  0.60025585539E+03 0.  0.
         23    2    4    4    0    0 -0.96392249805E+03 -0.35529369845E+03  0.24353096671E+04  0.26447258743E+04  0.91986854125E+02 0.  0.
         23    2    4    4    0    0 -0.16850766857E+03  0.50360187085E+02  0.12655565112E+03  0.23604546842E+03  0.93649065775E+02 0.  0.
          4    1    3    3  502    0  0.27616642196E+03  0.67362267919E+02  0.17454345497E+03  0.33357305861E+03  0.00000000000E+00 0.  1.
         -4    1    3    3    0  502  0.85626374466E+03  0.23757124345E+03  0.74075664613E+03  0.11568699602E+04  0.00000000000E+00 0. -1.
         11    1    5    5    0    0 -0.75021690037E+03 -0.25582692455E+03  0.17873436729E+04  0.19552161563E+04  0.00000000000E+00 0.  1.
        -11    1    5    5    0    0 -0.21370559769E+03 -0.99466773899E+02  0.64796599420E+03  0.68950971801E+03  0.00000000000E+00 0. -1.
          2    1    6    6  503    0 -0.75629871139E+02  0.70503251393E+02  0.55239810029E+02  0.11722637279E+03  0.00000000000E+00 0. -1.
         -2    1    6    6    0  503 -0.92877797431E+02 -0.20143064309E+02  0.71315841095E+02  0.11881909563E+03  0.00000000000E+00 0.  1.
<mgrwt>
<rscale>  0 0.11998308E+04</rscale>
<asrwt>0</asrwt>
<pdfrwt beam="1">  1        2 0.60372150E+00 0.11998308E+04</pdfrwt>
<pdfrwt beam="2">  1       -2 0.68772998E-01 0.11998308E+04</pdfrwt>
<totfact> 0.77243188E-01</totfact>
</mgrwt>
</event>
<event>
12    1  0.1335216E-007  0.7266488E+03  0.7818608E-02  0.9672714E-01
         -1   -1    0    0    0  501 -0.00000000000E+00  0.00000000000E+00  0.16721106677E+04  0.16721106677E+04  0.00000000000E+00 0.  1.
          1   -1    0    0  501    0  0.00000000000E+00 -0.00000000000E+00 -0.38417053390E+03  0.38417053390E+03  0.00000000000E+00 0. -1.
         23    2    1    2    0    0 -0.42635563762E+03  0.45656335086E+03  0.19275889466E+03  0.66000684901E+03  0.90685314035E+02 0.  0.
    5000000    2    1    2    0    0  0.42635563762E+03 -0.45656335086E+03  0.10951812391E+04  0.13962743526E+04  0.59994241233E+03 0.  0.
         23    2    4    4    0    0  0.35937499580E+02 -0.40869753351E+03  0.77344377506E+03  0.88038566592E+03  0.92403840868E+02 0.  0.
         23    2    4    4    0    0  0.39041813804E+03 -0.47865817348E+02  0.32173746409E+03  0.51588868670E+03  0.88930772395E+02 0.  0.
          4    1    3    3  502    0 -0.35606486292E+03  0.42383210168E+03  0.16439616230E+03  0.57744431351E+03  0.00000000000E+00 0. -1.
         -4    1    3    3    0  502 -0.70290774701E+02  0.32731249179E+02  0.28362732360E+02  0.82562535498E+02  0.00000000000E+00 0.  1.
         13    1    5    5    0    0 -0.12780708177E+02 -0.30595426584E+03  0.54221055193E+03  0.62270670617E+03  0.00000000000E+00 0.  1.
        -13    1    5    5    0    0  0.48718207757E+02 -0.10274326767E+03  0.23123322313E+03  0.25767895975E+03  0.00000000000E+00 0. -1.
          3    1    6    6  503    0  0.20994264807E+03 -0.68014025545E+02  0.15846561350E+03  0.27168579980E+03  0.00000000000E+00 0. -1.
         -3    1    6    6    0  503  0.18047548997E+03  0.20148208197E+02  0.16327185059E+03  0.24420288690E+03  0.00000000000E+00 0.  1.
<mgrwt>
<rscale>  0 0.72664879E+03</rscale>
<asrwt>0</asrwt>
<pdfrwt beam="1">  1        1 0.59103160E-01 0.72664879E+03</pdfrwt>
<pdfrwt beam="2">  1       -1 0.25724779E+00 0.72664879E+03</pdfrwt>
<totfact> 0.41378570E+00</totfact>
</mgrwt>
</event>
<event>
12    1  0.1335216E-007  0.9648867E+03  0.7818608E-02  0.9347918E-01
         -1   -1    0    0    0  501 -0.00000000000E+00  0.00000000000E+00  0.72828591130E+03  0.72828591130E+03  0.00000000000E+00 0.  1.
          1   -1    0    0  501    0  0.00000000000E+00 -0.00000000000E+00 -0.16819962625E+04  0.16819962625E+04  0.00000000000E+00 0. -1.
         23    2    1    2    0    0 -0.61254893696E+03 -0.63792118531E+03 -0.10030879925E+04  0.13404005371E+04  0.91260288272E+02 0.  0.
    5000000    2    1    2    0    0  0.61254893696E+03  0.63792118531E+03  0.49377641311E+02  0.10698816367E+04  0.60004077053E+03 0.  0.
         23    2    4    4    0    0  0.11633379375E+03 -0.88002182812E+02 -0.52164910482E+02  0.17984472437E+03  0.91351033124E+02 0.  0.
         23    2    4    4    0    0  0.49621514321E+03  0.72592336812E+03  0.10154255179E+03  0.89003691235E+03  0.93062402592E+02 0.  0.
          3    1    3    3  502    0 -0.10365214927E+03 -0.63547862697E+02 -0.14507018866E+03  0.18928142682E+03  0.00000000000E+00 0. -1.
         -3    1    3    3    0  502 -0.50889678769E+03 -0.57437332261E+03 -0.85801780383E+03  0.11511191102E+04  0.00000000000E+00 0.  1.
         13    1    5    5    0    0  0.56717404303E+02 -0.80457042181E+01 -0.55899132862E+02  0.80039430045E+02  0.00000000000E+00 0.  1.
        -13    1    5    5    0    0  0.59616389442E+02 -0.79956478594E+02  0.37342223804E+01  0.99805294328E+02  0.00000000000E+00 0. -1.
          3    1    6    6  503    0  0.33182075014E+03  0.40821824908E+03  0.74214548885E+02  0.53127671544E+03  0.00000000000E+00 0. -1.
         -3    1    6    6    0  503  0.16439439307E+03  0.31770511905E+03  0.27328002908E+02  0.35876019691E+03  0.00000000000E+00 0.  1.
<mgrwt>
<rscale>  0 0.96488668E+03</rscale>
<asrwt>0</asrwt>
<pdfrwt beam="1">  1        1 0.25876865E+00 0.96488668E+03</pdfrwt>
<pdfrwt beam="2">  1       -1 0.11204399E+00 0.96488668E+03</pdfrwt>
<totfact> 0.36246553E+00</totfact>
</mgrwt>
</event>
<event>
12    1  0.1335216E-007  0.5788668E+03  0.7818608E-02  0.9950247E-01
          1   -1    0    0  501    0  0.00000000000E+00  0.00000000000E+00  0.13197451031E+04  0.13197451031E+04  0.00000000000E+00 0. -1.
         -1   -1    0    0    0  501 -0.00000000000E+00 -0.00000000000E+00 -0.27009225966E+03  0.27009225966E+03  0.00000000000E+00 0.  1.
         23    2    1    2    0    0  0.24360850998E+03 -0.36408666402E+03  0.33485507956E+03  0.55887171274E+03  0.91134307140E+02 0.  0.
    5000000    2    1    2    0    0 -0.24360850998E+03  0.36408666402E+03  0.71479776390E+03  0.10309656501E+04  0.60004176793E+03 0.  0.
         23    2    4    4    0    0 -0.31007551403E+03 -0.19131772093E+02  0.43762024280E+03  0.54458755987E+03  0.92473154754E+02 0.  0.
         23    2    4    4    0    0  0.66467004053E+02  0.38321843612E+03  0.27717752110E+03  0.48637809018E+03  0.91989325471E+02 0.  0.
          1    1    3    3  502    0  0.20711740502E+03 -0.35113346272E+03  0.29428234172E+03  0.50278665928E+03  0.00000000000E+00 0. -1.
         -1    1    3    3    0  502  0.36491104959E+02 -0.12953201300E+02  0.40572737842E+02  0.56085053455E+02  0.00000000000E+00 0.  1.
         11    1    5    5    0    0 -0.86647643285E+02  0.30653108865E+02  0.16249956926E+03  0.18669102062E+03  0.00000000000E+00 0. -1.
        -11    1    5    5    0    0 -0.22342787075E+03 -0.49784880958E+02  0.27512067354E+03  0.35789653925E+03  0.00000000000E+00 0.  1.
          4    1    6    6  503    0  0.70194656253E+02  0.34129291360E+03  0.27560258071E+03  0.44425772378E+03  0.00000000000E+00 0. -1.
         -4    1    6    6    0  503 -0.37276522001E+01  0.41925522514E+02  0.15749403897E+01  0.42120366406E+02  0.00000000000E+00 0.  1.
<mgrwt>
<rscale>  0 0.57886682E+03</rscale>
<asrwt>0</asrwt>
<pdfrwt beam="1">  1        1 0.20303770E+00 0.57886682E+03</pdfrwt>
<pdfrwt beam="2">  1       -1 0.41552656E-01 0.57886682E+03</pdfrwt>
<totfact> 0.52087170E+01</totfact>
</mgrwt>
</event>
<event>
12    1  0.1335216E-007  0.4548249E+03  0.7818608E-02  0.1026293E+00
          2   -1    0    0  501    0  0.00000000000E+00  0.00000000000E+00  0.15978137656E+04  0.15978137656E+04  0.00000000000E+00 0.  1.
         -2   -1    0    0    0  501 -0.00000000000E+00 -0.00000000000E+00 -0.14204028643E+03  0.14204028643E+03  0.00000000000E+00 0. -1.
         23    2    1    2    0    0  0.27627715693E+03 -0.72818421523E+01  0.41468388587E+03  0.50645150531E+03  0.90267986398E+02 0.  0.
    5000000    2    1    2    0    0 -0.27627715693E+03  0.72818421523E+01  0.10410895933E+04  0.12334025467E+04  0.60085955786E+03 0.  0.
         23    2    4    4    0    0 -0.37438433439E+03  0.16279754548E+03  0.87259806240E+03  0.96812262594E+03  0.95746382223E+02 0.  0.
         23    2    4    4    0    0  0.98107177458E+02 -0.15551570333E+03  0.16849153092E+03  0.26527992078E+03  0.90409557703E+02 0.  0.
          1    1    3    3  502    0  0.15147658113E+03  0.38290259139E+02  0.25068591343E+03  0.29538910909E+03  0.00000000000E+00 0. -1.
         -1    1    3    3    0  502  0.12480057580E+03 -0.45572101291E+02  0.16399797243E+03  0.21106239622E+03  0.00000000000E+00 0.  1.
         11    1    5    5    0    0 -0.30289476204E+03  0.16527196580E+03  0.67713293859E+03  0.75997965504E+03  0.00000000000E+00 0. -1.
        -11    1    5    5    0    0 -0.71489572349E+02 -0.24744203183E+01  0.19546512381E+03  0.20814297090E+03  0.00000000000E+00 0.  1.
          3    1    6    6  503    0  0.76508354168E+02 -0.39782397818E+02  0.83863034565E+02  0.12028788800E+03  0.00000000000E+00 0. -1.
         -3    1    6    6    0  503  0.21598823289E+02 -0.11573330551E+03  0.84628496352E+02  0.14499203277E+03  0.00000000000E+00 0.  1.
<mgrwt>
<rscale>  0 0.45482495E+03</rscale>
<asrwt>0</asrwt>
<pdfrwt beam="1">  1        2 0.24581749E+00 0.45482495E+03</pdfrwt>
<pdfrwt beam="2">  1       -2 0.21852353E-01 0.45482495E+03</pdfrwt>
<totfact> 0.21342686E+02</totfact>
</mgrwt>
</event>
<event>
12    1  0.1335216E-007  0.8091295E+03  0.7818608E-02  0.9546896E-01
          2   -1    0    0  501    0  0.00000000000E+00  0.00000000000E+00  0.29596828482E+04  0.29596828482E+04  0.00000000000E+00 0. -1.
         -2   -1    0    0    0  501 -0.00000000000E+00 -0.00000000000E+00 -0.34861695741E+03  0.34861695741E+03  0.00000000000E+00 0.  1.
         23    2    1    2    0    0  0.19162350474E+03  0.68705368965E+03  0.23566583442E+03  0.75660223977E+03  0.90256432934E+02 0.  0.
    5000000    2    1    2    0    0 -0.19162350474E+03 -0.68705368965E+03  0.23754000563E+04  0.25516975658E+04  0.59989390706E+03 0.  0.
         23    2    4    4    0    0  0.11193301444E+03 -0.54300940504E+03  0.11871809021E+04  0.13134266256E+04  0.91119661988E+02 0.  0.
         23    2    4    4    0    0 -0.30355651918E+03 -0.14404428460E+03  0.11882191543E+04  0.12382709402E+04  0.92492414069E+02 0.  0.
          1    1    3    3  502    0  0.68789005798E+02  0.16602102832E+03  0.94242623914E+02  0.20292013534E+03  0.00000000000E+00 0. -1.
         -1    1    3    3    0  502  0.12283449894E+03  0.52103266132E+03  0.14142321051E+03  0.55368210443E+03  0.00000000000E+00 0.  1.
         11    1    5    5    0    0  0.15687133119E+02 -0.48224449535E+02  0.18213969169E+03  0.18906758307E+03  0.00000000000E+00 0. -1.
        -11    1    5    5    0    0  0.96245881323E+02 -0.49478495551E+03  0.10050412104E+04  0.11243590425E+04  0.00000000000E+00 0.  1.
          4    1    6    6  503    0 -0.14266485785E+02 -0.37594923910E+02  0.13177739955E+03  0.13777588306E+03  0.00000000000E+00 0. -1.
         -4    1    6    6    0  503 -0.28929003339E+03 -0.10644936069E+03  0.10564417547E+04  0.11004950572E+04  0.00000000000E+00 0.  1.
<mgrwt>
<rscale>  0 0.80912948E+03</rscale>
<asrwt>0</asrwt>
<pdfrwt beam="1">  1        2 0.45533581E+00 0.80912948E+03</pdfrwt>
<pdfrwt beam="2">  1       -2 0.53633380E-01 0.80912948E+03</pdfrwt>
<totfact> 0.63623721E+00</totfact>
</mgrwt>
</event>
<event>
12    1  0.1335216E-007  0.2480382E+04  0.7818608E-02  0.8410008E-01
          2   -1    0    0  501    0  0.00000000000E+00  0.00000000000E+00  0.34978653125E+04  0.34978653125E+04  0.00000000000E+00 0. -1.
         -2   -1    0    0    0  501 -0.00000000000E+00 -0.00000000000E+00 -0.18045728404E+04  0.18045728404E+04  0.00000000000E+00 0.  1.
         23    2    1    2    0    0  0.18016019815E+03 -0.24680353453E+04  0.75674118328E+03  0.25893463696E+04  0.91658280253E+02 0.  0.
    5000000    2    1    2    0    0 -0.18016019815E+03  0.24680353453E+04  0.93655128879E+03  0.27130917833E+04  0.60006878354E+03 0.  0.
         23    2    4    4    0    0  0.34288005502E+01  0.12034657207E+04  0.16677366393E+03  0.12184023409E+04  0.91374567566E+02 0.  0.
         23    2    4    4    0    0 -0.18358899870E+03  0.12645696246E+04  0.76977762487E+03  0.14946894424E+04  0.93261361337E+02 0.  0.
          1    1    3    3  502    0  0.23513734039E+02 -0.74448359026E+03  0.25776453855E+03  0.78819494365E+03  0.00000000000E+00 0. -1.
         -1    1    3    3    0  502  0.15664646411E+03 -0.17235517551E+04  0.49897664473E+03  0.18011514259E+04  0.00000000000E+00 0.  1.
         11    1    5    5    0    0  0.26473674897E+02  0.14906444689E+03  0.55618035240E+01  0.15149916980E+03  0.00000000000E+00 0. -1.
        -11    1    5    5    0    0 -0.23044874347E+02  0.10544012739E+04  0.16121186040E+03  0.10669031711E+04  0.00000000000E+00 0.  1.
          3    1    6    6  503    0  0.18071085517E+01  0.92140163628E+00 -0.16522302609E+01  0.26161970736E+01  0.00000000000E+00 0. -1.
         -3    1    6    6    0  503 -0.18539610725E+03  0.12636482230E+04  0.77142985513E+03  0.14920732453E+04  0.00000000000E+00 0.  1.
<mgrwt>
<rscale>  0 0.24803825E+04</rscale>
<asrwt>0</asrwt>
<pdfrwt beam="1">  1        2 0.53813312E+00 0.24803825E+04</pdfrwt>
<pdfrwt beam="2">  1       -2 0.27762659E+00 0.24803825E+04</pdfrwt>
<totfact> 0.29998319E-02</totfact>
</mgrwt>
</event>
<event>
12    1  0.1335216E-007  0.3747140E+03  0.7818608E-02  0.1052905E+00
          2   -1    0    0  501    0  0.00000000000E+00  0.00000000000E+00  0.10194763705E+04  0.10194763705E+04  0.00000000000E+00 0.  1.
         -2   -1    0    0    0  501 -0.00000000000E+00 -0.00000000000E+00 -0.16926435077E+03  0.16926435077E+03  0.00000000000E+00 0. -1.
         23    2    1    2    0    0  0.10781103213E+03 -0.60349921189E+02  0.17962585181E+02  0.15534513346E+03  0.92434432898E+02 0.  0.
    5000000    2    1    2    0    0 -0.10781103213E+03  0.60349921189E+02  0.83224943459E+03  0.10333955879E+04  0.60000165666E+03 0.  0.
         23    2    4    4    0    0  0.28793418098E+02 -0.24576868551E+03  0.38646576408E+03  0.46834306320E+03  0.93584883038E+02 0.  0.
         23    2    4    4    0    0 -0.13660445023E+03  0.30611860670E+03  0.44578367050E+03  0.56505252466E+03  0.90509102012E+02 0.  0.
          3    1    3    3  502    0  0.43948892107E+02 -0.73769211802E+02  0.25698132676E+02  0.89631443982E+02  0.00000000000E+00 0. -1.
         -3    1    3    3    0  502  0.63862140027E+02  0.13419290613E+02 -0.77355474958E+01  0.65713689475E+02  0.00000000000E+00 0.  1.
         11    1    5    5    0    0  0.37426740767E+02 -0.32619941434E+02  0.94504934638E+02  0.10675206871E+03  0.00000000000E+00 0. -1.
        -11    1    5    5    0    0 -0.86333226694E+01 -0.21314874408E+03  0.29196082944E+03  0.36159099448E+03  0.00000000000E+00 0.  1.
          3    1    6    6  503    0 -0.77924697780E+02  0.16379881148E+03  0.16684488398E+03  0.24645389930E+03  0.00000000000E+00 0. -1.
         -3    1    6    6    0  503 -0.58679752452E+02  0.14231979522E+03  0.27893878652E+03  0.31859862536E+03  0.00000000000E+00 0.  1.
<mgrwt>
<rscale>  0 0.37471403E+03</rscale>
<asrwt>0</asrwt>
<pdfrwt beam="1">  1        2 0.15684252E+00 0.37471403E+03</pdfrwt>
<pdfrwt beam="2">  1       -2 0.26040670E-01 0.37471403E+03</pdfrwt>
<totfact> 0.33640118E+02</totfact>
</mgrwt>
</event>
<event>
12    1  0.1335216E-007  0.6743213E+03  0.7818608E-02  0.9762183E-01
          1   -1    0    0  501    0  0.00000000000E+00  0.00000000000E+00  0.95986627328E+03  0.95986627328E+03  0.00000000000E+00 0. -1.
         -1   -1    0    0    0  501 -0.00000000000E+00 -0.00000000000E+00 -0.67427650326E+03  0.67427650326E+03  0.00000000000E+00 0.  1.
         23    2    1    2    0    0  0.54601730383E+03 -0.55787982320E+02  0.54690877623E+03  0.77993989223E+03  0.89161824350E+02 0.  0.
    5000000    2    1    2    0    0 -0.54601730383E+03  0.55787982320E+02 -0.26131900621E+03  0.85420288431E+03  0.60010644848E+03 0.  0.
         23    2    4    4    0    0 -0.12467320668E+03  0.28526747890E+03 -0.10758819358E+03  0.34158307653E+03  0.90459028269E+02 0.  0.
         23    2    4    4    0    0 -0.42134409715E+03 -0.22947949658E+03 -0.15373081263E+03  0.51261980778E+03  0.94626724699E+02 0.  0.
          2    1    3    3  502    0  0.15359052498E+03 -0.36637947143E+01  0.10202184608E+03  0.18442323561E+03  0.00000000000E+00 0. -1.
         -2    1    3    3    0  502  0.39242677885E+03 -0.52124187606E+02  0.44488693015E+03  0.59551665662E+03  0.00000000000E+00 0.  1.
         13    1    5    5    0    0 -0.75428641888E+02  0.16463388905E+03 -0.14942750147E+02  0.18170603518E+03  0.00000000000E+00 0. -1.
        -13    1    5    5    0    0 -0.49244564794E+02  0.12063358985E+03 -0.92645443436E+02  0.15987704135E+03  0.00000000000E+00 0.  1.
          3    1    6    6  503    0 -0.33759328829E+03 -0.14082358763E+03 -0.99034141986E+02  0.37895682130E+03  0.00000000000E+00 0. -1.
         -3    1    6    6    0  503 -0.83750808860E+02 -0.88655908947E+02 -0.54696670641E+02  0.13366298648E+03  0.00000000000E+00 0.  1.
<mgrwt>
<rscale>  0 0.67432133E+03</rscale>
<asrwt>0</asrwt>
<pdfrwt beam="1">  1        1 0.14767173E+00 0.67432133E+03</pdfrwt>
<pdfrwt beam="2">  1       -1 0.10373485E+00 0.67432133E+03</pdfrwt>
<totfact> 0.14836658E+01</totfact>
</mgrwt>
</event>
<event>
12    1  0.1335216E-007  0.7014173E+03  0.7818608E-02  0.9714812E-01
         -1   -1    0    0    0  501 -0.00000000000E+00  0.00000000000E+00  0.27000767540E+03  0.27000767540E+03  0.00000000000E+00 0.  1.
          1   -1    0    0  501    0  0.00000000000E+00 -0.00000000000E+00 -0.24567182217E+04  0.24567182217E+04  0.00000000000E+00 0. -1.
         23    2    1    2    0    0 -0.24143125314E+02  0.69831004209E+03 -0.10250778013E+04  0.12443567853E+04  0.97054135373E+02 0.  0.
    5000000    2    1    2    0    0  0.24143125314E+02 -0.69831004209E+03 -0.11616327451E+04  0.14823691118E+04  0.59983976508E+03 0.  0.
         23    2    4    4    0    0 -0.14214230621E+02 -0.42218805429E+03 -0.11028561639E+04  0.11845359485E+04  0.91590925087E+02 0.  0.
         23    2    4    4    0    0  0.38357355935E+02 -0.27612198781E+03 -0.58776581180E+02  0.29783316327E+03  0.86805919981E+02 0.  0.
          4    1    3    3  502    0 -0.16973121205E+02  0.33503906986E+03 -0.40747442056E+03  0.52780173227E+03  0.00000000000E+00 0. -1.
         -4    1    3    3    0  502 -0.71700041093E+01  0.36327097223E+03 -0.61760338070E+03  0.71655505306E+03  0.00000000000E+00 0.  1.
         13    1    5    5    0    0  0.16616506930E+02 -0.82612018029E+02 -0.31467333136E+03  0.32576089283E+03  0.00000000000E+00 0. -1.
        -13    1    5    5    0    0 -0.30830737551E+02 -0.33957603626E+03 -0.78818283254E+03  0.85877505570E+03  0.00000000000E+00 0.  1.
          1    1    6    6  503    0  0.37095552239E+02 -0.26319291103E+03 -0.31542251390E+02  0.26765930217E+03  0.00000000000E+00 0.  1.
         -1    1    6    6    0  503  0.12618036962E+01 -0.12929076775E+02 -0.27234329790E+02  0.30173861104E+02  0.00000000000E+00 0. -1.
<mgrwt>
<rscale>  0 0.70141726E+03</rscale>
<asrwt>0</asrwt>
<pdfrwt beam="1">  1        1 0.37795664E+00 0.70141726E+03</pdfrwt>
<pdfrwt beam="2">  1       -1 0.41539644E-01 0.70141726E+03</pdfrwt>
<totfact> 0.87665137E+00</totfact>
</mgrwt>
</event>
<event>
12    1  0.1335216E-007  0.8354788E+03  0.7818608E-02  0.9510037E-01
          2   -1    0    0  501    0  0.00000000000E+00  0.00000000000E+00  0.28574446113E+04  0.28574446113E+04  0.00000000000E+00 0. -1.
         -2   -1    0    0    0  501 -0.00000000000E+00 -0.00000000000E+00 -0.74505493330E+03  0.74505493330E+03  0.00000000000E+00 0.  1.
         23    2    1    2    0    0 -0.47573134236E+03 -0.59605925040E+03 -0.43054054441E+03  0.88071025537E+03  0.93158217317E+02 0.  0.
    5000000    2    1    2    0    0  0.47573134236E+03  0.59605925040E+03  0.25429302224E+04  0.27217892892E+04  0.60002989828E+03 0.  0.
         23    2    4    4    0    0  0.10399454240E+03  0.49551769850E+03  0.94858539543E+03  0.10789833305E+04  0.89655567551E+02 0.  0.
         23    2    4    4    0    0  0.37173679996E+03  0.10054155190E+03  0.15943448269E+04  0.16428059586E+04  0.92623638878E+02 0.  0.
          3    1    3    3  502    0 -0.23845600281E+03 -0.37094928810E+03 -0.23606950587E+03  0.50019341381E+03  0.00000000000E+00 0. -1.
         -3    1    3    3    0  502 -0.23727533955E+03 -0.22510996230E+03 -0.19447103853E+03  0.38051684156E+03  0.00000000000E+00 0.  1.
         11    1    5    5    0    0  0.10689617683E+03  0.48831586049E+03  0.94731753552E+03  0.10711160933E+04  0.00000000000E+00 0.  1.
        -11    1    5    5    0    0 -0.29016344282E+01  0.72018380141E+01  0.12678599131E+01  0.78672372467E+01  0.00000000000E+00 0. -1.
          3    1    6    6  503    0  0.36000261679E+02 -0.16646553002E+02  0.13088846419E+03  0.13676591910E+03  0.00000000000E+00 0. -1.
         -3    1    6    6    0  503  0.33573653828E+03  0.11718810490E+03  0.14634563627E+04  0.15060400395E+04  0.00000000000E+00 0.  1.
<mgrwt>
<rscale>  0 0.83547880E+03</rscale>
<asrwt>0</asrwt>
<pdfrwt beam="1">  1        2 0.43960686E+00 0.83547880E+03</pdfrwt>
<pdfrwt beam="2">  1       -2 0.11462384E+00 0.83547880E+03</pdfrwt>
<totfact> 0.13246603E+00</totfact>
</mgrwt>
</event>
<event>
12    1  0.1335216E-007  0.1121927E+04  0.7818608E-02  0.9184080E-01
         -1   -1    0    0    0  501 -0.00000000000E+00  0.00000000000E+00  0.17683147228E+04  0.17683147228E+04  0.00000000000E+00 0.  1.
          1   -1    0    0  501    0  0.00000000000E+00 -0.00000000000E+00 -0.73896446990E+03  0.73896446990E+03  0.00000000000E+00 0. -1.
         23    2    1    2    0    0 -0.93125954437E+03 -0.49470874641E+03  0.62131183990E+03  0.12272931307E+04  0.90768625786E+02 0.  0.
    5000000    2    1    2    0    0  0.93125954437E+03  0.49470874641E+03  0.40803841302E+03  0.12799860621E+04  0.59990656756E+03 0.  0.
         23    2    4    4    0    0  0.63332110770E+03  0.45374136089E+02  0.34855883003E+03  0.73007561919E+03  0.91447876220E+02 0.  0.
         23    2    4    4    0    0  0.29793843667E+03  0.44933461033E+03  0.59479582990E+02  0.54991044286E+03  0.90524970569E+02 0.  0.
          1    1    3    3  502    0 -0.20827226721E+03 -0.14938140405E+03  0.12946431419E+03  0.28714656504E+03  0.00000000000E+00 0. -1.
         -1    1    3    3    0  502 -0.72298727716E+03 -0.34532734237E+03  0.49184752571E+03  0.94014656563E+03  0.00000000000E+00 0.  1.
         11    1    5    5    0    0  0.48500053979E+03  0.11929117746E+01  0.28674375214E+03  0.56342606084E+03  0.00000000000E+00 0. -1.
        -11    1    5    5    0    0  0.14832056791E+03  0.44181224315E+02  0.61815077889E+02  0.16664955836E+03  0.00000000000E+00 0.  1.
          4    1    6    6  503    0  0.13827774167E+03  0.28854992139E+03  0.29090557199E+02  0.32129122536E+03  0.00000000000E+00 0. -1.
         -4    1    6    6    0  503  0.15966069500E+03  0.16078468894E+03  0.30389025791E+02  0.22861921751E+03  0.00000000000E+00 0.  1.
<mgrwt>
<rscale>  0 0.11219274E+04</rscale>
<asrwt>0</asrwt>
<pdfrwt beam="1">  1        1 0.11368684E+00 0.11219274E+04</pdfrwt>
<pdfrwt beam="2">  1       -1 0.27204842E+00 0.11219274E+04</pdfrwt>
<totfact> 0.12494464E+00</totfact>
</mgrwt>
</event>
<event>
12    1  0.1335216E-007  0.5303620E+03  0.7818608E-02  0.1006144E+00
         -1   -1    0    0    0  501 -0.00000000000E+00  0.00000000000E+00  0.33673719748E+03  0.33673719748E+03  0.00000000000E+00 0.  1.
          1   -1    0    0  501    0  0.00000000000E+00 -0.00000000000E+00 -0.13764747472E+04  0.13764747472E+04  0.00000000000E+00 0. -1.
         23    2    1    2    0    0  0.40285307985E+02 -0.42198041204E+03 -0.85029251392E+03  0.95468204597E+03  0.93434872981E+02 0.  0.
    5000000    2    1    2    0    0 -0.40285307985E+02  0.42198041204E+03 -0.18944503583E+03  0.75852989874E+03  0.59982315018E+03 0.  0.
         23    2    4    4    0    0  0.20113596439E+03  0.15696627244E+03 -0.26749538458E+03  0.38075788312E+03  0.91261700244E+02 0.  0.
         23    2    4    4    0    0 -0.24142127238E+03  0.26501413961E+03  0.78050348744E+02  0.37777201562E+03  0.90017297793E+02 0.  0.
          2    1    3    3  502    0  0.64076418330E+02 -0.19894632610E+03 -0.38190264846E+03  0.43535624602E+03  0.00000000000E+00 0. -1.
         -2    1    3    3    0  502 -0.23791110345E+02 -0.22303408594E+03 -0.46838986546E+03  0.51932579995E+03  0.00000000000E+00 0.  1.
         13    1    5    5    0    0  0.16893156858E+03  0.11227664597E+03 -0.15425413195E+03  0.25482985955E+03  0.00000000000E+00 0. -1.
        -13    1    5    5    0    0  0.32204395809E+02  0.44689626465E+02 -0.11324125263E+03  0.12592802357E+03  0.00000000000E+00 0.  1.
          2    1    6    6  503    0 -0.11718445841E+03  0.19328327251E+03  0.52645440351E+02  0.23208223352E+03  0.00000000000E+00 0. -1.
         -2    1    6    6    0  503 -0.12423681397E+03  0.71730867091E+02  0.25404908392E+02  0.14568978210E+03  0.00000000000E+00 0.  1.
<mgrwt>
<rscale>  0 0.53036200E+03</rscale>
<asrwt>0</asrwt>
<pdfrwt beam="1">  1        1 0.21176535E+00 0.53036200E+03</pdfrwt>
<pdfrwt beam="2">  1       -1 0.51805722E-01 0.53036200E+03</pdfrwt>
<totfact> 0.31817709E+01</totfact>
</mgrwt>
</event>
<event>
12    1  0.1335216E-007  0.2340801E+04  0.7818608E-02  0.8462005E-01
          2   -1    0    0  501    0  0.00000000000E+00  0.00000000000E+00  0.44643271346E+04  0.44643271346E+04  0.00000000000E+00 0. -1.
         -2   -1    0    0    0  501 -0.00000000000E+00 -0.00000000000E+00 -0.13045152150E+04  0.13045152150E+04  0.00000000000E+00 0.  1.
         23    2    1    2    0    0  0.22894747336E+04  0.35000325411E+03  0.21848546816E+04  0.31852890299E+04  0.90991159156E+02 0.  0.
    5000000    2    1    2    0    0 -0.22894747336E+04 -0.35000325411E+03  0.97495723802E+03  0.25835533196E+04  0.60000775498E+03 0.  0.
         23    2    4    4    0    0 -0.15010346641E+04 -0.10816506921E+02  0.79803057385E+03  0.17023899163E+04  0.89758401926E+02 0.  0.
         23    2    4    4    0    0 -0.78844006944E+03 -0.33918674718E+03  0.17692666418E+03  0.88116340332E+03  0.91981010533E+02 0.  0.
          3    1    3    3  502    0  0.16940629107E+04  0.21907793421E+03  0.16197266118E+04  0.23540090449E+04  0.00000000000E+00 0. -1.
         -3    1    3    3    0  502  0.59541182283E+03  0.13092531989E+03  0.56512806985E+03  0.83127998502E+03  0.00000000000E+00 0.  1.
         11    1    5    5    0    0 -0.97597947100E+03 -0.32241083716E+02  0.47937929616E+03  0.10878326732E+04  0.00000000000E+00 0.  1.
        -11    1    5    5    0    0 -0.52505519312E+03  0.21424576795E+02  0.31865127769E+03  0.61455724313E+03  0.00000000000E+00 0. -1.
          2    1    6    6  503    0 -0.37503534413E+03 -0.20349736728E+03  0.11292200487E+03  0.44137746547E+03  0.00000000000E+00 0. -1.
         -2    1    6    6    0  503 -0.41340472530E+03 -0.13568937990E+03  0.64004659312E+02  0.43978593785E+03  0.00000000000E+00 0.  1.
<mgrwt>
<rscale>  0 0.23408010E+04</rscale>
<asrwt>0</asrwt>
<pdfrwt beam="1">  1        2 0.68681955E+00 0.23408010E+04</pdfrwt>
<pdfrwt beam="2">  1       -2 0.20069465E+00 0.23408010E+04</pdfrwt>
<totfact> 0.15194919E-02</totfact>
</mgrwt>
</event>
<event>
12    1  0.1569490E-007  0.1672755E+04  0.7818608E-02  0.8777058E-01
         -1   -1    0    0    0  501 -0.00000000000E+00  0.00000000000E+00  0.19457861903E+04  0.19457861903E+04  0.00000000000E+00 0.  1.
          1   -1    0    0  501    0  0.00000000000E+00 -0.00000000000E+00 -0.24883838813E+04  0.24883838813E+04  0.00000000000E+00 0. -1.
         23    2    1    2    0    0 -0.54328293267E+03  0.15661572431E+04 -0.16592984853E+04  0.23472624957E+04  0.91459857802E+02 0.  0.
    5000000    2    1    2    0    0  0.54328293267E+03 -0.15661572431E+04  0.11167007943E+04  0.20869075759E+04  0.60013141188E+03 0.  0.
         23    2    4    4    0    0  0.34649703311E+03 -0.12790147966E+04  0.59992273508E+03  0.14573179788E+04  0.89046950755E+02 0.  0.
         23    2    4    4    0    0  0.19678589956E+03 -0.28714244649E+03  0.51677805921E+03  0.62958959713E+03  0.90266402846E+02 0.  0.
          1    1    3    3  502    0 -0.10408239349E+03  0.40907537302E+03 -0.39740074985E+03  0.57974404821E+03  0.00000000000E+00 0. -1.
         -1    1    3    3    0  502 -0.43920053918E+03  0.11570818701E+04 -0.12618977354E+04  0.17675184475E+04  0.00000000000E+00 0.  1.
         11    1    5    5    0    0  0.12734314961E+03 -0.57324534711E+03  0.30418458239E+03  0.66132803200E+03  0.00000000000E+00 0. -1.
        -11    1    5    5    0    0  0.21915388350E+03 -0.70576944947E+03  0.29573815269E+03  0.79598994681E+03  0.00000000000E+00 0.  1.
          4    1    6    6  503    0  0.49901383511E+02 -0.15184894813E+03  0.23632554546E+03  0.28530337285E+03  0.00000000000E+00 0. -1.
         -4    1    6    6    0  503  0.14688451605E+03 -0.13529349836E+03  0.28045251376E+03  0.34428622427E+03  0.00000000000E+00 0.  1.
<mgrwt>
<rscale>  0 0.16727549E+04</rscale>
<asrwt>0</asrwt>
<pdfrwt beam="1">  1        1 0.38282829E+00 0.16727549E+04</pdfrwt>
<pdfrwt beam="2">  1       -1 0.29935172E+00 0.16727549E+04</pdfrwt>
<totfact> 0.42429748E-02</totfact>
</mgrwt>
</event>
<event>
12    1  0.1335216E-007  0.8145673E+03  0.7818608E-02  0.9539168E-01
         -1   -1    0    0    0  501 -0.00000000000E+00  0.00000000000E+00  0.11387899246E+04  0.11387899246E+04  0.00000000000E+00 0.  1.
          1   -1    0    0  501    0  0.00000000000E+00 -0.00000000000E+00 -0.16753023286E+04  0.16753023286E+04  0.00000000000E+00 0. -1.
         23    2    1    2    0    0  0.72374347388E+03 -0.45714794691E+02 -0.13726313857E+04  0.15551412858E+04  0.91940411806E+02 0.  0.
    5000000    2    1    2    0    0 -0.72374347388E+03  0.45714794691E+02  0.83611898174E+03  0.12589509674E+04  0.59997343956E+03 0.  0.
         23    2    4    4    0    0 -0.80056618664E+03  0.81299828069E+02  0.67614459287E+03  0.10550119056E+04  0.91447958960E+02 0.  0.
         23    2    4    4    0    0  0.76822712766E+02 -0.35585033378E+02  0.15997438887E+03  0.20393906179E+03  0.93975060694E+02 0.  0.
          3    1    3    3  502    0  0.16005781539E+03 -0.43248872494E+02 -0.35529749458E+03  0.39207815406E+03  0.00000000000E+00 0. -1.
         -3    1    3    3    0  502  0.56368565849E+03 -0.24659221978E+01 -0.10173338912E+04  0.11630631318E+04  0.00000000000E+00 0.  1.
         11    1    5    5    0    0 -0.91704758026E+02  0.19569479422E+01  0.11711094518E+03  0.14875673353E+03  0.00000000000E+00 0. -1.
        -11    1    5    5    0    0 -0.70886142862E+03  0.79342880127E+02  0.55903364769E+03  0.90625517204E+03  0.00000000000E+00 0.  1.
          1    1    6    6  503    0  0.12821978664E+02  0.98288501710E+01  0.10938110217E+03  0.11056778439E+03  0.00000000000E+00 0. -1.
         -1    1    6    6    0  503  0.64000734102E+02 -0.45413883549E+02  0.50593286701E+02  0.93371277403E+02  0.00000000000E+00 0.  1.
<mgrwt>
<rscale>  0 0.81456734E+03</rscale>
<asrwt>0</asrwt>
<pdfrwt beam="1">  1        1 0.25773882E+00 0.81456734E+03</pdfrwt>
<pdfrwt beam="2">  1       -1 0.17519845E+00 0.81456734E+03</pdfrwt>
<totfact> 0.11615486E+00</totfact>
</mgrwt>
</event>
<event>
12    1  0.1335216E-007  0.5002694E+03  0.7818608E-02  0.1013709E+00
          1   -1    0    0  501    0  0.00000000000E+00  0.00000000000E+00  0.72154310154E+03  0.72154310154E+03  0.00000000000E+00 0. -1.
         -1   -1    0    0    0  501 -0.00000000000E+00 -0.00000000000E+00 -0.42952996928E+03  0.42952996928E+03  0.00000000000E+00 0.  1.
         23    2    1    2    0    0 -0.24406069830E+03  0.26860814579E+03  0.24752139132E+03  0.44855564996E+03  0.90660749527E+02 0.  0.
    5000000    2    1    2    0    0  0.24406069830E+03 -0.26860814579E+03  0.44491740939E+02  0.70251742086E+03  0.59986269359E+03 0.  0.
         23    2    4    4    0    0  0.32645411451E+03 -0.35415354324E+03  0.15892155967E+03  0.51519372510E+03  0.90396300729E+02 0.  0.
         23    2    4    4    0    0 -0.82393416214E+02  0.85545397446E+02 -0.11442981873E+03  0.18732369576E+03  0.88821695093E+02 0.  0.
          3    1    3    3  502    0 -0.15400071513E+03  0.12759820496E+03  0.17668834542E+03  0.26686381091E+03  0.00000000000E+00 0. -1.
         -3    1    3    3    0  502 -0.90059983169E+02  0.14100994083E+03  0.70833045906E+02  0.18169183904E+03  0.00000000000E+00 0.  1.
         13    1    5    5    0    0  0.19330896019E+03 -0.14475998154E+03  0.89135779843E+02  0.25742764730E+03  0.00000000000E+00 0. -1.
        -13    1    5    5    0    0  0.13314515432E+03 -0.20939356170E+03  0.69785779823E+02  0.25776607780E+03  0.00000000000E+00 0.  1.
          1    1    6    6  503    0  0.11785695636E+02  0.34511929946E+02 -0.10208525130E+02  0.37870699961E+02  0.00000000000E+00 0. -1.
         -1    1    6    6    0  503 -0.94179111850E+02  0.51033467500E+02 -0.10422129360E+03  0.14945299580E+03  0.00000000000E+00 0.  1.
<mgrwt>
<rscale>  0 0.50026937E+03</rscale>
<asrwt>0</asrwt>
<pdfrwt beam="1">  1        1 0.11100663E+00 0.50026937E+03</pdfrwt>
<pdfrwt beam="2">  1       -1 0.66081534E-01 0.50026937E+03</pdfrwt>
<totfact> 0.63264184E+01</totfact>
</mgrwt>
</event>
<event>
12    1  0.1335216E-007  0.4666282E+03  0.7818608E-02  0.1022876E+00
          2   -1    0    0  501    0  0.00000000000E+00  0.00000000000E+00  0.59951237672E+03  0.59951237672E+03  0.00000000000E+00 0. -1.
         -2   -1    0    0    0  501 -0.00000000000E+00 -0.00000000000E+00 -0.43594232714E+03  0.43594232714E+03  0.00000000000E+00 0.  1.
         23    2    1    2    0    0 -0.25212232624E+03  0.20557695427E+03  0.78381335448E+02  0.34770074874E+03  0.94470235618E+02 0.  0.
    5000000    2    1    2    0    0  0.25212232624E+03 -0.20557695427E+03  0.85188714129E+02  0.68775395512E+03  0.59993402492E+03 0.  0.
         23    2    4    4    0    0 -0.90974455969E+02 -0.22655554244E+03 -0.10917083679E+03  0.28257574815E+03  0.91252487016E+02 0.  0.
         23    2    4    4    0    0  0.34309678221E+03  0.20978588176E+02  0.19435955092E+03  0.40517820697E+03  0.90764757747E+02 0.  0.
          2    1    3    3  502    0 -0.23639445415E+03  0.16110001690E+03  0.44246824076E+02  0.28947078408E+03  0.00000000000E+00 0. -1.
         -2    1    3    3    0  502 -0.15727872091E+02  0.44476937364E+02  0.34134511372E+02  0.58229964660E+02  0.00000000000E+00 0.  1.
         11    1    5    5    0    0 -0.40208958964E+01 -0.11313350709E+03 -0.22463288014E+02  0.11541211954E+03  0.00000000000E+00 0. -1.
        -11    1    5    5    0    0 -0.86953560073E+02 -0.11342203536E+03 -0.86707548775E+02  0.16716362860E+03  0.00000000000E+00 0.  1.
          1    1    6    6  503    0  0.13845161453E+03  0.34568581037E+01  0.12996746193E+03  0.18992719814E+03  0.00000000000E+00 0. -1.
         -1    1    6    6    0  503  0.20464516767E+03  0.17521730072E+02  0.64392088992E+02  0.21525100883E+03  0.00000000000E+00 0.  1.
<mgrwt>
<rscale>  0 0.46662818E+03</rscale>
<asrwt>0</asrwt>
<pdfrwt beam="1">  1        2 0.92232674E-01 0.46662818E+03</pdfrwt>
<pdfrwt beam="2">  1       -2 0.67068050E-01 0.46662818E+03</pdfrwt>
<totfact> 0.10451827E+02</totfact>
</mgrwt>
</event>
<event>
12    1  0.1335216E-007  0.9905233E+03  0.7818608E-02  0.9319000E-01
          1   -1    0    0  501    0  0.00000000000E+00  0.00000000000E+00  0.34306277137E+04  0.34306277137E+04  0.00000000000E+00 0. -1.
         -1   -1    0    0    0  501 -0.00000000000E+00 -0.00000000000E+00 -0.42251626026E+03  0.42251626026E+03  0.00000000000E+00 0.  1.
         23    2    1    2    0    0 -0.54098435644E+03  0.75028120760E+03  0.24436680705E+04  0.26145019338E+04  0.92307956017E+02 0.  0.
    5000000    2    1    2    0    0  0.54098435644E+03 -0.75028120760E+03  0.56444338294E+03  0.12386420402E+04  0.60004317069E+03 0.  0.
         23    2    4    4    0    0 -0.95543684071E+02 -0.75980186733E+02 -0.44188628681E+01  0.14703306695E+03  0.81838939912E+02 0.  0.
         23    2    4    4    0    0  0.63652804052E+03 -0.67430102087E+03  0.56886224581E+03  0.10916089732E+04  0.90311032327E+02 0.  0.
          2    1    3    3  502    0 -0.32912484815E+03  0.49961216628E+03  0.14737304110E+04  0.15905397847E+04  0.00000000000E+00 0. -1.
         -2    1    3    3    0  502 -0.21185950830E+03  0.25066904133E+03  0.96993765950E+03  0.10239621491E+04  0.00000000000E+00 0.  1.
         13    1    5    5    0    0 -0.16879883833E+02 -0.30037503838E+02 -0.36742981109E+02  0.50370912001E+02  0.00000000000E+00 0. -1.
        -13    1    5    5    0    0 -0.78663800238E+02 -0.45942682895E+02  0.32324118240E+02  0.96662154950E+02  0.00000000000E+00 0.  1.
          3    1    6    6  503    0  0.50739938353E+03 -0.50273970435E+03  0.40173111252E+03  0.81950547985E+03  0.00000000000E+00 0. -1.
         -3    1    6    6    0  503  0.12912865699E+03 -0.17156131652E+03  0.16713113328E+03  0.27210349335E+03  0.00000000000E+00 0.  1.
<mgrwt>
<rscale>  0 0.99052333E+03</rscale>
<asrwt>0</asrwt>
<pdfrwt beam="1">  1        1 0.52778886E+00 0.99052333E+03</pdfrwt>
<pdfrwt beam="2">  1       -1 0.65002504E-01 0.99052333E+03</pdfrwt>
<totfact> 0.70670852E-01</totfact>
</mgrwt>
</event>
<event>
12    1  0.1335216E-007  0.6049904E+03  0.7818608E-02  0.9895106E-01
         -2   -1    0    0    0  501 -0.00000000000E+00  0.00000000000E+00  0.12333933992E+04  0.12333933992E+04  0.00000000000E+00 0.  1.
          2   -1    0    0  501    0  0.00000000000E+00 -0.00000000000E+00 -0.60600865780E+03  0.60600865780E+03  0.00000000000E+00 0. -1.
         23    2    1    2    0    0 -0.42218201586E+03  0.23973327052E+03 -0.34143687304E+03  0.60058369418E+03  0.91716628485E+02 0.  0.
    5000000    2    1    2    0    0  0.42218201586E+03 -0.23973327052E+03  0.96882161443E+03  0.12388183628E+04  0.60028819740E+03 0.  0.
         23    2    4    4    0    0  0.85477261942E+02 -0.34656027266E+03  0.68304637567E+03  0.77573558894E+03  0.88334408589E+02 0.  0.
         23    2    4    4    0    0  0.33670475392E+03  0.10682700214E+03  0.28577523876E+03  0.46308277386E+03  0.89420739558E+02 0.  0.
          1    1    3    3  502    0 -0.26924744330E+03  0.19612597442E+03 -0.25557591850E+03  0.41985549143E+03  0.00000000000E+00 0. -1.
         -1    1    3    3    0  502 -0.15293457256E+03  0.43607296096E+02 -0.85860954545E+02  0.18072820276E+03  0.00000000000E+00 0.  1.
         13    1    5    5    0    0  0.57373054331E+01 -0.13530626321E+03  0.32935571851E+03  0.35611218858E+03  0.00000000000E+00 0.  1.
        -13    1    5    5    0    0  0.79739956509E+02 -0.21125400945E+03  0.35369065716E+03  0.41962340037E+03  0.00000000000E+00 0. -1.
          1    1    6    6  503    0  0.91732511602E+02  0.67229903214E+01  0.34737479684E+02  0.98319605260E+02  0.00000000000E+00 0. -1.
         -1    1    6    6    0  503  0.24497224231E+03  0.10010401182E+03  0.25103775907E+03  0.36476316860E+03  0.00000000000E+00 0.  1.
<mgrwt>
<rscale>  0 0.60499043E+03</rscale>
<asrwt>0</asrwt>
<pdfrwt beam="1">  1        2 0.93232101E-01 0.60499043E+03</pdfrwt>
<pdfrwt beam="2">  1       -2 0.18975283E+00 0.60499043E+03</pdfrwt>
<totfact> 0.79118910E+00</totfact>
</mgrwt>
</event>
<event>
12    1  0.1335216E-007  0.4252985E+03  0.7818608E-02  0.1035356E+00
          1   -1    0    0  501    0  0.00000000000E+00  0.00000000000E+00  0.66096961301E+03  0.66096961301E+03  0.00000000000E+00 0. -1.
         -1   -1    0    0    0  501 -0.00000000000E+00 -0.00000000000E+00 -0.51547120225E+03  0.51547120225E+03  0.00000000000E+00 0.  1.
         23    2    1    2    0    0  0.24283808175E+03  0.32944901744E+03  0.16166971859E+03  0.44999552612E+03  0.94084465124E+02 0.  0.
    5000000    2    1    2    0    0 -0.24283808175E+03 -0.32944901744E+03 -0.16171307829E+02  0.72644528914E+03  0.59996188035E+03 0.  0.
         23    2    4    4    0    0 -0.35549959901E+02 -0.14744613415E+03  0.26743124028E+03  0.32032918134E+03  0.89928605108E+02 0.  0.
         23    2    4    4    0    0 -0.20728812185E+03 -0.18200288329E+03 -0.28360254811E+03  0.40611610779E+03  0.91686818717E+02 0.  0.
          4    1    3    3  502    0  0.13577134595E+03  0.21321806526E+03  0.53176327103E+02  0.25830896906E+03  0.00000000000E+00 0. -1.
         -4    1    3    3    0  502  0.10706673580E+03  0.11623095218E+03  0.10849339149E+03  0.19168655706E+03  0.00000000000E+00 0.  1.
         11    1    5    5    0    0 -0.37330423908E+02 -0.98397871563E+02  0.97543014055E+02  0.14349334921E+03  0.00000000000E+00 0. -1.
        -11    1    5    5    0    0  0.17804640070E+01 -0.49048262588E+02  0.16988822623E+03  0.17683583213E+03  0.00000000000E+00 0.  1.
          2    1    6    6  503    0 -0.11157776312E+03 -0.49621100432E+02 -0.84130268790E+02  0.14828942295E+03  0.00000000000E+00 0. -1.
         -2    1    6    6    0  503 -0.95710358732E+02 -0.13238178286E+03 -0.19947227932E+03  0.25782668485E+03  0.00000000000E+00 0.  1.
<mgrwt>
<rscale>  0 0.42529846E+03</rscale>
<asrwt>0</asrwt>
<pdfrwt beam="1">  1        1 0.10168763E+00 0.42529846E+03</pdfrwt>
<pdfrwt beam="2">  1       -1 0.79303262E-01 0.42529846E+03</pdfrwt>
<totfact> 0.50145797E+01</totfact>
</mgrwt>
</event>
<event>
12    1  0.1335216E-007  0.4677003E+03  0.7818608E-02  0.1022571E+00
          1   -1    0    0  501    0  0.00000000000E+00  0.00000000000E+00  0.67857795217E+03  0.67857795217E+03  0.00000000000E+00 0. -1.
         -1   -1    0    0    0  501 -0.00000000000E+00 -0.00000000000E+00 -0.42831681182E+03  0.42831681182E+03  0.00000000000E+00 0.  1.
         23    2    1    2    0    0 -0.15228855995E+03  0.30864665308E+03  0.21195144683E+03  0.41427709541E+03  0.90815934848E+02 0.  0.
    5000000    2    1    2    0    0  0.15228855995E+03 -0.30864665308E+03  0.38309693523E+02  0.69261766859E+03  0.59983084305E+03 0.  0.
         23    2    4    4    0    0 -0.15702989506E+03 -0.84114119259E+02  0.18548188560E+03  0.27295053568E+03  0.91459783751E+02 0.  0.
         23    2    4    4    0    0  0.30931845501E+03 -0.22453253382E+03 -0.14717219207E+03  0.41966713290E+03  0.91477226488E+02 0.  0.
          1    1    3    3  502    0 -0.91648750304E+02  0.11535398639E+03  0.12734533344E+03  0.19473795099E+03  0.00000000000E+00 0. -1.
         -1    1    3    3    0  502 -0.60639809645E+02  0.19329266669E+03  0.84606113393E+02  0.21953914442E+03  0.00000000000E+00 0.  1.
         11    1    5    5    0    0 -0.87669139499E+02 -0.90856062705E+02  0.14536760820E+03  0.19254205687E+03  0.00000000000E+00 0.  1.
        -11    1    5    5    0    0 -0.69360755562E+02  0.67419434464E+01  0.40114277394E+02  0.80408478809E+02  0.00000000000E+00 0. -1.
          4    1    6    6  503    0  0.14220593801E+03 -0.14959306867E+03 -0.50129110949E+02  0.21239948861E+03  0.00000000000E+00 0. -1.
         -4    1    6    6    0  503  0.16711251700E+03 -0.74939465154E+02 -0.97043081125E+02  0.20726764429E+03  0.00000000000E+00 0.  1.
<mgrwt>
<rscale>  0 0.46770030E+03</rscale>
<asrwt>0</asrwt>
<pdfrwt beam="1">  1        1 0.10439661E+00 0.46770030E+03</pdfrwt>
<pdfrwt beam="2">  1       -1 0.65894894E-01 0.46770030E+03</pdfrwt>
<totfact> 0.70023442E+01</totfact>
</mgrwt>
</event>
<event>
12    1  0.1335216E-007  0.1353196E+04  0.7818608E-02  0.8988413E-01
         -1   -1    0    0    0  501 -0.00000000000E+00  0.00000000000E+00  0.14999291696E+04  0.14999291696E+04  0.00000000000E+00 0.  1.
          1   -1    0    0  501    0  0.00000000000E+00 -0.00000000000E+00 -0.17231749887E+04  0.17231749887E+04  0.00000000000E+00 0. -1.
         23    2    1    2    0    0 -0.36229364693E+03 -0.12454852992E+04  0.74322358676E+03  0.14978336558E+04  0.92919553829E+02 0.  0.
    5000000    2    1    2    0    0  0.36229364693E+03  0.12454852992E+04 -0.96646940586E+03  0.17252705025E+04  0.60000406432E+03 0.  0.
         23    2    4    4    0    0  0.17060657177E+03  0.11920352220E+04 -0.77869204622E+03  0.14368250576E+04  0.89723856877E+02 0.  0.
         23    2    4    4    0    0  0.19168707516E+03  0.53450077215E+02 -0.18777735964E+03  0.28844544491E+03  0.91321368566E+02 0.  0.
          2    1    3    3  502    0 -0.18691658543E+03 -0.58214693061E+03  0.40007039644E+03  0.73067720701E+03  0.00000000000E+00 0. -1.
         -2    1    3    3    0  502 -0.17537706149E+03 -0.66333836860E+03  0.34315319032E+03  0.76715644882E+03  0.00000000000E+00 0.  1.
         11    1    5    5    0    0 -0.66198179839E+01  0.93698536273E+02 -0.77240596637E+02  0.12161146105E+03  0.00000000000E+00 0.  1.
        -11    1    5    5    0    0  0.17722638975E+03  0.10983366857E+04 -0.70145144958E+03  0.13152135965E+04  0.00000000000E+00 0. -1.
          4    1    6    6  503    0  0.55999305438E+02 -0.13876559468E+01 -0.79283911732E+01  0.56574792842E+02  0.00000000000E+00 0. -1.
         -4    1    6    6    0  503  0.13568776972E+03  0.54837733162E+02 -0.17984896847E+03  0.23187065206E+03  0.00000000000E+00 0.  1.
<mgrwt>
<rscale>  0 0.13531956E+04</rscale>
<asrwt>0</asrwt>
<pdfrwt beam="1">  1        1 0.26510384E+00 0.13531956E+04</pdfrwt>
<pdfrwt beam="2">  1       -1 0.23075834E+00 0.13531956E+04</pdfrwt>
<totfact> 0.41218464E-01</totfact>
</mgrwt>
</event>
<event>
12    1  0.1335216E-007  0.1167466E+04  0.7818608E-02  0.9141820E-01
         -2   -1    0    0    0  501 -0.00000000000E+00  0.00000000000E+00  0.43337365070E+03  0.43337365070E+03  0.00000000000E+00 0.  1.
          2   -1    0    0  501    0  0.00000000000E+00 -0.00000000000E+00 -0.33270347257E+04  0.33270347257E+04  0.00000000000E+00 0. -1.
         23    2    1    2    0    0 -0.37401932518E+02 -0.11049247832E+04 -0.10454983517E+04  0.15247964568E+04  0.98385721359E+02 0.  0.
    5000000    2    1    2    0    0  0.37401932518E+02  0.11049247832E+04 -0.18481627233E+04  0.22356119195E+04  0.59999793499E+03 0.  0.
         23    2    4    4    0    0  0.24435461467E+03  0.86793654413E+03 -0.11466301433E+04  0.14615134611E+04  0.90762817353E+02 0.  0.
         23    2    4    4    0    0 -0.20695268215E+03  0.23698823909E+03 -0.70153257992E+03  0.77409845844E+03  0.89931221230E+02 0.  0.
          1    1    3    3  502    0  0.70792421242E+01 -0.83148996037E+03 -0.81647064813E+03  0.11653540188E+04  0.00000000000E+00 0. -1.
         -1    1    3    3    0  502 -0.44481174642E+02 -0.27343482286E+03 -0.22902770358E+03  0.35944243803E+03  0.00000000000E+00 0.  1.
         13    1    5    5    0    0  0.13188511648E+02  0.74614275964E+02 -0.13980519574E+03  0.15901798569E+03  0.00000000000E+00 0. -1.
        -13    1    5    5    0    0  0.23116610302E+03  0.79332226817E+03 -0.10068249476E+04  0.13024954754E+04  0.00000000000E+00 0.  1.
          1    1    6    6  503    0 -0.13194483231E+03  0.20260670146E+03 -0.47476537222E+03  0.53278614182E+03  0.00000000000E+00 0. -1.
         -1    1    6    6    0  503 -0.75007849836E+02  0.34381537636E+02 -0.22676720770E+03  0.24131231662E+03  0.00000000000E+00 0.  1.
<mgrwt>
<rscale>  0 0.11674656E+04</rscale>
<asrwt>0</asrwt>
<pdfrwt beam="1">  1        2 0.51185150E+00 0.11674656E+04</pdfrwt>
<pdfrwt beam="2">  1       -2 0.66672869E-01 0.11674656E+04</pdfrwt>
<totfact> 0.22214525E+00</totfact>
</mgrwt>
</event>
<event>
12    1  0.1335216E-007  0.5693019E+03  0.7818608E-02  0.9971225E-01
         -2   -1    0    0    0  501 -0.00000000000E+00  0.00000000000E+00  0.29892649217E+03  0.29892649217E+03  0.00000000000E+00 0.  1.
          2   -1    0    0  501    0  0.00000000000E+00 -0.00000000000E+00 -0.12779349150E+04  0.12779349150E+04  0.00000000000E+00 0. -1.
         23    2    1    2    0    0  0.42983888069E+03 -0.16754533533E+03 -0.28440956126E+03  0.54964283776E+03  0.91572636901E+02 0.  0.
    5000000    2    1    2    0    0 -0.42983888069E+03  0.16754533533E+03 -0.69459886160E+03  0.10272185694E+04  0.59989791475E+03 0.  0.
         23    2    4    4    0    0 -0.13537910160E+03 -0.16058791903E+03 -0.38546018787E+02  0.23099733121E+03  0.88079456023E+02 0.  0.
         23    2    4    4    0    0 -0.29445977909E+03  0.32813325436E+03 -0.65605284282E+03  0.79622123824E+03  0.95838058907E+02 0.  0.
          3    1    3    3  502    0  0.27671543906E+03 -0.73589617494E+02 -0.13782506216E+03  0.31777761686E+03  0.00000000000E+00 0. -1.
         -3    1    3    3    0  502  0.15312344163E+03 -0.93955717833E+02 -0.14658449910E+03  0.23186522090E+03  0.00000000000E+00 0.  1.
         11    1    5    5    0    0 -0.42289601773E+02 -0.10515986416E+03 -0.46170691696E+02  0.12238766368E+03  0.00000000000E+00 0.  1.
        -11    1    5    5    0    0 -0.93089499824E+02 -0.55428054865E+02  0.76246729091E+01  0.10860966753E+03  0.00000000000E+00 0. -1.
          1    1    6    6  503    0 -0.14341451789E+03  0.91224064189E+02 -0.26012528026E+03  0.31073254619E+03  0.00000000000E+00 0. -1.
         -1    1    6    6    0  503 -0.15104526120E+03  0.23690919017E+03 -0.39592756256E+03  0.48548869205E+03  0.00000000000E+00 0.  1.
<mgrwt>
<rscale>  0 0.56930191E+03</rscale>
<asrwt>0</asrwt>
<pdfrwt beam="1">  1        2 0.19660537E+00 0.56930191E+03</pdfrwt>
<pdfrwt beam="2">  1       -2 0.45988691E-01 0.56930191E+03</pdfrwt>
<totfact> 0.79085838E+01</totfact>
</mgrwt>
</event>
<event>
12    1  0.1335216E-007  0.6825186E+03  0.7818608E-02  0.9747604E-01
          2   -1    0    0  501    0  0.00000000000E+00  0.00000000000E+00  0.21524790158E+04  0.21524790158E+04  0.00000000000E+00 0.  1.
         -2   -1    0    0    0  501 -0.00000000000E+00 -0.00000000000E+00 -0.38585179710E+03  0.38585179710E+03  0.00000000000E+00 0. -1.
         23    2    1    2    0    0  0.19767293565E+03  0.52002196550E+03 -0.29584785071E+02  0.56454711708E+03  0.91327727430E+02 0.  0.
    5000000    2    1    2    0    0 -0.19767293565E+03 -0.52002196550E+03  0.17962120038E+04  0.19737836958E+04  0.59995589944E+03 0.  0.
         23    2    4    4    0    0  0.20143941687E+03 -0.19786655171E+03  0.60088087758E+03  0.66988031289E+03  0.89178436848E+02 0.  0.
         23    2    4    4    0    0 -0.39911235253E+03 -0.32215541379E+03  0.11953311262E+04  0.13039033829E+04  0.90954660051E+02 0.  0.
          3    1    3    3  502    0  0.98636512551E+02  0.33632734859E+03  0.16298681244E+02  0.35087162043E+03  0.00000000000E+00 0. -1.
         -3    1    3    3    0  502  0.99036423102E+02  0.18369461692E+03 -0.45883466316E+02  0.21367549665E+03  0.00000000000E+00 0.  1.
         11    1    5    5    0    0  0.16453558891E+03 -0.11976748241E+03  0.47951773957E+03  0.52091599363E+03  0.00000000000E+00 0. -1.
        -11    1    5    5    0    0  0.36903827964E+02 -0.78099069297E+02  0.12136313801E+03  0.14896431926E+03  0.00000000000E+00 0.  1.
          3    1    6    6  503    0 -0.26694302400E+03 -0.18058931022E+03  0.65698150910E+03  0.73177577189E+03  0.00000000000E+00 0. -1.
         -3    1    6    6    0  503 -0.13216932852E+03 -0.14156610357E+03  0.53834961709E+03  0.57212761103E+03  0.00000000000E+00 0.  1.
<mgrwt>
<rscale>  0 0.68251864E+03</rscale>
<asrwt>0</asrwt>
<pdfrwt beam="1">  1        2 0.33115061E+00 0.68251864E+03</pdfrwt>
<pdfrwt beam="2">  1       -2 0.59361816E-01 0.68251864E+03</pdfrwt>
<totfact> 0.15264917E+01</totfact>
</mgrwt>
</event>
<event>
12    1  0.1335216E-007  0.1313398E+04  0.7818608E-02  0.9019007E-01
          2   -1    0    0  501    0  0.00000000000E+00  0.00000000000E+00  0.13380973641E+04  0.13380973641E+04  0.00000000000E+00 0. -1.
         -2   -1    0    0    0  501 -0.00000000000E+00 -0.00000000000E+00 -0.13145101466E+04  0.13145101466E+04  0.00000000000E+00 0.  1.
         23    2    1    2    0    0  0.33381353711E+03 -0.12097378565E+04  0.76253273337E+02  0.12605575037E+04  0.91068652515E+02 0.  0.
    5000000    2    1    2    0    0 -0.33381353711E+03  0.12097378565E+04 -0.52666055821E+02  0.13920500070E+04  0.60011028130E+03 0.  0.
         23    2    4    4    0    0  0.12651898184E+03  0.53393021351E+03 -0.11110582735E+03  0.56730110116E+03  0.91637922532E+02 0.  0.
         23    2    4    4    0    0 -0.46033251895E+03  0.67580764294E+03  0.58439771531E+02  0.82474890586E+03  0.90407701841E+02 0.  0.
          4    1    3    3  502    0  0.11505649788E+03 -0.57763072838E+03  0.51178413412E+02  0.59119750175E+03  0.00000000000E+00 0. -1.
         -4    1    3    3    0  502  0.21875703923E+03 -0.63210712807E+03  0.25074859924E+02  0.66936000192E+03  0.00000000000E+00 0.  1.
         13    1    5    5    0    0  0.11306317553E+03  0.37367412440E+03 -0.11314056628E+03  0.40646822834E+03  0.00000000000E+00 0.  1.
        -13    1    5    5    0    0  0.13455806317E+02  0.16025608911E+03  0.20347389327E+01  0.16083287283E+03  0.00000000000E+00 0. -1.
          1    1    6    6  503    0 -0.15323314901E+03  0.22852418576E+03  0.62588512657E+02  0.28217197477E+03  0.00000000000E+00 0. -1.
         -1    1    6    6    0  503 -0.30709936994E+03  0.44728345719E+03 -0.41487411264E+01  0.54257693108E+03  0.00000000000E+00 0.  1.
<mgrwt>
<rscale>  0 0.13133984E+04</rscale>
<asrwt>0</asrwt>
<pdfrwt beam="1">  1        2 0.20586113E+00 0.13133984E+04</pdfrwt>
<pdfrwt beam="2">  1       -2 0.20223233E+00 0.13133984E+04</pdfrwt>
<totfact> 0.19384493E+00</totfact>
</mgrwt>
</event>
<event>
12    1  0.1335216E-007  0.7006957E+03  0.7818608E-02  0.9716043E-01
          2   -1    0    0  501    0  0.00000000000E+00  0.00000000000E+00  0.46960350468E+03  0.46960350468E+03  0.00000000000E+00 0. -1.
         -2   -1    0    0    0  501 -0.00000000000E+00 -0.00000000000E+00 -0.14572964469E+04  0.14572964469E+04  0.00000000000E+00 0.  1.
         23    2    1    2    0    0  0.37991783572E+02 -0.66946077599E+03 -0.14190202745E+03  0.69207148924E+03  0.95946102646E+02 0.  0.
    5000000    2    1    2    0    0 -0.37991783572E+02  0.66946077599E+03 -0.84579091481E+03  0.12348284624E+04  0.59984827560E+03 0.  0.
         23    2    4    4    0    0 -0.34900547597E+02  0.59920516575E+03 -0.91372331485E+03  0.10969365200E+04  0.90080819025E+02 0.  0.
         23    2    4    4    0    0 -0.30912359750E+01  0.70255610241E+02  0.67932400037E+02  0.13789194237E+03  0.97231529284E+02 0.  0.
          4    1    3    3  502    0  0.61457648358E+02 -0.25796629382E+03 -0.58048276657E+02  0.27146501379E+03  0.00000000000E+00 0. -1.
         -4    1    3    3    0  502 -0.23465864787E+02 -0.41149448217E+03 -0.83853750794E+02  0.42060647545E+03  0.00000000000E+00 0.  1.
         13    1    5    5    0    0 -0.44291717797E+02  0.14407749354E+03 -0.20099685529E+03  0.25123657427E+03  0.00000000000E+00 0. -1.
        -13    1    5    5    0    0  0.93911702004E+01  0.45512767221E+03 -0.71272645955E+03  0.84569994575E+03  0.00000000000E+00 0.  1.
          2    1    6    6  503    0 -0.48685552819E+02  0.29460568950E+02  0.45024482163E+02  0.72563159869E+02  0.00000000000E+00 0. -1.
         -2    1    6    6    0  503  0.45594316844E+02  0.40795041291E+02  0.22907917874E+02  0.65328782506E+02  0.00000000000E+00 0.  1.
<mgrwt>
<rscale>  0 0.70069570E+03</rscale>
<asrwt>0</asrwt>
<pdfrwt beam="1">  1        2 0.72246695E-01 0.70069570E+03</pdfrwt>
<pdfrwt beam="2">  1       -2 0.22419945E+00 0.70069570E+03</pdfrwt>
<totfact> 0.63398185E+00</totfact>
</mgrwt>
</event>
<event>
12    1  0.1335216E-007  0.4335546E+03  0.7818608E-02  0.1032743E+00
         -2   -1    0    0    0  501 -0.00000000000E+00  0.00000000000E+00  0.12897488666E+03  0.12897488666E+03  0.00000000000E+00 0.  1.
          2   -1    0    0  501    0  0.00000000000E+00 -0.00000000000E+00 -0.18547198244E+04  0.18547198244E+04  0.00000000000E+00 0. -1.
         23    2    1    2    0    0  0.19759183313E+03  0.13396683399E+03 -0.89028697283E+03  0.92773085514E+03  0.10528057972E+03 0.  0.
    5000000    2    1    2    0    0 -0.19759183313E+03 -0.13396683399E+03 -0.83545796490E+03  0.10559638559E+04  0.60006667024E+03 0.  0.
         23    2    4    4    0    0  0.65701855781E+02 -0.29753021008E+03 -0.35054108521E+03  0.47316432353E+03  0.90357428464E+02 0.  0.
         23    2    4    4    0    0 -0.26329368891E+03  0.16356337609E+03 -0.48491687969E+03  0.58279953238E+03  0.91838826842E+02 0.  0.
          4    1    3    3  502    0  0.14060675887E+03  0.79528457386E+02 -0.74634538455E+03  0.76362717946E+03  0.00000000000E+00 0. -1.
         -4    1    3    3    0  502  0.56985074258E+02  0.54438376605E+02 -0.14394158828E+03  0.16410367568E+03  0.00000000000E+00 0.  1.
         13    1    5    5    0    0  0.25816220112E+02 -0.22145502696E+03 -0.29905671858E+03  0.37301974091E+03  0.00000000000E+00 0. -1.
        -13    1    5    5    0    0  0.39885635669E+02 -0.76075183122E+02 -0.51484366633E+02  0.10014458262E+03  0.00000000000E+00 0.  1.
          3    1    6    6  503    0 -0.11124160455E+03  0.29232350925E+02 -0.12673842536E+03  0.17114862951E+03  0.00000000000E+00 0. -1.
         -3    1    6    6    0  503 -0.15205208436E+03  0.13433102516E+03 -0.35817845433E+03  0.41165090286E+03  0.00000000000E+00 0.  1.
<mgrwt>
<rscale>  0 0.43355465E+03</rscale>
<asrwt>0</asrwt>
<pdfrwt beam="1">  1        2 0.28534151E+00 0.43355465E+03</pdfrwt>
<pdfrwt beam="2">  1       -2 0.19842290E-01 0.43355465E+03</pdfrwt>
<totfact> 0.18431774E+02</totfact>
</mgrwt>
</event>
<event>
12    1  0.1335216E-007  0.7113740E+03  0.7818608E-02  0.9697976E-01
         -2   -1    0    0    0  501 -0.00000000000E+00  0.00000000000E+00  0.10666257816E+04  0.10666257816E+04  0.00000000000E+00 0. -1.
          2   -1    0    0  501    0  0.00000000000E+00 -0.00000000000E+00 -0.10105879895E+04  0.10105879895E+04  0.00000000000E+00 0.  1.
         23    2    1    2    0    0 -0.15408811411E+03 -0.62469568020E+03  0.72428067541E+03  0.97256376100E+03  0.85498144293E+02 0.  0.
    5000000    2    1    2    0    0  0.15408811411E+03  0.62469568020E+03 -0.66824288330E+03  0.11046500101E+04  0.59976266463E+03 0.  0.
         23    2    4    4    0    0  0.25010860187E+03  0.17872689769E+03 -0.52893265934E+03  0.61903522220E+03  0.94536932020E+02 0.  0.
         23    2    4    4    0    0 -0.96020487760E+02  0.44596878251E+03 -0.13931022395E+03  0.48561478786E+03  0.91138875607E+02 0.  0.
          1    1    3    3  502    0 -0.12654053850E+03 -0.56623214536E+03  0.61417509209E+03  0.84489194225E+03  0.00000000000E+00 0.  1.
         -1    1    3    3    0  502 -0.27547575607E+02 -0.58463534838E+02  0.11010558331E+03  0.12767181876E+03  0.00000000000E+00 0. -1.
         11    1    5    5    0    0  0.19358200190E+03  0.10631833754E+03 -0.43383383601E+03  0.48681554785E+03  0.00000000000E+00 0. -1.
        -11    1    5    5    0    0  0.56526599975E+02  0.72408560144E+02 -0.95098823332E+02  0.13221967435E+03  0.00000000000E+00 0.  1.
          3    1    6    6  503    0 -0.10754918407E+03  0.43843077538E+03 -0.13519134485E+03  0.47123780782E+03  0.00000000000E+00 0. -1.
         -3    1    6    6    0  503  0.11528696309E+02  0.75380071318E+01 -0.41188791070E+01  0.14376980045E+02  0.00000000000E+00 0.  1.
<mgrwt>
<rscale>  0 0.71137402E+03</rscale>
<asrwt>0</asrwt>
<pdfrwt beam="1">  1        2 0.15547508E+00 0.71137402E+03</pdfrwt>
<pdfrwt beam="2">  1       -2 0.16409627E+00 0.71137402E+03</pdfrwt>
<totfact> 0.59749975E+00</totfact>
</mgrwt>
</event>
<event>
12    1  0.1335216E-007  0.1024057E+04  0.7818608E-02  0.9282546E-01
         -1   -1    0    0    0  501 -0.00000000000E+00  0.00000000000E+00  0.11709049789E+04  0.11709049789E+04  0.00000000000E+00 0.  1.
          1   -1    0    0  501    0  0.00000000000E+00 -0.00000000000E+00 -0.15239485988E+04  0.15239485988E+04  0.00000000000E+00 0. -1.
         23    2    1    2    0    0  0.35550916735E+03 -0.94089628634E+03  0.60871926798E+03  0.11792125887E+04  0.91272079544E+02 0.  0.
    5000000    2    1    2    0    0 -0.35550916735E+03  0.94089628634E+03 -0.96176288785E+03  0.15156409890E+04  0.60042248897E+03 0.  0.
         23    2    4    4    0    0 -0.68505930349E+02  0.49204530973E+03 -0.12677192074E+03  0.52102964467E+03  0.92731447820E+02 0.  0.
         23    2    4    4    0    0 -0.28700323700E+03  0.44885097661E+03 -0.83499096711E+03  0.99461134429E+03  0.90574575884E+02 0.  0.
          2    1    3    3  502    0  0.19860584443E+03 -0.42510572522E+03  0.31655582520E+03  0.56600949597E+03  0.00000000000E+00 0. -1.
         -2    1    3    3    0  502  0.15690332292E+03 -0.51579056112E+03  0.29216344278E+03  0.61320309276E+03  0.00000000000E+00 0.  1.
         11    1    5    5    0    0 -0.88319698369E+02  0.35216329366E+03 -0.76251711439E+02  0.37099013197E+03  0.00000000000E+00 0. -1.
        -11    1    5    5    0    0  0.19813768020E+02  0.13988201608E+03 -0.50520209305E+02  0.15003951271E+03  0.00000000000E+00 0.  1.
          3    1    6    6  503    0 -0.20837558041E+03  0.27868849995E+03 -0.47603570554E+03  0.58965893147E+03  0.00000000000E+00 0. -1.
         -3    1    6    6    0  503 -0.78627656588E+02  0.17016247666E+03 -0.35895526157E+03  0.40495241282E+03  0.00000000000E+00 0.  1.
<mgrwt>
<rscale>  0 0.10240566E+04</rscale>
<asrwt>0</asrwt>
<pdfrwt beam="1">  1        1 0.23445363E+00 0.10240566E+04</pdfrwt>
<pdfrwt beam="2">  1       -1 0.18013923E+00 0.10240566E+04</pdfrwt>
<totfact> 0.13112198E+00</totfact>
</mgrwt>
</event>
<event>
12    1  0.1335216E-007  0.3884616E+03  0.7818608E-02  0.1047850E+00
         -2   -1    0    0    0  501 -0.00000000000E+00  0.00000000000E+00  0.26532460453E+03  0.26532460453E+03  0.00000000000E+00 0. -1.
          2   -1    0    0  501    0  0.00000000000E+00 -0.00000000000E+00 -0.11275048677E+04  0.11275048677E+04  0.00000000000E+00 0.  1.
         23    2    1    2    0    0 -0.29879607188E+03 -0.17121709491E+03 -0.49341594153E+03  0.60888581839E+03  0.93210848722E+02 0.  0.
    5000000    2    1    2    0    0  0.29879607188E+03  0.17121709491E+03 -0.36876432160E+03  0.78394365380E+03  0.59998845096E+03 0.  0.
         23    2    4    4    0    0  0.19290667424E+03 -0.18090970943E+02 -0.47798824621E+03  0.52371891499E+03  0.90931128948E+02 0.  0.
         23    2    4    4    0    0  0.10588939764E+03  0.18930806586E+03  0.10922392461E+03  0.26022473881E+03  0.93471603444E+02 0.  0.
          1    1    3    3  502    0 -0.20293014566E+03 -0.96274607802E+02 -0.38590975790E+03  0.44651515693E+03  0.00000000000E+00 0. -1.
         -1    1    3    3    0  502 -0.95865926221E+02 -0.74942487111E+02 -0.10750618363E+03  0.16237066146E+03  0.00000000000E+00 0.  1.
         11    1    5    5    0    0  0.12595344404E+03 -0.46204072667E+02 -0.24065092640E+03  0.27552124196E+03  0.00000000000E+00 0. -1.
        -11    1    5    5    0    0  0.66953230200E+02  0.28113101723E+02 -0.23733731981E+03  0.24819767303E+03  0.00000000000E+00 0.  1.
          4    1    6    6  503    0  0.21099945875E+02  0.93781884568E+02  0.65566505484E+01  0.96349568009E+02  0.00000000000E+00 0.  1.
         -4    1    6    6    0  503  0.84789451760E+02  0.95526181288E+02  0.10266727406E+03  0.16387517080E+03  0.00000000000E+00 0. -1.
<mgrwt>
<rscale>  0 0.38846162E+03</rscale>
<asrwt>0</asrwt>
<pdfrwt beam="1">  1        2 0.17346228E+00 0.38846162E+03</pdfrwt>
<pdfrwt beam="2">  1       -2 0.40819171E-01 0.38846162E+03</pdfrwt>
<totfact> 0.12516057E+02</totfact>
</mgrwt>
</event>
<event>
12    1  0.1335216E-007  0.8096492E+03  0.7818608E-02  0.9546154E-01
         -2   -1    0    0    0  501 -0.00000000000E+00  0.00000000000E+00  0.32985178423E+03  0.32985178423E+03  0.00000000000E+00 0.  1.
          2   -1    0    0  501    0  0.00000000000E+00 -0.00000000000E+00 -0.31431525878E+04  0.31431525878E+04  0.00000000000E+00 0. -1.
         23    2    1    2    0    0 -0.54601387731E+03  0.58088014978E+03 -0.20955158780E+04  0.22439049749E+04  0.91486824130E+02 0.  0.
    5000000    2    1    2    0    0  0.54601387731E+03 -0.58088014978E+03 -0.71778492561E+03  0.12290993971E+04  0.59993101768E+03 0.  0.
         23    2    4    4    0    0  0.23995630680E+03 -0.19578063703E+03 -0.64615717424E+03  0.72357254838E+03  0.10064319120E+03 0.  0.
         23    2    4    4    0    0  0.30605757051E+03 -0.38509951274E+03 -0.71627751372E+02  0.50552684875E+03  0.91945575540E+02 0.  0.
          2    1    3    3  502    0 -0.15080767169E+03  0.10744170685E+03 -0.52036214460E+03  0.55232547990E+03  0.00000000000E+00 0. -1.
         -2    1    3    3    0  502 -0.39520620562E+03  0.47343844293E+03 -0.15751537334E+04  0.16915794950E+04  0.00000000000E+00 0.  1.
         13    1    5    5    0    0  0.43140808560E+02  0.53944283650E+01 -0.10391472532E+03  0.11264323930E+03  0.00000000000E+00 0. -1.
        -13    1    5    5    0    0  0.19681549824E+03 -0.20117506540E+03 -0.54224244892E+03  0.61092930908E+03  0.00000000000E+00 0.  1.
          4    1    6    6  503    0  0.13171150779E+03 -0.14661632347E+03  0.15032590716E+02  0.19766194974E+03  0.00000000000E+00 0. -1.
         -4    1    6    6    0  503  0.17434606272E+03 -0.23848318927E+03 -0.86660342087E+02  0.30786489901E+03  0.00000000000E+00 0.  1.
<mgrwt>
<rscale>  0 0.80964921E+03</rscale>
<asrwt>0</asrwt>
<pdfrwt beam="1">  1        2 0.48356193E+00 0.80964921E+03</pdfrwt>
<pdfrwt beam="2">  1       -2 0.50746429E-01 0.80964921E+03</pdfrwt>
<totfact> 0.54872562E+00</totfact>
</mgrwt>
</event>
<event>
12    1  0.1335216E-007  0.1053717E+04  0.7818608E-02  0.9251515E-01
          1   -1    0    0  501    0  0.00000000000E+00  0.00000000000E+00  0.20746578366E+04  0.20746578366E+04  0.00000000000E+00 0. -1.
         -1   -1    0    0    0  501 -0.00000000000E+00 -0.00000000000E+00 -0.56154694040E+03  0.56154694040E+03  0.00000000000E+00 0.  1.
         23    2    1    2    0    0 -0.49554925122E+03 -0.84147601807E+03  0.92360491672E+03  0.13473379815E+04  0.92858196921E+02 0.  0.
    5000000    2    1    2    0    0  0.49554925122E+03  0.84147601807E+03  0.58950597946E+03  0.12888667955E+04  0.60000780611E+03 0.  0.
         23    2    4    4    0    0  0.49026716533E+03  0.30018889683E+03  0.19711192255E+03  0.61441367386E+03  0.90420049921E+02 0.  0.
         23    2    4    4    0    0  0.52820858871E+01  0.54128712124E+03  0.39239405691E+03  0.67445312166E+03  0.88849700970E+02 0.  0.
          1    1    3    3  502    0 -0.33904713067E+03 -0.65442812952E+03  0.68941889453E+03  0.10092212570E+04  0.00000000000E+00 0. -1.
         -1    1    3    3    0  502 -0.15650212055E+03 -0.18704788855E+03  0.23418602219E+03  0.33811672443E+03  0.00000000000E+00 0.  1.
         13    1    5    5    0    0  0.27384427322E+03  0.12576172806E+03  0.13166055153E+03  0.32884829184E+03  0.00000000000E+00 0. -1.
        -13    1    5    5    0    0  0.21642289211E+03  0.17442716877E+03  0.65451371026E+02  0.28556538201E+03  0.00000000000E+00 0.  1.
          1    1    6    6  503    0 -0.26311252976E+02  0.68773996182E+02  0.37309240097E+02  0.82547707301E+02  0.00000000000E+00 0. -1.
         -1    1    6    6    0  503  0.31593338863E+02  0.47251312506E+03  0.35508481681E+03  0.59190541436E+03  0.00000000000E+00 0.  1.
<mgrwt>
<rscale>  0 0.10537170E+04</rscale>
<asrwt>0</asrwt>
<pdfrwt beam="1">  1        1 0.31917812E+00 0.10537170E+04</pdfrwt>
<pdfrwt beam="2">  1       -1 0.86391838E-01 0.10537170E+04</pdfrwt>
<totfact> 0.35221577E+00</totfact>
</mgrwt>
</event>
<event>
12    1  0.1453503E-007  0.9806698E+03  0.7818608E-02  0.9330004E-01
          1   -1    0    0  501    0  0.00000000000E+00  0.00000000000E+00  0.93502664562E+03  0.93502664562E+03  0.00000000000E+00 0. -1.
         -1   -1    0    0    0  501 -0.00000000000E+00 -0.00000000000E+00 -0.14081117427E+04  0.14081117427E+04  0.00000000000E+00 0.  1.
         23    2    1    2    0    0  0.38161752308E+03 -0.81165082886E+03  0.36975181846E+03  0.97439595975E+03  0.91225419772E+02 0.  0.
    5000000    2    1    2    0    0 -0.38161752308E+03  0.81165082886E+03 -0.84283691552E+03  0.13687424286E+04  0.59889295176E+03 0.  0.
         23    2    4    4    0    0 -0.81139165767E+02  0.72753730717E+03 -0.47498270913E+03  0.87733982313E+03  0.90677967123E+02 0.  0.
         23    2    4    4    0    0 -0.30047835731E+03  0.84113521683E+02 -0.36785420639E+03  0.49140260543E+03  0.93794859796E+02 0.  0.
          2    1    3    3  502    0  0.16574440622E+03 -0.28030013933E+03  0.16797799274E+03  0.36640958277E+03  0.00000000000E+00 0. -1.
         -2    1    3    3    0  502  0.21587311686E+03 -0.53135068953E+03  0.20177382572E+03  0.60798637698E+03  0.00000000000E+00 0.  1.
         11    1    5    5    0    0  0.13333583952E+02  0.26863108719E+03 -0.16470248921E+03  0.31538445653E+03  0.00000000000E+00 0. -1.
        -11    1    5    5    0    0 -0.94472749718E+02  0.45890621999E+03 -0.31028021992E+03  0.56195536660E+03  0.00000000000E+00 0.  1.
          2    1    6    6  503    0 -0.12688667577E+03 -0.98924180313E+01 -0.16451511961E+03  0.20799834856E+03  0.00000000000E+00 0. -1.
         -2    1    6    6    0  503 -0.17359168154E+03  0.94005939714E+02 -0.20333908678E+03  0.28340425688E+03  0.00000000000E+00 0.  1.
<mgrwt>
<rscale>  0 0.98066979E+03</rscale>
<asrwt>0</asrwt>
<pdfrwt beam="1">  1        1 0.14385025E+00 0.98066979E+03</pdfrwt>
<pdfrwt beam="2">  1       -1 0.21663257E+00 0.98066979E+03</pdfrwt>
<totfact> 0.19910100E+00</totfact>
</mgrwt>
</event>
<event>
12    1  0.1335216E-007  0.7718934E+03  0.7818608E-02  0.9601616E-01
          2   -1    0    0  501    0  0.00000000000E+00  0.00000000000E+00  0.22934915860E+04  0.22934915860E+04  0.00000000000E+00 0. -1.
         -2   -1    0    0    0  501 -0.00000000000E+00 -0.00000000000E+00 -0.29106424885E+03  0.29106424885E+03  0.00000000000E+00 0.  1.
         23    2    1    2    0    0 -0.61623501609E+03 -0.31854489849E+03  0.68287549133E+03  0.97757646978E+03  0.90113096727E+02 0.  0.
    5000000    2    1    2    0    0  0.61623501609E+03  0.31854489849E+03  0.13195518458E+04  0.16069793650E+04  0.59995763060E+03 0.  0.
         23    2    4    4    0    0  0.70010974143E+02  0.28713928800E+03  0.23318139579E+03  0.38707592102E+03  0.90020542521E+02 0.  0.
         23    2    4    4    0    0  0.54622404194E+03  0.31405610483E+02  0.10863704500E+04  0.12199034440E+04  0.92825867716E+02 0.  0.
          3    1    3    3  502    0 -0.45210623432E+03 -0.23928749461E+03  0.44571394748E+03  0.67846847765E+03  0.00000000000E+00 0. -1.
         -3    1    3    3    0  502 -0.16412878177E+03 -0.79257403881E+02  0.23716154385E+03  0.29910799213E+03  0.00000000000E+00 0.  1.
         11    1    5    5    0    0  0.35270543034E+02  0.17348215672E+03  0.82902828890E+02  0.19548132633E+03  0.00000000000E+00 0.  1.
        -11    1    5    5    0    0  0.34740431109E+02  0.11365713129E+03  0.15027856690E+03  0.19159459469E+03  0.00000000000E+00 0. -1.
          2    1    6    6  503    0  0.74094121747E+02  0.35069025831E+02  0.18551367730E+03  0.20281789841E+03  0.00000000000E+00 0. -1.
         -2    1    6    6    0  503  0.47212992020E+03 -0.36634153480E+01  0.90085677269E+03  0.10170855456E+04  0.00000000000E+00 0.  1.
<mgrwt>
<rscale>  0 0.77189342E+03</rscale>
<asrwt>0</asrwt>
<pdfrwt beam="1">  1        2 0.35284485E+00 0.77189342E+03</pdfrwt>
<pdfrwt beam="2">  1       -2 0.44779117E-01 0.77189342E+03</pdfrwt>
<totfact> 0.22424784E+01</totfact>
</mgrwt>
</event>
<event>
12    1  0.1335216E-007  0.7653591E+03  0.7818608E-02  0.9611558E-01
         -1   -1    0    0    0  501 -0.00000000000E+00  0.00000000000E+00  0.33848025791E+03  0.33848025791E+03  0.00000000000E+00 0.  1.
          1   -1    0    0  501    0  0.00000000000E+00 -0.00000000000E+00 -0.22945196468E+04  0.22945196468E+04  0.00000000000E+00 0. -1.
         23    2    1    2    0    0 -0.64077169712E+03  0.19989851657E+03 -0.28694063884E+03  0.73656380043E+03  0.98201411027E+02 0.  0.
    5000000    2    1    2    0    0  0.64077169712E+03 -0.19989851657E+03 -0.16690987500E+04  0.18964361042E+04  0.60002622894E+03 0.  0.
         23    2    4    4    0    0 -0.67374447891E+02 -0.17609214650E+01 -0.49597259074E+03  0.50890001012E+03  0.91912961343E+02 0.  0.
         23    2    4    4    0    0  0.70814614501E+03 -0.19813759510E+03 -0.11731261593E+04  0.13875360941E+04  0.91115079024E+02 0.  0.
          1    1    3    3  502    0 -0.13463244090E+03  0.82954031307E+02 -0.52353621016E+02  0.16657781090E+03  0.00000000000E+00 0. -1.
         -1    1    3    3    0  502 -0.50613925623E+03  0.11694448526E+03 -0.23458701783E+03  0.56998598953E+03  0.00000000000E+00 0.  1.
         11    1    5    5    0    0 -0.98250014100E+01  0.39902217215E+02 -0.13999868868E+03  0.14590527895E+03  0.00000000000E+00 0. -1.
        -11    1    5    5    0    0 -0.57549446481E+02 -0.41663138680E+02 -0.35597390206E+03  0.36299473117E+03  0.00000000000E+00 0.  1.
          2    1    6    6  503    0  0.60884593306E+03 -0.20230980218E+03 -0.10152243100E+04  0.12009592107E+04  0.00000000000E+00 0.  1.
         -2    1    6    6    0  503  0.99300211953E+02  0.41722070737E+01 -0.15790184931E+03  0.18657688341E+03  0.00000000000E+00 0. -1.
<mgrwt>
<rscale>  0 0.76535911E+03</rscale>
<asrwt>0</asrwt>
<pdfrwt beam="1">  1        1 0.35300303E+00 0.76535911E+03</pdfrwt>
<pdfrwt beam="2">  1       -1 0.52073884E-01 0.76535911E+03</pdfrwt>
<totfact> 0.73193124E+00</totfact>
</mgrwt>
</event>
<event>
12    1  0.1335216E-007  0.2015454E+04  0.7818608E-02  0.8599429E-01
         -2   -1    0    0    0  501 -0.00000000000E+00  0.00000000000E+00  0.36562652686E+04  0.36562652686E+04  0.00000000000E+00 0.  1.
          2   -1    0    0  501    0  0.00000000000E+00 -0.00000000000E+00 -0.15186604006E+04  0.15186604006E+04  0.00000000000E+00 0. -1.
         23    2    1    2    0    0 -0.19296566297E+04  0.52867953213E+03  0.23350879202E+04  0.30765862220E+04  0.98338342035E+02 0.  0.
    5000000    2    1    2    0    0  0.19296566297E+04 -0.52867953213E+03 -0.19748305217E+03  0.20983394472E+04  0.60079291242E+03 0.  0.
         23    2    4    4    0    0  0.15550605845E+03 -0.14630551471E+02 -0.17079420463E+03  0.24868799960E+03  0.90988315523E+02 0.  0.
         23    2    4    4    0    0  0.17741505713E+04 -0.51404898066E+03 -0.26688847539E+02  0.18496514476E+04  0.92960094020E+02 0.  0.
          2    1    3    3  502    0 -0.77749561630E+03  0.26175491537E+03  0.93897303988E+03  0.12468702574E+04  0.00000000000E+00 0. -1.
         -2    1    3    3    0  502 -0.11521610134E+04  0.26692461675E+03  0.13961148804E+04  0.18297159646E+04  0.00000000000E+00 0.  1.
         13    1    5    5    0    0 -0.92181299751E+01  0.10646270046E+02 -0.12163166677E+02  0.18608052282E+02  0.00000000000E+00 0. -1.
        -13    1    5    5    0    0  0.16472418842E+03 -0.25276821518E+02 -0.15863103795E+03  0.23007994732E+03  0.00000000000E+00 0.  1.
          1    1    6    6  503    0  0.26155285499E+03 -0.75830183019E+02  0.29043648258E+02  0.27386793554E+03  0.00000000000E+00 0. -1.
         -1    1    6    6    0  503  0.15125977163E+04 -0.43821879764E+03 -0.55732495797E+02  0.15757835121E+04  0.00000000000E+00 0.  1.
<mgrwt>
<rscale>  0 0.20154537E+04</rscale>
<asrwt>0</asrwt>
<pdfrwt beam="1">  1        2 0.23364006E+00 0.20154537E+04</pdfrwt>
<pdfrwt beam="2">  1       -2 0.56250235E+00 0.20154537E+04</pdfrwt>
<totfact> 0.79671524E-03</totfact>
</mgrwt>
</event>
<event>
12    1  0.1335216E-007  0.8288432E+03  0.7818608E-02  0.9519181E-01
         -2   -1    0    0    0  501 -0.00000000000E+00  0.00000000000E+00  0.12323418748E+04  0.12323418748E+04  0.00000000000E+00 0. -1.
          2   -1    0    0  501    0  0.00000000000E+00 -0.00000000000E+00 -0.64217581896E+03  0.64217581896E+03  0.00000000000E+00 0.  1.
         23    2    1    2    0    0  0.72606507562E+03  0.28115381018E+03  0.37352090473E+03  0.86795629754E+03  0.87248548127E+02 0.  0.
    5000000    2    1    2    0    0 -0.72606507562E+03 -0.28115381018E+03  0.21664515106E+03  0.10065613962E+04  0.60001063638E+03 0.  0.
         23    2    4    4    0    0 -0.26912408591E+03 -0.30628624728E+03  0.32308210255E+03  0.52795311282E+03  0.90074444001E+02 0.  0.
         23    2    4    4    0    0 -0.45694098971E+03  0.25132437093E+02 -0.10643695148E+03  0.47860828335E+03  0.91161158292E+02 0.  0.
          4    1    3    3  502    0  0.39524304428E+03  0.12034332303E+03  0.16309004781E+03  0.44418233097E+03  0.00000000000E+00 0. -1.
         -4    1    3    3    0  502  0.33082203134E+03  0.16081048715E+03  0.21043085692E+03  0.42377396657E+03  0.00000000000E+00 0.  1.
         13    1    5    5    0    0 -0.73112477999E+02 -0.31039247190E+02  0.68315554872E+02  0.10476585485E+03  0.00000000000E+00 0.  1.
        -13    1    5    5    0    0 -0.19601160791E+03 -0.27524700009E+03  0.25476654768E+03  0.42318725797E+03  0.00000000000E+00 0. -1.
          1    1    6    6  503    0 -0.20415170341E+03  0.31041863049E+02 -0.89872780496E+02  0.22520797486E+03  0.00000000000E+00 0. -1.
         -1    1    6    6    0  503 -0.25278928630E+03 -0.59094259560E+01 -0.16564170987E+02  0.25340030849E+03  0.00000000000E+00 0.  1.
<mgrwt>
<rscale>  0 0.82884318E+03</rscale>
<asrwt>0</asrwt>
<pdfrwt beam="1">  1        2 0.98796280E-01 0.82884318E+03</pdfrwt>
<pdfrwt beam="2">  1       -2 0.18959106E+00 0.82884318E+03</pdfrwt>
<totfact> 0.71904386E+00</totfact>
</mgrwt>
</event>
<event>
12    1  0.1335216E-007  0.3761328E+03  0.7818608E-02  0.1052372E+00
          2   -1    0    0  501    0  0.00000000000E+00  0.00000000000E+00  0.22459270222E+04  0.22459270222E+04  0.00000000000E+00 0. -1.
         -2   -1    0    0    0  501 -0.00000000000E+00 -0.00000000000E+00 -0.10594646429E+03  0.10594646429E+03  0.00000000000E+00 0.  1.
         23    2    1    2    0    0 -0.23485790501E+03  0.15600113528E+03  0.48905977780E+03  0.57283005466E+03  0.97263639163E+02 0.  0.
    5000000    2    1    2    0    0  0.23485790501E+03 -0.15600113528E+03  0.16509207801E+04  0.17790434318E+04  0.59996793277E+03 0.  0.
         23    2    4    4    0    0 -0.36372747289E+02 -0.15032729408E+03  0.10609912825E+03  0.20803583945E+03  0.90003407645E+02 0.  0.
         23    2    4    4    0    0  0.27123065230E+03 -0.56738411962E+01  0.15448216518E+04  0.15710075923E+04  0.89401678012E+02 0.  0.
          3    1    3    3  502    0 -0.55212201619E+02  0.57110736267E+01  0.15662519667E+03  0.16616996059E+03  0.00000000000E+00 0. -1.
         -3    1    3    3    0  502 -0.17964570339E+03  0.15029006165E+03  0.33243458113E+03  0.40666009407E+03  0.00000000000E+00 0.  1.
         11    1    5    5    0    0  0.28163144789E+02 -0.37173353216E+02  0.42406185928E+02  0.63034161521E+02  0.00000000000E+00 0.  1.
        -11    1    5    5    0    0 -0.64535892078E+02 -0.11315394087E+03  0.63692942325E+02  0.14500167793E+03  0.00000000000E+00 0. -1.
          1    1    6    6  503    0  0.24077535791E+03  0.25418270986E+02  0.13060747361E+04  0.13283260435E+04  0.00000000000E+00 0. -1.
         -1    1    6    6    0  503  0.30455294394E+02 -0.31092112182E+02  0.23874691572E+03  0.24268154887E+03  0.00000000000E+00 0.  1.
<mgrwt>
<rscale>  0 0.37613277E+03</rscale>
<asrwt>0</asrwt>
<pdfrwt beam="1">  1        2 0.34552720E+00 0.37613277E+03</pdfrwt>
<pdfrwt beam="2">  1       -2 0.16299458E-01 0.37613277E+03</pdfrwt>
<totfact> 0.16073203E+02</totfact>
</mgrwt>
</event>
<event>
12    1  0.1491331E-007  0.8947439E+03  0.7818608E-02  0.9432176E-01
         -2   -1    0    0    0  501 -0.00000000000E+00  0.00000000000E+00  0.96709044612E+03  0.96709044612E+03  0.00000000000E+00 0.  1.
          2   -1    0    0  501    0  0.00000000000E+00 -0.00000000000E+00 -0.98652890466E+03  0.98652890466E+03  0.00000000000E+00 0. -1.
         23    2    1    2    0    0  0.39588081664E+03 -0.78788967297E+03 -0.32130881839E+02  0.88700862773E+03  0.90885391287E+02 0.  0.
    5000000    2    1    2    0    0 -0.39588081664E+03  0.78788967297E+03  0.12692423302E+02  0.10666107230E+04  0.60000464926E+03 0.  0.
         23    2    4    4    0    0 -0.43426113932E+02  0.29299301778E+03  0.25966232501E+03  0.40438242077E+03  0.91487066623E+02 0.  0.
         23    2    4    4    0    0 -0.35245470271E+03  0.49489665519E+03 -0.24696990171E+03  0.66222830227E+03  0.91679742550E+02 0.  0.
          1    1    3    3  502    0  0.24754938571E+03 -0.45764758715E+03 -0.60802399309E+02  0.52385011611E+03  0.00000000000E+00 0. -1.
         -1    1    3    3    0  502  0.14833143094E+03 -0.33024208582E+03  0.28671517471E+02  0.36315851163E+03  0.00000000000E+00 0.  1.
         13    1    5    5    0    0 -0.39346801370E+02  0.22896124415E+03  0.14756459127E+03  0.27522123955E+03  0.00000000000E+00 0. -1.
        -13    1    5    5    0    0 -0.40793125619E+01  0.64031773626E+02  0.11209773374E+03  0.12916118122E+03  0.00000000000E+00 0.  1.
          2    1    6    6  503    0 -0.22798529619E+03  0.36818015108E+03 -0.14115626280E+03  0.45547668376E+03  0.00000000000E+00 0. -1.
         -2    1    6    6    0  503 -0.12446940652E+03  0.12671650412E+03 -0.10581363891E+03  0.20675161851E+03  0.00000000000E+00 0.  1.
<mgrwt>
<rscale>  0 0.89474389E+03</rscale>
<asrwt>0</asrwt>
<pdfrwt beam="1">  1        2 0.15177368E+00 0.89474389E+03</pdfrwt>
<pdfrwt beam="2">  1       -2 0.14878315E+00 0.89474389E+03</pdfrwt>
<totfact> 0.78802723E+00</totfact>
</mgrwt>
</event>
<event>
12    1  0.1335216E-007  0.8190668E+03  0.7818608E-02  0.9532821E-01
         -2   -1    0    0    0  501 -0.00000000000E+00  0.00000000000E+00  0.24529933578E+03  0.24529933578E+03  0.00000000000E+00 0.  1.
          2   -1    0    0  501    0  0.00000000000E+00 -0.00000000000E+00 -0.30496683411E+04  0.30496683411E+04  0.00000000000E+00 0. -1.
         23    2    1    2    0    0 -0.64443660891E+03  0.34595920677E+03 -0.16123702698E+04  0.17731744349E+04  0.97074064228E+02 0.  0.
    5000000    2    1    2    0    0  0.64443660891E+03 -0.34595920677E+03 -0.11919987355E+04  0.15217932420E+04  0.60000614185E+03 0.  0.
         23    2    4    4    0    0  0.68686307287E+03 -0.39704906712E+03 -0.11494273714E+04  0.13993305492E+04  0.86682532324E+02 0.  0.
         23    2    4    4    0    0 -0.42426463966E+02  0.51089860349E+02 -0.42571364156E+02  0.12246269276E+03  0.93672895745E+02 0.  0.
          2    1    3    3  502    0 -0.12445583031E+03  0.11281192426E+03 -0.36359740106E+03  0.40052322531E+03  0.00000000000E+00 0. -1.
         -2    1    3    3    0  502 -0.51998077860E+03  0.23314728251E+03 -0.12487728687E+04  0.13726512096E+04  0.00000000000E+00 0.  1.
         11    1    5    5    0    0  0.54253048155E+03 -0.34962346632E+03 -0.95336391887E+03  0.11512943383E+04  0.00000000000E+00 0. -1.
        -11    1    5    5    0    0  0.14433259132E+03 -0.47425600798E+02 -0.19606345249E+03  0.24803621093E+03  0.00000000000E+00 0.  1.
          1    1    6    6  503    0 -0.11929143906E+02 -0.21291210753E+02  0.11627904405E+02  0.27033836030E+02  0.00000000000E+00 0. -1.
         -1    1    6    6    0  503 -0.30497320059E+02  0.72381071101E+02 -0.54199268561E+02  0.95428856731E+02  0.00000000000E+00 0.  1.
<mgrwt>
<rscale>  0 0.81906681E+03</rscale>
<asrwt>0</asrwt>
<pdfrwt beam="1">  1        2 0.46917975E+00 0.81906681E+03</pdfrwt>
<pdfrwt beam="2">  1       -2 0.37738359E-01 0.81906681E+03</pdfrwt>
<totfact> 0.11286796E+01</totfact>
</mgrwt>
</event>
<event>
12    1  0.1335216E-007  0.2515277E+04  0.7818608E-02  0.8397563E-01
         -1   -1    0    0    0  501 -0.00000000000E+00  0.00000000000E+00  0.20557210576E+04  0.20557210576E+04  0.00000000000E+00 0.  1.
          1   -1    0    0  501    0  0.00000000000E+00 -0.00000000000E+00 -0.36555547159E+04  0.36555547159E+04  0.00000000000E+00 0. -1.
         23    2    1    2    0    0  0.24363158273E+04  0.59615478517E+03 -0.18532337489E+04  0.31198945359E+04  0.90726230767E+02 0.  0.
    5000000    2    1    2    0    0 -0.24363158273E+04 -0.59615478517E+03  0.25340009069E+03  0.25913812376E+04  0.60000814515E+03 0.  0.
         23    2    4    4    0    0 -0.99742994692E+03 -0.35460443110E+03 -0.15440777239E+03  0.10737134009E+04  0.91694632122E+02 0.  0.
         23    2    4    4    0    0 -0.14388858804E+04 -0.24155035407E+03  0.40780786308E+03  0.15176678367E+04  0.90935465750E+02 0.  0.
          4    1    3    3  502    0  0.19561904489E+04  0.46052890020E+03 -0.14447631148E+04  0.24750976542E+04  0.00000000000E+00 0.  1.
         -4    1    3    3    0  502  0.48012537842E+03  0.13562588496E+03 -0.40847063415E+03  0.64479688169E+03  0.00000000000E+00 0. -1.
         13    1    5    5    0    0 -0.50452348321E+03 -0.22695116137E+03 -0.70915041845E+02  0.55774520878E+03  0.00000000000E+00 0.  1.
        -13    1    5    5    0    0 -0.49290646371E+03 -0.12765326973E+03 -0.83492730545E+02  0.51596819213E+03  0.00000000000E+00 0. -1.
          3    1    6    6  503    0 -0.86760756176E+03 -0.12546579034E+03  0.28617062018E+03  0.92215951420E+03  0.00000000000E+00 0. -1.
         -3    1    6    6    0  503 -0.57127831861E+03 -0.11608456373E+03  0.12163724289E+03  0.59550832245E+03  0.00000000000E+00 0.  1.
<mgrwt>
<rscale>  0 0.25152773E+04</rscale>
<asrwt>0</asrwt>
<pdfrwt beam="1">  1        1 0.56239303E+00 0.25152773E+04</pdfrwt>
<pdfrwt beam="2">  1       -1 0.31626478E+00 0.25152773E+04</pdfrwt>
<totfact> 0.40577030E-03</totfact>
</mgrwt>
</event>
<event>
12    1  0.1335216E-007  0.4034599E+03  0.7818608E-02  0.1042588E+00
         -2   -1    0    0    0  501 -0.00000000000E+00  0.00000000000E+00  0.24612747745E+03  0.24612747745E+03  0.00000000000E+00 0.  1.
          2   -1    0    0  501    0  0.00000000000E+00 -0.00000000000E+00 -0.88487599253E+03  0.88487599253E+03  0.00000000000E+00 0. -1.
         23    2    1    2    0    0 -0.16954694081E+03 -0.17199617484E+03 -0.63676710407E+02  0.26555591740E+03  0.90201843236E+02 0.  0.
    5000000    2    1    2    0    0  0.16954694081E+03  0.17199617484E+03 -0.57507180467E+03  0.86544755257E+03  0.59996919623E+03 0.  0.
         23    2    4    4    0    0 -0.24635806957E+01  0.31019610650E+03 -0.52751497371E+03  0.61973551480E+03  0.97838474533E+02 0.  0.
         23    2    4    4    0    0  0.17201052150E+03 -0.13819993166E+03 -0.47556830962E+02  0.24571203777E+03  0.97087139790E+02 0.  0.
          1    1    3    3  502    0 -0.16514555017E+03 -0.14023636704E+03 -0.78227942084E+02  0.23034518077E+03  0.00000000000E+00 0. -1.
         -1    1    3    3    0  502 -0.44013906395E+01 -0.31759807799E+02  0.14551231677E+02  0.35210736634E+02  0.00000000000E+00 0.  1.
         11    1    5    5    0    0  0.28743275246E+02  0.28106892721E+03 -0.46175674847E+03  0.54133650576E+03  0.00000000000E+00 0. -1.
        -11    1    5    5    0    0 -0.31206855942E+02  0.29127179289E+02 -0.65758225244E+02  0.78399009039E+02  0.00000000000E+00 0.  1.
          4    1    6    6  503    0  0.46133923981E+02 -0.12003137218E+00 -0.35985906750E+02  0.58509305534E+02  0.00000000000E+00 0. -1.
         -4    1    6    6    0  503  0.12587659752E+03 -0.13807990029E+03 -0.11570924212E+02  0.18720273223E+03  0.00000000000E+00 0.  1.
<mgrwt>
<rscale>  0 0.40345987E+03</rscale>
<asrwt>0</asrwt>
<pdfrwt beam="1">  1        2 0.13613477E+00 0.40345987E+03</pdfrwt>
<pdfrwt beam="2">  1       -2 0.37865766E-01 0.40345987E+03</pdfrwt>
<totfact> 0.20458926E+02</totfact>
</mgrwt>
</event>
<event>
12    1  0.1335216E-007  0.1526503E+04  0.7818608E-02  0.8867018E-01
          2   -1    0    0  501    0  0.00000000000E+00  0.00000000000E+00  0.13367932024E+04  0.13367932024E+04  0.00000000000E+00 0. -1.
         -2   -1    0    0    0  501 -0.00000000000E+00 -0.00000000000E+00 -0.23244977021E+04  0.23244977021E+04  0.00000000000E+00 0.  1.
         23    2    1    2    0    0 -0.48567321121E+03  0.14157244754E+04  0.37996436832E+03  0.15469037523E+04  0.91564399834E+02 0.  0.
    5000000    2    1    2    0    0  0.48567321121E+03 -0.14157244754E+04 -0.13676688681E+04  0.21143871522E+04  0.59996719759E+03 0.  0.
         23    2    4    4    0    0 -0.33669488821E+02 -0.45620315006E+03 -0.66859706303E+03  0.81544038769E+03  0.93091592503E+02 0.  0.
         23    2    4    4    0    0  0.51934270003E+03 -0.95952132538E+03 -0.69907180503E+03  0.12989467645E+04  0.90350951438E+02 0.  0.
          3    1    3    3  502    0 -0.43699709888E+03  0.11694422156E+04  0.32069652198E+03  0.12889560967E+04  0.00000000000E+00 0. -1.
         -3    1    3    3    0  502 -0.48676112326E+02  0.24628225982E+03  0.59267846345E+02  0.25794765559E+03  0.00000000000E+00 0.  1.
         11    1    5    5    0    0 -0.15444145980E+02 -0.40395200642E+03 -0.62778906868E+03  0.74668256970E+03  0.00000000000E+00 0. -1.
        -11    1    5    5    0    0 -0.18225342841E+02 -0.52251143637E+02 -0.40807994348E+02  0.68757817998E+02  0.00000000000E+00 0.  1.
          3    1    6    6  503    0  0.34629130566E+03 -0.55793786090E+03 -0.44441835881E+03  0.79291866080E+03  0.00000000000E+00 0. -1.
         -3    1    6    6    0  503  0.17305139437E+03 -0.40158346449E+03 -0.25465344622E+03  0.50602810368E+03  0.00000000000E+00 0.  1.
<mgrwt>
<rscale>  0 0.15265029E+04</rscale>
<asrwt>0</asrwt>
<pdfrwt beam="1">  1        2 0.20566049E+00 0.15265029E+04</pdfrwt>
<pdfrwt beam="2">  1       -2 0.35761503E+00 0.15265029E+04</pdfrwt>
<totfact> 0.20626458E-01</totfact>
</mgrwt>
</event>
<event>
12    1  0.1335216E-007  0.4574561E+03  0.7818608E-02  0.1025522E+00
         -2   -1    0    0    0  501 -0.00000000000E+00  0.00000000000E+00  0.11558857005E+03  0.11558857005E+03  0.00000000000E+00 0.  1.
          2   -1    0    0  501    0  0.00000000000E+00 -0.00000000000E+00 -0.22711823327E+04  0.22711823327E+04  0.00000000000E+00 0. -1.
         23    2    1    2    0    0 -0.22765923681E+03  0.15323798291E+03 -0.11360305762E+04  0.11723600186E+04  0.92476676152E+02 0.  0.
    5000000    2    1    2    0    0  0.22765923681E+03 -0.15323798291E+03 -0.10195631864E+04  0.12144108841E+04  0.59997841366E+03 0.  0.
         23    2    4    4    0    0 -0.83688435893E+02 -0.28154284200E+03 -0.41664642417E+03  0.51772136397E+03  0.90393814784E+02 0.  0.
         23    2    4    4    0    0  0.31134767270E+03  0.12830485909E+03 -0.60291676228E+03  0.69668952018E+03  0.92022579462E+02 0.  0.
          1    1    3    3  502    0 -0.13346069590E+03  0.11747132813E+03 -0.86785415852E+03  0.88587928678E+03  0.00000000000E+00 0. -1.
         -1    1    3    3    0  502 -0.94198540904E+02  0.35766654776E+02 -0.26817641766E+03  0.28648073180E+03  0.00000000000E+00 0.  1.
         13    1    5    5    0    0 -0.95911223086E+00 -0.95092828237E+02 -0.80827321514E+02  0.12480633710E+03  0.00000000000E+00 0. -1.
        -13    1    5    5    0    0 -0.82729323662E+02 -0.18645001376E+03 -0.33581910266E+03  0.39291502686E+03  0.00000000000E+00 0.  1.
          1    1    6    6  503    0  0.29258115085E+03  0.11546730486E+03 -0.49558682866E+03  0.58697762570E+03  0.00000000000E+00 0. -1.
         -1    1    6    6    0  503  0.18766521847E+02  0.12837554229E+02 -0.10732993362E+03  0.10971189448E+03  0.00000000000E+00 0.  1.
<mgrwt>
<rscale>  0 0.45745608E+03</rscale>
<asrwt>0</asrwt>
<pdfrwt beam="1">  1        2 0.34941266E+00 0.45745608E+03</pdfrwt>
<pdfrwt beam="2">  1       -2 0.17782857E-01 0.45745608E+03</pdfrwt>
<totfact> 0.13229385E+02</totfact>
</mgrwt>
</event>
<event>
12    1  0.1335216E-007  0.5497433E+03  0.7818608E-02  0.1001553E+00
          2   -1    0    0  501    0  0.00000000000E+00  0.00000000000E+00  0.90856567566E+03  0.90856567566E+03  0.00000000000E+00 0. -1.
         -2   -1    0    0    0  501 -0.00000000000E+00 -0.00000000000E+00 -0.47016946781E+03  0.47016946781E+03  0.00000000000E+00 0.  1.
         23    2    1    2    0    0  0.42614906059E+03  0.15853112732E+03  0.41985448200E+03  0.62567845528E+03  0.91981537131E+02 0.  0.
    5000000    2    1    2    0    0 -0.42614906059E+03 -0.15853112732E+03  0.18541725847E+02  0.75305668820E+03  0.60001286642E+03 0.  0.
         23    2    4    4    0    0  0.56167928298E+02 -0.13998360272E+03 -0.14981221540E+03  0.23369782779E+03  0.97060443171E+02 0.  0.
         23    2    4    4    0    0 -0.48231698889E+03 -0.18547524594E+02  0.16835394125E+03  0.51935886041E+03  0.91743598753E+02 0.  0.
          2    1    3    3  502    0  0.13227031701E+03  0.82220501545E+01  0.14177595432E+03  0.19407076054E+03  0.00000000000E+00 0. -1.
         -2    1    3    3    0  502  0.29387874358E+03  0.15030907716E+03  0.27807852768E+03  0.43160769474E+03  0.00000000000E+00 0.  1.
         11    1    5    5    0    0  0.19013741060E+02 -0.75632927540E+02 -0.14496265663E+02  0.79322151985E+02  0.00000000000E+00 0.  1.
        -11    1    5    5    0    0  0.37154187238E+02 -0.64350675184E+02 -0.13531594974E+03  0.15437567580E+03  0.00000000000E+00 0. -1.
          2    1    6    6  503    0 -0.67409378342E+02 -0.17613392719E+02  0.56324066087E+02  0.89591608491E+02  0.00000000000E+00 0.  1.
         -2    1    6    6    0  503 -0.41490761055E+03 -0.93413187429E+00  0.11202987516E+03  0.42976725192E+03  0.00000000000E+00 0. -1.
<mgrwt>
<rscale>  0 0.54974332E+03</rscale>
<asrwt>0</asrwt>
<pdfrwt beam="1">  1        2 0.13977933E+00 0.54974332E+03</pdfrwt>
<pdfrwt beam="2">  1       -2 0.72333764E-01 0.54974332E+03</pdfrwt>
<totfact> 0.51770021E+01</totfact>
</mgrwt>
</event>
<event>
12    1  0.1335216E-007  0.4138993E+03  0.7818608E-02  0.1039070E+00
         -1   -1    0    0    0  501 -0.00000000000E+00  0.00000000000E+00  0.26686025760E+03  0.26686025760E+03  0.00000000000E+00 0.  1.
          1   -1    0    0  501    0  0.00000000000E+00 -0.00000000000E+00 -0.12357789721E+04  0.12357789721E+04  0.00000000000E+00 0. -1.
         23    2    1    2    0    0 -0.18821487011E+03 -0.36172100795E+03 -0.27354074111E+03  0.49778260356E+03  0.81829447278E+02 0.  0.
    5000000    2    1    2    0    0  0.18821487011E+03  0.36172100795E+03 -0.69537797342E+03  0.10048566262E+04  0.59993281984E+03 0.  0.
         23    2    4    4    0    0  0.28644918671E+02  0.87381391641E+02  0.87081224705E+02  0.15602191132E+03  0.91124410254E+02 0.  0.
         23    2    4    4    0    0  0.15956995144E+03  0.27433961631E+03 -0.78245919813E+03  0.84883471486E+03  0.86909044031E+02 0.  0.
          3    1    3    3  502    0 -0.61824377717E+02 -0.19204632214E+03 -0.10599131728E+03  0.22789954556E+03  0.00000000000E+00 0. -1.
         -3    1    3    3    0  502 -0.12639049240E+03 -0.16967468581E+03 -0.16754942383E+03  0.26988305800E+03  0.00000000000E+00 0.  1.
         13    1    5    5    0    0  0.25217260628E+02  0.30889250875E+02  0.90936186864E+02  0.99294743741E+02  0.00000000000E+00 0.  1.
        -13    1    5    5    0    0  0.34276580434E+01  0.56492140766E+02 -0.38549621592E+01  0.56727167576E+02  0.00000000000E+00 0. -1.
          3    1    6    6  503    0  0.88373988221E+02  0.13207506891E+03 -0.28193802593E+03  0.32363997913E+03  0.00000000000E+00 0. -1.
         -3    1    6    6    0  503  0.71195963222E+02  0.14226454739E+03 -0.50052117219E+03  0.52519473573E+03  0.00000000000E+00 0.  1.
<mgrwt>
<rscale>  0 0.41389932E+03</rscale>
<asrwt>0</asrwt>
<pdfrwt beam="1">  1        1 0.19011984E+00 0.41389932E+03</pdfrwt>
<pdfrwt beam="2">  1       -1 0.41055426E-01 0.41389932E+03</pdfrwt>
<totfact> 0.62569180E+01</totfact>
</mgrwt>
</event>
<event>
12    1  0.1335216E-007  0.1118789E+04  0.7818608E-02  0.9187070E-01
         -2   -1    0    0    0  501 -0.00000000000E+00  0.00000000000E+00  0.64180364859E+03  0.64180364859E+03  0.00000000000E+00 0. -1.
          2   -1    0    0  501    0  0.00000000000E+00 -0.00000000000E+00 -0.21580589722E+04  0.21580589722E+04  0.00000000000E+00 0.  1.
         23    2    1    2    0    0  0.63073547441E+03 -0.89684765071E+03 -0.63225273861E+03  0.12689916644E+04  0.91833390835E+02 0.  0.
    5000000    2    1    2    0    0 -0.63073547441E+03  0.89684765071E+03 -0.88400258501E+03  0.15308709564E+04  0.59995197097E+03 0.  0.
         23    2    4    4    0    0 -0.44984967506E+02  0.22350454770E+03 -0.49645337557E+03  0.55386693122E+03  0.91239756913E+02 0.  0.
         23    2    4    4    0    0 -0.58575050690E+03  0.67334310301E+03 -0.38754920944E+03  0.97700402515E+03  0.88588287599E+02 0.  0.
          1    1    3    3  502    0  0.36403184292E+03 -0.43785436665E+03 -0.32667231162E+03  0.65646814716E+03  0.00000000000E+00 0. -1.
         -1    1    3    3    0  502  0.26670363149E+03 -0.45899328406E+03 -0.30558042699E+03  0.61252351728E+03  0.00000000000E+00 0.  1.
         13    1    5    5    0    0 -0.36516497257E+02  0.31350088633E+02 -0.15090903667E+03  0.15839766406E+03  0.00000000000E+00 0. -1.
        -13    1    5    5    0    0 -0.84684702493E+01  0.19215445907E+03 -0.34554433890E+03  0.39546926717E+03  0.00000000000E+00 0.  1.
          3    1    6    6  503    0 -0.56498598876E+03  0.61604630666E+03 -0.35993494564E+03  0.91009636003E+03  0.00000000000E+00 0. -1.
         -3    1    6    6    0  503 -0.20764518141E+02  0.57296796353E+02 -0.27614263798E+02  0.66907665114E+02  0.00000000000E+00 0.  1.
<mgrwt>
<rscale>  0 0.11187894E+04</rscale>
<asrwt>0</asrwt>
<pdfrwt beam="1">  1        2 0.33200908E+00 0.11187894E+04</pdfrwt>
<pdfrwt beam="2">  1       -2 0.98739022E-01 0.11187894E+04</pdfrwt>
<totfact> 0.45886337E+00</totfact>
</mgrwt>
</event>
<event>
12    1  0.1335216E-007  0.1031602E+04  0.7818608E-02  0.9274548E-01
         -1   -1    0    0    0  501 -0.00000000000E+00  0.00000000000E+00  0.82888646876E+03  0.82888646876E+03  0.00000000000E+00 0.  1.
          1   -1    0    0  501    0  0.00000000000E+00 -0.00000000000E+00 -0.14305651074E+04  0.14305651074E+04  0.00000000000E+00 0. -1.
         23    2    1    2    0    0  0.97104389203E+03  0.20778781881E+03 -0.43176335182E+03  0.10867896420E+04  0.92682878920E+02 0.  0.
    5000000    2    1    2    0    0 -0.97104389203E+03 -0.20778781881E+03 -0.16991528679E+03  0.11726619341E+04  0.60013564235E+03 0.  0.
         23    2    4    4    0    0 -0.63966809217E+03  0.49795580623E+02  0.11332264616E+03  0.65794116559E+03  0.91595235989E+02 0.  0.
         23    2    4    4    0    0 -0.33137579986E+03 -0.25758339944E+03 -0.28323793296E+03  0.51472076856E+03  0.92491159161E+02 0.  0.
          3    1    3    3  502    0  0.72300479891E+03  0.17523081847E+03 -0.28439403677E+03  0.79644318513E+03  0.00000000000E+00 0. -1.
         -3    1    3    3    0  502  0.24803909312E+03  0.32557000340E+02 -0.14736931505E+03  0.29034645685E+03  0.00000000000E+00 0.  1.
         13    1    5    5    0    0 -0.24051202451E+03 -0.52852776335E+01  0.46902987588E+01  0.24061580786E+03  0.00000000000E+00 0. -1.
        -13    1    5    5    0    0 -0.39915606766E+03  0.55080858256E+02  0.10863234740E+03  0.41732535772E+03  0.00000000000E+00 0.  1.
          2    1    6    6  503    0 -0.21292334697E+03 -0.12139741758E+03 -0.12725263590E+03  0.27616465745E+03  0.00000000000E+00 0. -1.
         -2    1    6    6    0  503 -0.11845245289E+03 -0.13618598186E+03 -0.15598529706E+03  0.23855611111E+03  0.00000000000E+00 0.  1.
<mgrwt>
<rscale>  0 0.10316020E+04</rscale>
<asrwt>0</asrwt>
<pdfrwt beam="1">  1        1 0.22008694E+00 0.10316020E+04</pdfrwt>
<pdfrwt beam="2">  1       -1 0.12752100E+00 0.10316020E+04</pdfrwt>
<totfact> 0.38965113E+00</totfact>
</mgrwt>
</event>
<event>
12    1  0.1434391E-007  0.1149691E+04  0.7818608E-02  0.9158069E-01
         -2   -1    0    0    0  501 -0.00000000000E+00  0.00000000000E+00  0.13243221381E+04  0.13243221381E+04  0.00000000000E+00 0. -1.
          2   -1    0    0  501    0  0.00000000000E+00 -0.00000000000E+00 -0.17980698526E+04  0.17980698526E+04  0.00000000000E+00 0.  1.
         23    2    1    2    0    0  0.68947522933E+02 -0.11341988776E+04  0.73652646067E+03  0.13571710914E+04  0.91001588093E+02 0.  0.
    5000000    2    1    2    0    0 -0.68947522933E+02  0.11341988776E+04 -0.12102741751E+04  0.17652208993E+04  0.60006698751E+03 0.  0.
         23    2    4    4    0    0  0.72392142264E+02  0.62183343314E+03 -0.28286351955E+03  0.69274334417E+03  0.89241970838E+02 0.  0.
         23    2    4    4    0    0 -0.14133966520E+03  0.51236544449E+03 -0.92741065559E+03  0.10724775552E+04  0.87305970979E+02 0.  0.
          4    1    3    3  502    0 -0.17413083966E+02 -0.37729555541E+03  0.26154735268E+03  0.45941502949E+03  0.00000000000E+00 0. -1.
         -4    1    3    3    0  502  0.86360606899E+02 -0.75690332222E+03  0.47497910799E+03  0.89775606188E+03  0.00000000000E+00 0.  1.
         11    1    5    5    0    0  0.35498676326E+02  0.28156576604E+03 -0.79903381392E+02  0.29482874179E+03  0.00000000000E+00 0.  1.
        -11    1    5    5    0    0  0.36893465938E+02  0.34026766710E+03 -0.20296013816E+03  0.39791460238E+03  0.00000000000E+00 0. -1.
          3    1    6    6  503    0 -0.42339994502E+02  0.24659444337E+03 -0.36382146153E+03  0.44155129997E+03  0.00000000000E+00 0. -1.
         -3    1    6    6    0  503 -0.98999670695E+02  0.26577100112E+03 -0.56358919407E+03  0.63092625520E+03  0.00000000000E+00 0.  1.
<mgrwt>
<rscale>  0 0.11496909E+04</rscale>
<asrwt>0</asrwt>
<pdfrwt beam="1">  1        2 0.27662613E+00 0.11496909E+04</pdfrwt>
<pdfrwt beam="2">  1       -2 0.20374187E+00 0.11496909E+04</pdfrwt>
<totfact> 0.10618308E+00</totfact>
</mgrwt>
</event>
<event>
12    1  0.1335216E-007  0.9191379E+03  0.7818608E-02  0.9401969E-01
          1   -1    0    0  501    0  0.00000000000E+00  0.00000000000E+00  0.10782903208E+04  0.10782903208E+04  0.00000000000E+00 0. -1.
         -1   -1    0    0    0  501 -0.00000000000E+00 -0.00000000000E+00 -0.93171548175E+03  0.93171548175E+03  0.00000000000E+00 0.  1.
         23    2    1    2    0    0 -0.35792100131E+02 -0.83609225923E+03 -0.29170101691E+03  0.89090685940E+03  0.91072545182E+02 0.  0.
    5000000    2    1    2    0    0  0.35792100131E+02  0.83609225923E+03  0.43827585596E+03  0.11190989432E+04  0.59997114788E+03 0.  0.
         23    2    4    4    0    0  0.27499830042E+03  0.38255985191E+03  0.34189942292E+03  0.58882253780E+03  0.88547501952E+02 0.  0.
         23    2    4    4    0    0 -0.23920620029E+03  0.45353240732E+03  0.96376433048E+02  0.53027640536E+03  0.94833530388E+02 0.  0.
          2    1    3    3  502    0  0.22942491873E+02 -0.39306732985E+03 -0.11330815726E+03  0.40971578226E+03  0.00000000000E+00 0. -1.
         -2    1    3    3    0  502 -0.58734592004E+02 -0.44302492938E+03 -0.17839285964E+03  0.48119107715E+03  0.00000000000E+00 0.  1.
         11    1    5    5    0    0  0.17569425486E+03  0.31020331583E+03  0.25191434472E+03  0.43652652316E+03  0.00000000000E+00 0. -1.
        -11    1    5    5    0    0  0.99304045559E+02  0.72356536076E+02  0.89985078201E+02  0.15229601464E+03  0.00000000000E+00 0.  1.
          1    1    6    6  503    0 -0.13252564262E+03  0.17154365141E+03  0.11563631895E+02  0.21708060225E+03  0.00000000000E+00 0. -1.
         -1    1    6    6    0  503 -0.10668055767E+03  0.28198875592E+03  0.84812801153E+02  0.31319580311E+03  0.00000000000E+00 0.  1.
<mgrwt>
<rscale>  0 0.91913791E+03</rscale>
<asrwt>0</asrwt>
<pdfrwt beam="1">  1        1 0.16589082E+00 0.91913791E+03</pdfrwt>
<pdfrwt beam="2">  1       -1 0.14334084E+00 0.91913791E+03</pdfrwt>
<totfact> 0.52522738E+00</totfact>
</mgrwt>
</event>
<event>
12    1  0.1335216E-007  0.9630164E+03  0.7818608E-02  0.9350064E-01
          1   -1    0    0  501    0  0.00000000000E+00  0.00000000000E+00  0.17634597893E+04  0.17634597893E+04  0.00000000000E+00 0. -1.
         -1   -1    0    0    0  501 -0.00000000000E+00 -0.00000000000E+00 -0.68352064685E+03  0.68352064685E+03  0.00000000000E+00 0.  1.
         23    2    1    2    0    0  0.92090184923E+03  0.80578074975E+02  0.96431657390E+03  0.13389594969E+04  0.91394953065E+02 0.  0.
    5000000    2    1    2    0    0 -0.92090184923E+03 -0.80578074975E+02  0.11562256854E+03  0.11080209393E+04  0.59982395870E+03 0.  0.
         23    2    4    4    0    0  0.30103463626E+02 -0.15374169779E+02  0.11676246774E+03  0.15100317748E+03  0.89587399325E+02 0.  0.
         23    2    4    4    0    0 -0.95100531286E+03 -0.65203905196E+02 -0.11398992029E+01  0.95701776180E+03  0.84964949765E+02 0.  0.
          4    1    3    3  502    0  0.41629409400E+03  0.36843264911E+02  0.37083933777E+03  0.55873071628E+03  0.00000000000E+00 0. -1.
         -4    1    3    3    0  502  0.50460775523E+03  0.43734810065E+02  0.59347723613E+03  0.78022878058E+03  0.00000000000E+00 0.  1.
         11    1    5    5    0    0  0.22224239630E+02  0.54584402995E+01  0.12513371477E+03  0.12720911119E+03  0.00000000000E+00 0.  1.
        -11    1    5    5    0    0  0.78792239955E+01 -0.20832610079E+02 -0.83712470353E+01  0.23794066285E+02  0.00000000000E+00 0. -1.
          4    1    6    6  503    0 -0.18134603142E+03 -0.43494501443E+02  0.12781630556E+02  0.18692652259E+03  0.00000000000E+00 0. -1.
         -4    1    6    6    0  503 -0.76965928143E+03 -0.21709403754E+02 -0.13921529759E+02  0.77009123920E+03  0.00000000000E+00 0.  1.
<mgrwt>
<rscale>  0 0.96301638E+03</rscale>
<asrwt>0</asrwt>
<pdfrwt beam="1">  1        1 0.27130150E+00 0.96301638E+03</pdfrwt>
<pdfrwt beam="2">  1       -1 0.10515702E+00 0.96301638E+03</pdfrwt>
<totfact> 0.37084667E+00</totfact>
</mgrwt>
</event>
<event>
12    1  0.1335216E-007  0.3603467E+03  0.7818608E-02  0.1058447E+00
          2   -1    0    0  501    0  0.00000000000E+00  0.00000000000E+00  0.20558224169E+04  0.20558224169E+04  0.00000000000E+00 0. -1.
         -2   -1    0    0    0  501 -0.00000000000E+00 -0.00000000000E+00 -0.13587985425E+03  0.13587985425E+03  0.00000000000E+00 0.  1.
         23    2    1    2    0    0 -0.26214147198E+03 -0.16558629777E+03  0.32531756472E+03  0.45995102427E+03  0.97910435976E+02 0.  0.
    5000000    2    1    2    0    0  0.26214147198E+03  0.16558629777E+03  0.15946249980E+04  0.17317512469E+04  0.59999710309E+03 0.  0.
         23    2    4    4    0    0  0.25436377214E+03  0.16714235096E+03  0.30973576632E+03  0.44390137268E+03  0.92058077677E+02 0.  0.
         23    2    4    4    0    0  0.77776998381E+01 -0.15560531943E+01  0.12848892317E+04  0.12878498742E+04  0.86914021032E+02 0.  0.
          2    1    3    3  502    0 -0.19974196485E+03 -0.74479993721E+02  0.19254662585E+03  0.28726003048E+03  0.00000000000E+00 0.  1.
         -2    1    3    3    0  502 -0.62399507128E+02 -0.91106304047E+02  0.13277093887E+03  0.17269099379E+03  0.00000000000E+00 0. -1.
         11    1    5    5    0    0  0.11460986407E+03  0.40993168581E+02  0.74914810273E+02  0.14292686805E+03  0.00000000000E+00 0.  1.
        -11    1    5    5    0    0  0.13975390807E+03  0.12614918238E+03  0.23482095605E+03  0.30097450463E+03  0.00000000000E+00 0. -1.
          1    1    6    6  503    0  0.44351747037E+02  0.15184469971E+02  0.73174194668E+03  0.73324206244E+03  0.00000000000E+00 0. -1.
         -1    1    6    6    0  503 -0.36574047199E+02 -0.16740523165E+02  0.55314728497E+03  0.55460781181E+03  0.00000000000E+00 0.  1.
<mgrwt>
<rscale>  0 0.36034673E+03</rscale>
<asrwt>0</asrwt>
<pdfrwt beam="1">  1        2 0.31628035E+00 0.36034673E+03</pdfrwt>
<pdfrwt beam="2">  1       -2 0.20904594E-01 0.36034673E+03</pdfrwt>
<totfact> 0.13325048E+02</totfact>
</mgrwt>
</event>
<event>
12    1  0.1335216E-007  0.6045955E+03  0.7818608E-02  0.9895918E-01
          2   -1    0    0  501    0  0.00000000000E+00  0.00000000000E+00  0.19044692202E+04  0.19044692202E+04  0.00000000000E+00 0. -1.
         -2   -1    0    0    0  501 -0.00000000000E+00 -0.00000000000E+00 -0.27914379106E+03  0.27914379106E+03  0.00000000000E+00 0.  1.
         23    2    1    2    0    0  0.55740765014E+03  0.66590991267E+02  0.10028955613E+04  0.11528411714E+04  0.90031166998E+02 0.  0.
    5000000    2    1    2    0    0 -0.55740765014E+03 -0.66590991267E+02  0.62242986790E+03  0.10307718399E+04  0.59994499498E+03 0.  0.
         23    2    4    4    0    0 -0.22719896796E+03  0.12097684239E+03 -0.25745803697E+02  0.27431019433E+03  0.91260445239E+02 0.  0.
         23    2    4    4    0    0 -0.33020868217E+03 -0.18756783366E+03  0.64817567160E+03  0.75646164561E+03  0.88786564400E+02 0.  0.
          4    1    3    3  502    0  0.19750481298E+03  0.27884649952E+01  0.43117130281E+03  0.47426218388E+03  0.00000000000E+00 0. -1.
         -4    1    3    3    0  502  0.35990283715E+03  0.63802526272E+02  0.57172425847E+03  0.67857898749E+03  0.00000000000E+00 0.  1.
         13    1    5    5    0    0 -0.14796656352E+03  0.56931113365E+02 -0.55824704144E+02  0.16808228099E+03  0.00000000000E+00 0. -1.
        -13    1    5    5    0    0 -0.79232404439E+02  0.64045729029E+02  0.30078900447E+02  0.10622791334E+03  0.00000000000E+00 0.  1.
          4    1    6    6  503    0 -0.13539847960E+03 -0.11565919784E+03  0.35544487661E+03  0.39755610753E+03  0.00000000000E+00 0. -1.
         -4    1    6    6    0  503 -0.19481020257E+03 -0.71908635821E+02  0.29273079498E+03  0.35890553808E+03  0.00000000000E+00 0.  1.
<mgrwt>
<rscale>  0 0.60459547E+03</rscale>
<asrwt>0</asrwt>
<pdfrwt beam="1">  1        2 0.29299526E+00 0.60459547E+03</pdfrwt>
<pdfrwt beam="2">  1       -2 0.42945200E-01 0.60459547E+03</pdfrwt>
<totfact> 0.40748357E+01</totfact>
</mgrwt>
</event>
<event>
12    1  0.1335216E-007  0.6301101E+03  0.7818608E-02  0.9844834E-01
          2   -1    0    0  501    0  0.00000000000E+00  0.00000000000E+00  0.17530677788E+04  0.17530677788E+04  0.00000000000E+00 0.  1.
         -2   -1    0    0    0  501 -0.00000000000E+00 -0.00000000000E+00 -0.36585313573E+03  0.36585313573E+03  0.00000000000E+00 0. -1.
         23    2    1    2    0    0 -0.23682975211E+03  0.55768688129E+03  0.10219845077E+04  0.11912554005E+04  0.86799229490E+02 0.  0.
    5000000    2    1    2    0    0  0.23682975211E+03 -0.55768688129E+03  0.36523013534E+03  0.92766551399E+03  0.60005605158E+03 0.  0.
         23    2    4    4    0    0  0.58223550890E+02 -0.35381656733E+03  0.49207903896E+03  0.61520839808E+03  0.88110426657E+02 0.  0.
         23    2    4    4    0    0  0.17860620122E+03 -0.20387031396E+03 -0.12684890362E+03  0.31245711591E+03  0.89863924384E+02 0.  0.
          1    1    3    3  502    0 -0.14035725041E+03  0.29873939875E+03  0.47484348245E+03  0.57829207061E+03  0.00000000000E+00 0. -1.
         -1    1    3    3    0  502 -0.96472501706E+02  0.25894748254E+03  0.54714102528E+03  0.61296332994E+03  0.00000000000E+00 0.  1.
         13    1    5    5    0    0 -0.21802818949E+02 -0.11870999364E+03  0.17035468666E+03  0.20877774012E+03  0.00000000000E+00 0.  1.
        -13    1    5    5    0    0  0.80026369839E+02 -0.23510657369E+03  0.32172435230E+03  0.40643065795E+03  0.00000000000E+00 0. -1.
          1    1    6    6  503    0  0.50249042378E+02 -0.84368038196E+01 -0.31792568839E+02  0.60057583635E+02  0.00000000000E+00 0. -1.
         -1    1    6    6    0  503  0.12835715884E+03 -0.19543351014E+03 -0.95056334780E+02  0.25239953228E+03  0.00000000000E+00 0.  1.
<mgrwt>
<rscale>  0 0.63011010E+03</rscale>
<asrwt>0</asrwt>
<pdfrwt beam="1">  1        2 0.26970273E+00 0.63011010E+03</pdfrwt>
<pdfrwt beam="2">  1       -2 0.56285099E-01 0.63011010E+03</pdfrwt>
<totfact> 0.28363310E+01</totfact>
</mgrwt>
</event>
<event>
12    1  0.1335216E-007  0.1141673E+04  0.7818608E-02  0.9165500E-01
          2   -1    0    0  501    0  0.00000000000E+00  0.00000000000E+00  0.25000639458E+04  0.25000639458E+04  0.00000000000E+00 0. -1.
         -2   -1    0    0    0  501 -0.00000000000E+00 -0.00000000000E+00 -0.55326527182E+03  0.55326527182E+03  0.00000000000E+00 0.  1.
         23    2    1    2    0    0 -0.94570982271E+03  0.54190731714E+03  0.10788219109E+04  0.15362980551E+04  0.91238092463E+02 0.  0.
    5000000    2    1    2    0    0  0.94570982271E+03 -0.54190731714E+03  0.86797676301E+03  0.15170311625E+04  0.59997439746E+03 0.  0.
         23    2    4    4    0    0  0.58559099088E+03 -0.68207824593E+02  0.22913237558E+03  0.63915500564E+03  0.91914959416E+02 0.  0.
         23    2    4    4    0    0  0.36011883183E+03 -0.47369949255E+03  0.63884438744E+03  0.87787615682E+03  0.92019634173E+02 0.  0.
          2    1    3    3  502    0 -0.66946467410E+03  0.35568593385E+03  0.70025622504E+03  0.10320146385E+04  0.00000000000E+00 0. -1.
         -2    1    3    3    0  502 -0.27624514861E+03  0.18622138330E+03  0.37856568589E+03  0.50428341661E+03  0.00000000000E+00 0.  1.
         13    1    5    5    0    0  0.33501838603E+03 -0.27653283084E+02  0.17743002653E+03  0.38010977014E+03  0.00000000000E+00 0.  1.
        -13    1    5    5    0    0  0.25057260485E+03 -0.40554541509E+02  0.51702349050E+02  0.25904523550E+03  0.00000000000E+00 0. -1.
          4    1    6    6  503    0  0.25104030464E+03 -0.39337783181E+03  0.49496308184E+03  0.68026157138E+03  0.00000000000E+00 0.  1.
         -4    1    6    6    0  503  0.10907852719E+03 -0.80321660736E+02  0.14388130560E+03  0.19761458544E+03  0.00000000000E+00 0. -1.
<mgrwt>
<rscale>  0 0.11416727E+04</rscale>
<asrwt>0</asrwt>
<pdfrwt beam="1">  1        2 0.38462522E+00 0.11416727E+04</pdfrwt>
<pdfrwt beam="2">  1       -2 0.85117735E-01 0.11416727E+04</pdfrwt>
<totfact> 0.41478594E+00</totfact>
</mgrwt>
</event>
<event>
12    1  0.1335216E-007  0.5548458E+03  0.7818608E-02  0.1000378E+00
          2   -1    0    0  501    0  0.00000000000E+00  0.00000000000E+00  0.53223320379E+03  0.53223320379E+03  0.00000000000E+00 0. -1.
         -2   -1    0    0    0  501 -0.00000000000E+00 -0.00000000000E+00 -0.80747049355E+03  0.80747049355E+03  0.00000000000E+00 0.  1.
         23    2    1    2    0    0 -0.21416657218E+03  0.46272770392E+03 -0.16976121629E+03  0.54523660337E+03  0.92086016712E+02 0.  0.
    5000000    2    1    2    0    0  0.21416657218E+03 -0.46272770392E+03 -0.10547607347E+03  0.79446709398E+03  0.60005709121E+03 0.  0.
         23    2    4    4    0    0  0.68690399872E+02 -0.40881409955E+03 -0.30741309487E+03  0.52371106937E+03  0.89011989398E+02 0.  0.
         23    2    4    4    0    0  0.14547617231E+03 -0.53913604369E+02  0.20193702140E+03  0.27075602460E+03  0.91979730374E+02 0.  0.
          3    1    3    3  502    0 -0.18590618202E+03  0.40569391189E+03 -0.17918614963E+03  0.48089118819E+03  0.00000000000E+00 0. -1.
         -3    1    3    3    0  502 -0.28260390168E+02  0.57033792034E+02  0.94249333382E+01  0.64345415180E+02  0.00000000000E+00 0.  1.
         11    1    5    5    0    0  0.78629850585E+02 -0.25322883181E+03 -0.22275983334E+03  0.34630829909E+03  0.00000000000E+00 0. -1.
        -11    1    5    5    0    0 -0.99394507136E+01 -0.15558526774E+03 -0.84653261532E+02  0.17740277029E+03  0.00000000000E+00 0.  1.
          3    1    6    6  503    0  0.73794970584E+02 -0.73766555056E+02  0.13555113865E+03  0.17105938594E+03  0.00000000000E+00 0. -1.
         -3    1    6    6    0  503  0.71681201729E+02  0.19852950687E+02  0.66385882748E+02  0.99696638662E+02  0.00000000000E+00 0.  1.
<mgrwt>
<rscale>  0 0.55484581E+03</rscale>
<asrwt>0</asrwt>
<pdfrwt beam="1">  1        2 0.81882032E-01 0.55484581E+03</pdfrwt>
<pdfrwt beam="2">  1       -2 0.12422623E+00 0.55484581E+03</pdfrwt>
<totfact> 0.28736391E+01</totfact>
</mgrwt>
</event>
<event>
12    1  0.1335216E-007  0.1059320E+04  0.7818608E-02  0.9245774E-01
         -3   -1    0    0    0  501 -0.00000000000E+00  0.00000000000E+00  0.20444516334E+04  0.20444516334E+04  0.00000000000E+00 0.  1.
          3   -1    0    0  501    0  0.00000000000E+00 -0.00000000000E+00 -0.59511996142E+03  0.59511996142E+03  0.00000000000E+00 0. -1.
         23    2    1    2    0    0  0.51371429544E+03  0.87963819956E+03  0.70983540041E+03  0.12450696207E+04  0.93093099564E+02 0.  0.
    5000000    2    1    2    0    0 -0.51371429544E+03 -0.87963819956E+03  0.73949627160E+03  0.13945019742E+04  0.60009605967E+03 0.  0.
         23    2    4    4    0    0  0.60708449768E+02 -0.61826773600E+02 -0.30848810179E+02  0.12913967679E+03  0.90649551708E+02 0.  0.
         23    2    4    4    0    0 -0.57442274521E+03 -0.81781142596E+03  0.77034508178E+03  0.12653622974E+04  0.94515501414E+02 0.  0.
          3    1    3    3  502    0  0.37612672687E+03  0.65085877588E+03  0.57213563618E+03  0.94468388733E+03  0.00000000000E+00 0. -1.
         -3    1    3    3    0  502  0.13758756857E+03  0.22877942368E+03  0.13769976423E+03  0.30038573334E+03  0.00000000000E+00 0.  1.
         13    1    5    5    0    0  0.23786758293E+02  0.14494663732E+01 -0.48273691677E+02  0.53835491370E+02  0.00000000000E+00 0. -1.
        -13    1    5    5    0    0  0.36921691475E+02 -0.63276239973E+02  0.17424881498E+02  0.75304185420E+02  0.00000000000E+00 0.  1.
          3    1    6    6  503    0 -0.34245366741E+03 -0.41521850734E+03  0.38540144638E+03  0.66197824589E+03  0.00000000000E+00 0. -1.
         -3    1    6    6    0  503 -0.23196907780E+03 -0.40259291862E+03  0.38494363540E+03  0.60338405151E+03  0.00000000000E+00 0.  1.
<mgrwt>
<rscale>  0 0.10593203E+04</rscale>
<asrwt>0</asrwt>
<pdfrwt beam="1">  1        3 0.91556919E-01 0.10593203E+04</pdfrwt>
<pdfrwt beam="2">  1       -3 0.31453102E+00 0.10593203E+04</pdfrwt>
<totfact> 0.86557094E-02</totfact>
</mgrwt>
</event>
<event>
12    1  0.1335216E-007  0.5536429E+03  0.7818608E-02  0.1000654E+00
         -1   -1    0    0    0  501 -0.00000000000E+00  0.00000000000E+00  0.58320471541E+03  0.58320471541E+03  0.00000000000E+00 0.  1.
          1   -1    0    0  501    0  0.00000000000E+00 -0.00000000000E+00 -0.98214897673E+03  0.98214897673E+03  0.00000000000E+00 0. -1.
         23    2    1    2    0    0  0.36483560228E+03  0.22645096305E+03  0.31378004954E+03  0.53939738644E+03  0.90036468463E+02 0.  0.
    5000000    2    1    2    0    0 -0.36483560228E+03 -0.22645096305E+03 -0.71272431086E+03  0.10259563057E+04  0.60018775609E+03 0.  0.
         23    2    4    4    0    0 -0.57080150845E+02 -0.32213496587E+03 -0.56235145949E+03  0.65868171033E+03  0.10292400924E+03 0.  0.
         23    2    4    4    0    0 -0.30775545144E+03  0.95684002815E+02 -0.15037285137E+03  0.36727459537E+03  0.91704894595E+02 0.  0.
          3    1    3    3  502    0  0.10636043761E+03  0.23575313652E+02  0.95906001177E+02  0.14514234105E+03  0.00000000000E+00 0. -1.
         -3    1    3    3    0  502  0.25847516467E+03  0.20287564940E+03  0.21787404836E+03  0.39425504540E+03  0.00000000000E+00 0.  1.
         11    1    5    5    0    0  0.20424067113E+02 -0.17268737412E+03 -0.26436832433E+03  0.31643116566E+03  0.00000000000E+00 0. -1.
        -11    1    5    5    0    0 -0.77504217958E+02 -0.14944759175E+03 -0.29798313517E+03  0.34225054467E+03  0.00000000000E+00 0.  1.
          1    1    6    6  503    0 -0.23260861755E+03  0.97823965589E+02 -0.81116575811E+02  0.26505885398E+03  0.00000000000E+00 0. -1.
         -1    1    6    6    0  503 -0.75146833884E+02 -0.21399627739E+01 -0.69256275558E+02  0.10221574139E+03  0.00000000000E+00 0.  1.
<mgrwt>
<rscale>  0 0.55364293E+03</rscale>
<asrwt>0</asrwt>
<pdfrwt beam="1">  1        1 0.15109984E+00 0.55364293E+03</pdfrwt>
<pdfrwt beam="2">  1       -1 0.89723803E-01 0.55364293E+03</pdfrwt>
<totfact> 0.20108163E+01</totfact>
</mgrwt>
</event>
<event>
12    1  0.1335216E-007  0.1979663E+04  0.7818608E-02  0.8616188E-01
         -1   -1    0    0    0  501 -0.00000000000E+00  0.00000000000E+00  0.20127556041E+04  0.20127556041E+04  0.00000000000E+00 0.  1.
          1   -1    0    0  501    0  0.00000000000E+00 -0.00000000000E+00 -0.20445335142E+04  0.20445335142E+04  0.00000000000E+00 0. -1.
         23    2    1    2    0    0  0.16437692860E+04  0.10744167908E+04  0.26068911916E+03  0.19831662069E+04  0.92954190521E+02 0.  0.
    5000000    2    1    2    0    0 -0.16437692860E+04 -0.10744167908E+04 -0.29246702924E+03  0.20741229113E+04  0.60008331267E+03 0.  0.
         23    2    4    4    0    0 -0.32840309024E+03 -0.98268963701E+02  0.13342890128E+03  0.37916175450E+03  0.91950994921E+02 0.  0.
         23    2    4    4    0    0 -0.13153661958E+04 -0.97614782707E+03 -0.42589593052E+03  0.16949611568E+04  0.91941123854E+02 0.  0.
          2    1    3    3  502    0  0.65911277885E+03  0.39784025264E+03  0.13853132342E+03  0.78223874197E+03  0.00000000000E+00 0. -1.
         -2    1    3    3    0  502  0.98465650716E+03  0.67657653813E+03  0.12215779574E+03  0.12009274650E+04  0.00000000000E+00 0.  1.
         13    1    5    5    0    0 -0.12238915635E+03  0.80047084787E+01  0.37156079240E+02  0.12815519956E+03  0.00000000000E+00 0.  1.
        -13    1    5    5    0    0 -0.20601393389E+03 -0.10627367218E+03  0.96272822039E+02  0.25100655494E+03  0.00000000000E+00 0. -1.
          1    1    6    6  503    0 -0.58383243215E+03 -0.48707887834E+03 -0.21325421139E+03  0.78967303438E+03  0.00000000000E+00 0. -1.
         -1    1    6    6    0  503 -0.73153376362E+03 -0.48906894873E+03 -0.21264171913E+03  0.90528812245E+03  0.00000000000E+00 0.  1.
<mgrwt>
<rscale>  0 0.19796632E+04</rscale>
<asrwt>0</asrwt>
<pdfrwt beam="1">  1        1 0.31454362E+00 0.19796632E+04</pdfrwt>
<pdfrwt beam="2">  1       -1 0.30965471E+00 0.19796632E+04</pdfrwt>
<totfact> 0.70953954E-02</totfact>
</mgrwt>
</event>
<event>
12    1  0.1612718E-007  0.1033932E+04  0.7818608E-02  0.9272093E-01
         -2   -1    0    0    0  501 -0.00000000000E+00  0.00000000000E+00  0.82814314614E+03  0.82814314614E+03  0.00000000000E+00 0. -1.
          2   -1    0    0  501    0  0.00000000000E+00 -0.00000000000E+00 -0.18048471893E+04  0.18048471893E+04  0.00000000000E+00 0.  1.
         23    2    1    2    0    0 -0.10077329402E+04 -0.11538632667E+03  0.11715026895E+03  0.10251064009E+04  0.90990463564E+02 0.  0.
    5000000    2    1    2    0    0  0.10077329402E+04  0.11538632667E+03 -0.10938543121E+04  0.16078839346E+04  0.59994483723E+03 0.  0.
         23    2    4    4    0    0  0.28297739282E+03 -0.80180997977E+02 -0.38585253153E+02  0.30950158137E+03  0.88301810993E+02 0.  0.
         23    2    4    4    0    0  0.72475554739E+03  0.19556732465E+03 -0.10552690590E+04  0.12983823532E+04  0.93202823675E+02 0.  0.
          2    1    3    3  502    0 -0.48212007000E+03 -0.47619205262E+02  0.10108488707E+03  0.49489948980E+03  0.00000000000E+00 0. -1.
         -2    1    3    3    0  502 -0.52561287021E+03 -0.67767121410E+02  0.16065381877E+02  0.53020691109E+03  0.00000000000E+00 0.  1.
         13    1    5    5    0    0  0.15113962422E+03 -0.21122554659E+02  0.19401230107E+02  0.15383678381E+03  0.00000000000E+00 0.  1.
        -13    1    5    5    0    0  0.13183776860E+03 -0.59058443318E+02 -0.57986483260E+02  0.15566479755E+03  0.00000000000E+00 0. -1.
          1    1    6    6  503    0  0.35861855869E+03  0.48874272252E+02 -0.49566574490E+03  0.61374302097E+03  0.00000000000E+00 0. -1.
         -1    1    6    6    0  503  0.36613698870E+03  0.14669305240E+03 -0.55960331406E+03  0.68463933221E+03  0.00000000000E+00 0.  1.
<mgrwt>
<rscale>  0 0.10339316E+04</rscale>
<asrwt>0</asrwt>
<pdfrwt beam="1">  1        2 0.27766880E+00 0.10339316E+04</pdfrwt>
<pdfrwt beam="2">  1       -2 0.12740664E+00 0.10339316E+04</pdfrwt>
<totfact> 0.38885316E+00</totfact>
</mgrwt>
</event>
<event>
12    1  0.1335216E-007  0.7644057E+03  0.7818608E-02  0.9613017E-01
         -1   -1    0    0    0  501 -0.00000000000E+00  0.00000000000E+00  0.34094201129E+03  0.34094201129E+03  0.00000000000E+00 0.  1.
          1   -1    0    0  501    0  0.00000000000E+00 -0.00000000000E+00 -0.19768409876E+04  0.19768409876E+04  0.00000000000E+00 0. -1.
         23    2    1    2    0    0 -0.57047408567E+03 -0.38296943017E+03 -0.46701418075E+03  0.83563316002E+03  0.89856920963E+02 0.  0.
    5000000    2    1    2    0    0  0.57047408567E+03  0.38296943017E+03 -0.11688847955E+04  0.14821498388E+04  0.59864030323E+03 0.  0.
         23    2    4    4    0    0  0.61582151638E+03  0.23810333098E+03 -0.64008329922E+03  0.92413774224E+03  0.91622052135E+02 0.  0.
         23    2    4    4    0    0 -0.45347430715E+02  0.14486609919E+03 -0.52880149630E+03  0.55801209657E+03  0.93294701176E+02 0.  0.
          3    1    3    3  502    0 -0.53119932006E+03 -0.36553523358E+03 -0.46003637127E+03  0.79209985955E+03  0.00000000000E+00 0. -1.
         -3    1    3    3    0  502 -0.39274765615E+02 -0.17434196585E+02 -0.69778094864E+01  0.43533300471E+02  0.00000000000E+00 0.  1.
         11    1    5    5    0    0  0.20391764684E+03  0.39280246432E+02 -0.22944325226E+03  0.30946655791E+03  0.00000000000E+00 0.  1.
        -11    1    5    5    0    0  0.41190386954E+03  0.19882308454E+03 -0.41064004696E+03  0.61467118434E+03  0.00000000000E+00 0. -1.
          1    1    6    6  503    0  0.26428210376E+02  0.54555173084E+02 -0.22573375938E+03  0.23373157112E+03  0.00000000000E+00 0. -1.
         -1    1    6    6    0  503 -0.71775641090E+02  0.90310926105E+02 -0.30306773692E+03  0.32428052546E+03  0.00000000000E+00 0.  1.
<mgrwt>
<rscale>  0 0.76440572E+03</rscale>
<asrwt>0</asrwt>
<pdfrwt beam="1">  1        1 0.30412938E+00 0.76440572E+03</pdfrwt>
<pdfrwt beam="2">  1       -1 0.52452618E-01 0.76440572E+03</pdfrwt>
<totfact> 0.11792157E+01</totfact>
</mgrwt>
</event>
<event>
12    1  0.1335216E-007  0.4402734E+03  0.7818608E-02  0.1030663E+00
          2   -1    0    0  501    0  0.00000000000E+00  0.00000000000E+00  0.14248174673E+04  0.14248174673E+04  0.00000000000E+00 0. -1.
         -2   -1    0    0    0  501 -0.00000000000E+00 -0.00000000000E+00 -0.18928739588E+03  0.18928739588E+03  0.00000000000E+00 0.  1.
         23    2    1    2    0    0  0.21543669612E+03 -0.26021400347E+03  0.40363812298E+03  0.53421214136E+03  0.91293921026E+02 0.  0.
    5000000    2    1    2    0    0 -0.21543669612E+03  0.26021400347E+03  0.83189194847E+03  0.10798927219E+04  0.59999981596E+03 0.  0.
         23    2    4    4    0    0 -0.84806937645E+02  0.34420496579E+03  0.82260402205E+03  0.90038921507E+03  0.91400691324E+02 0.  0.
         23    2    4    4    0    0 -0.13062975847E+03 -0.83990962327E+02  0.92879264217E+01  0.17950350678E+03  0.89535623185E+02 0.  0.
          1    1    3    3  502    0  0.12799792383E+03 -0.12725122500E+03  0.14951635152E+03  0.23437466190E+03  0.00000000000E+00 0. -1.
         -1    1    3    3    0  502  0.87438772285E+02 -0.13296277847E+03  0.25412177146E+03  0.29983747946E+03  0.00000000000E+00 0.  1.
         11    1    5    5    0    0 -0.10330454582E+03  0.25889935714E+03  0.61969430998E+03  0.67950109944E+03  0.00000000000E+00 0.  1.
        -11    1    5    5    0    0  0.18497608177E+02  0.85305608657E+02  0.20290971207E+03  0.22088811563E+03  0.00000000000E+00 0. -1.
          3    1    6    6  503    0 -0.43482349107E+02  0.12125795879E+02 -0.14877254282E+02  0.47529804382E+02  0.00000000000E+00 0.  1.
         -3    1    6    6    0  503 -0.87147409366E+02 -0.96116758206E+02  0.24165180704E+02  0.13197370240E+03  0.00000000000E+00 0. -1.
<mgrwt>
<rscale>  0 0.44027339E+03</rscale>
<asrwt>0</asrwt>
<pdfrwt beam="1">  1        2 0.21920268E+00 0.44027339E+03</pdfrwt>
<pdfrwt beam="2">  1       -2 0.29121139E-01 0.44027339E+03</pdfrwt>
<totfact> 0.15891708E+02</totfact>
</mgrwt>
</event>
<event>
12    1  0.1335216E-007  0.1562021E+04  0.7818608E-02  0.8844225E-01
          2   -1    0    0  501    0  0.00000000000E+00  0.00000000000E+00  0.28575389277E+04  0.28575389277E+04  0.00000000000E+00 0. -1.
         -2   -1    0    0    0  501 -0.00000000000E+00 -0.00000000000E+00 -0.92443832811E+03  0.92443832811E+03  0.00000000000E+00 0.  1.
         23    2    1    2    0    0 -0.13394866351E+04  0.72757794015E+03  0.50425023349E+03  0.16081874388E+04  0.91675708220E+02 0.  0.
    5000000    2    1    2    0    0  0.13394866351E+04 -0.72757794015E+03  0.14288503661E+04  0.21737898170E+04  0.60012889886E+03 0.  0.
         23    2    4    4    0    0  0.59845740532E+03 -0.70418130036E+02  0.33805161331E+03  0.69721712887E+03  0.93396212426E+02 0.  0.
         23    2    4    4    0    0  0.74102922982E+03 -0.65715981011E+03  0.10907987528E+04  0.14765726882E+04  0.97168147606E+02 0.  0.
          3    1    3    3  502    0 -0.12027734744E+04  0.65082301751E+03  0.48099413348E+03  0.14496861686E+04  0.00000000000E+00 0. -1.
         -3    1    3    3    0  502 -0.13671316073E+03  0.76754922639E+02  0.23256100014E+02  0.15850127020E+03  0.00000000000E+00 0.  1.
         13    1    5    5    0    0  0.18464568017E+03 -0.63803563807E+02  0.12243258536E+03  0.23055294385E+03  0.00000000000E+00 0.  1.
        -13    1    5    5    0    0  0.41381172515E+03 -0.66145662285E+01  0.21561902795E+03  0.46666418501E+03  0.00000000000E+00 0. -1.
          4    1    6    6  503    0  0.41016254001E+03 -0.36819184991E+03  0.67788282285E+03  0.87368396407E+03  0.00000000000E+00 0. -1.
         -4    1    6    6    0  503  0.33086668982E+03 -0.28896796021E+03  0.41291592992E+03  0.60288872409E+03  0.00000000000E+00 0.  1.
<mgrwt>
<rscale>  0 0.15620214E+04</rscale>
<asrwt>0</asrwt>
<pdfrwt beam="1">  1        2 0.43962137E+00 0.15620214E+04</pdfrwt>
<pdfrwt beam="2">  1       -2 0.14222128E+00 0.15620214E+04</pdfrwt>
<totfact> 0.69244932E-01</totfact>
</mgrwt>
</event>
<event>
12    1  0.1335216E-007  0.7342941E+03  0.7818608E-02  0.9660318E-01
          2   -1    0    0  501    0  0.00000000000E+00  0.00000000000E+00  0.15238299425E+04  0.15238299425E+04  0.00000000000E+00 0. -1.
         -2   -1    0    0    0  501 -0.00000000000E+00 -0.00000000000E+00 -0.38584890603E+03  0.38584890603E+03  0.00000000000E+00 0.  1.
         23    2    1    2    0    0 -0.62101149173E+03  0.11162390198E+02  0.70383260601E+03  0.94323400143E+03  0.92358932231E+02 0.  0.
    5000000    2    1    2    0    0  0.62101149173E+03 -0.11162390198E+02  0.43414843051E+03  0.96644484714E+03  0.59979238995E+03 0.  0.
         23    2    4    4    0    0  0.33781952454E+03  0.26559579841E+03  0.32653524314E+03  0.54693648742E+03  0.88606416034E+02 0.  0.
         23    2    4    4    0    0  0.28319196719E+03 -0.27675818861E+03  0.10761318737E+03  0.41950835973E+03  0.87257552938E+02 0.  0.
          4    1    3    3  502    0 -0.48669204072E+03  0.43382160328E+02  0.52389354298E+03  0.71639067464E+03  0.00000000000E+00 0.  1.
         -4    1    3    3    0  502 -0.13431945101E+03 -0.32219770130E+02  0.17993906303E+03  0.22684332680E+03  0.00000000000E+00 0. -1.
         13    1    5    5    0    0  0.17385989006E+03  0.19111216518E+03  0.20260371376E+03  0.32832816797E+03  0.00000000000E+00 0.  1.
        -13    1    5    5    0    0  0.16395963448E+03  0.74483633229E+02  0.12393152938E+03  0.21860831945E+03  0.00000000000E+00 0. -1.
          3    1    6    6  503    0 -0.31139099656E+01 -0.15462944979E+02 -0.37478550908E+01  0.16212511233E+02  0.00000000000E+00 0.  1.
         -3    1    6    6    0  503  0.28630587715E+03 -0.26129524363E+03  0.11136104246E+03  0.40329584849E+03  0.00000000000E+00 0. -1.
<mgrwt>
<rscale>  0 0.73429411E+03</rscale>
<asrwt>0</asrwt>
<pdfrwt beam="1">  1        2 0.23443537E+00 0.73429411E+03</pdfrwt>
<pdfrwt beam="2">  1       -2 0.59361371E-01 0.73429411E+03</pdfrwt>
<totfact> 0.33425806E+01</totfact>
</mgrwt>
</event>
<event>
12    1  0.1335216E-007  0.4617129E+03  0.7818608E-02  0.1024286E+00
         -1   -1    0    0    0  501 -0.00000000000E+00  0.00000000000E+00  0.19591681261E+03  0.19591681261E+03  0.00000000000E+00 0.  1.
          1   -1    0    0  501    0  0.00000000000E+00 -0.00000000000E+00 -0.14562001234E+04  0.14562001234E+04  0.00000000000E+00 0. -1.
         23    2    1    2    0    0 -0.25591900941E+03 -0.14106428817E+03 -0.11659218070E+03  0.32796804532E+03  0.92604694155E+02 0.  0.
    5000000    2    1    2    0    0  0.25591900941E+03  0.14106428817E+03 -0.11436911300E+04  0.13241488906E+04  0.59995600743E+03 0.  0.
         23    2    4    4    0    0 -0.17273825121E+03  0.45727291336E+02 -0.22011598332E+03  0.29754959611E+03  0.90306297840E+02 0.  0.
         23    2    4    4    0    0  0.42865726062E+03  0.95336996830E+02 -0.92357514673E+03  0.10265992945E+04  0.89882533446E+02 0.  0.
          2    1    3    3  502    0 -0.21916651981E+03 -0.12487191561E+03 -0.13231253075E+03  0.28483954168E+03  0.00000000000E+00 0. -1.
         -2    1    3    3    0  502 -0.36752489605E+02 -0.16192372558E+02  0.15720350044E+02  0.43128503646E+02  0.00000000000E+00 0.  1.
         11    1    5    5    0    0 -0.54361410610E+02  0.34445687640E+02 -0.24975307222E+02  0.69032125357E+02  0.00000000000E+00 0.  1.
        -11    1    5    5    0    0 -0.11837684060E+03  0.11281603697E+02 -0.19514067610E+03  0.22851747075E+03  0.00000000000E+00 0. -1.
          3    1    6    6  503    0  0.38377223640E+03  0.11214622135E+03 -0.83869804316E+03  0.92912448682E+03  0.00000000000E+00 0. -1.
         -3    1    6    6    0  503  0.44885024220E+02 -0.16809224524E+02 -0.84877103567E+02  0.97474807711E+02  0.00000000000E+00 0.  1.
<mgrwt>
<rscale>  0 0.46171294E+03</rscale>
<asrwt>0</asrwt>
<pdfrwt beam="1">  1        1 0.22403079E+00 0.46171294E+03</pdfrwt>
<pdfrwt beam="2">  1       -1 0.30141048E-01 0.46171294E+03</pdfrwt>
<totfact> 0.75423177E+01</totfact>
</mgrwt>
</event>
<event>
12    1  0.1335216E-007  0.6298650E+03  0.7818608E-02  0.9845312E-01
         -1   -1    0    0    0  501 -0.00000000000E+00  0.00000000000E+00  0.58764476932E+03  0.58764476932E+03  0.00000000000E+00 0.  1.
          1   -1    0    0  501    0  0.00000000000E+00 -0.00000000000E+00 -0.85367991902E+03  0.85367991902E+03  0.00000000000E+00 0. -1.
         23    2    1    2    0    0 -0.54991914421E+02  0.50436486172E+03  0.16920275398E+03  0.54305355903E+03  0.94178403159E+02 0.  0.
    5000000    2    1    2    0    0  0.54991914421E+02 -0.50436486172E+03 -0.43523790368E+03  0.89827112932E+03  0.60004246897E+03 0.  0.
         23    2    4    4    0    0 -0.14711500450E+03 -0.50886062674E+03 -0.19701064092E+03  0.57232403575E+03  0.90330765850E+02 0.  0.
         23    2    4    4    0    0  0.20210691892E+03  0.44957650164E+01 -0.23822726276E+03  0.32594709357E+03  0.92853974102E+02 0.  0.
          3    1    3    3  502    0 -0.48371631287E+02  0.26348709935E+03  0.13397347670E+03  0.29952321896E+03  0.00000000000E+00 0. -1.
         -3    1    3    3    0  502 -0.66202831337E+01  0.24087776238E+03  0.35229277288E+02  0.24353034007E+03  0.00000000000E+00 0.  1.
         13    1    5    5    0    0 -0.68306089207E+02 -0.24052649789E+03 -0.45135218771E+02  0.25407854294E+03  0.00000000000E+00 0.  1.
        -13    1    5    5    0    0 -0.78808915295E+02 -0.26833412885E+03 -0.15187542215E+03  0.31824549280E+03  0.00000000000E+00 0. -1.
          3    1    6    6  503    0  0.52443339954E+02 -0.38948139047E+02 -0.86976972929E+02  0.10877617046E+03  0.00000000000E+00 0. -1.
         -3    1    6    6    0  503  0.14966357897E+03  0.43443904063E+02 -0.15125028983E+03  0.21717092311E+03  0.00000000000E+00 0.  1.
<mgrwt>
<rscale>  0 0.62986502E+03</rscale>
<asrwt>0</asrwt>
<pdfrwt beam="1">  1        1 0.13133537E+00 0.62986502E+03</pdfrwt>
<pdfrwt beam="2">  1       -1 0.90406888E-01 0.62986502E+03</pdfrwt>
<totfact> 0.24783823E+01</totfact>
</mgrwt>
</event>
<event>
12    1  0.1335216E-007  0.1302273E+04  0.7818608E-02  0.9027765E-01
          1   -1    0    0  501    0  0.00000000000E+00  0.00000000000E+00  0.14408324498E+04  0.14408324498E+04  0.00000000000E+00 0. -1.
         -1   -1    0    0    0  501 -0.00000000000E+00 -0.00000000000E+00 -0.14416969352E+04  0.14416969352E+04  0.00000000000E+00 0.  1.
         23    2    1    2    0    0  0.56152532787E+03 -0.11296079283E+04  0.55228796551E+03  0.13800812138E+04  0.90980185916E+02 0.  0.
    5000000    2    1    2    0    0 -0.56152532787E+03  0.11296079283E+04 -0.55315245092E+03  0.15024481712E+04  0.60004008840E+03 0.  0.
         23    2    4    4    0    0  0.60011481676E+02  0.21639273853E+03  0.39143886597E+02  0.24572982961E+03  0.91780771855E+02 0.  0.
         23    2    4    4    0    0 -0.62153680955E+03  0.91321518978E+03 -0.59229633752E+03  0.12567183416E+04  0.90862809836E+02 0.  0.
          3    1    3    3  502    0  0.28847464089E+03 -0.51668620820E+03  0.29758926521E+03  0.66237574454E+03  0.00000000000E+00 0. -1.
         -3    1    3    3    0  502  0.27305068698E+03 -0.61292172011E+03  0.25469870029E+03  0.71770546924E+03  0.00000000000E+00 0.  1.
         13    1    5    5    0    0  0.23751680692E+02  0.72170017138E+01 -0.11681867190E+02  0.27435259621E+02  0.00000000000E+00 0.  1.
        -13    1    5    5    0    0  0.36259800984E+02  0.20917573681E+03  0.50825753788E+02  0.21829456999E+03  0.00000000000E+00 0. -1.
          2    1    6    6  503    0 -0.46260478463E+03  0.67519934706E+03 -0.48297952247E+03  0.95035075849E+03  0.00000000000E+00 0.  1.
         -2    1    6    6    0  503 -0.15893202492E+03  0.23801584272E+03 -0.10931681505E+03  0.30636758312E+03  0.00000000000E+00 0. -1.
<mgrwt>
<rscale>  0 0.13022731E+04</rscale>
<asrwt>0</asrwt>
<pdfrwt beam="1">  1        1 0.22166653E+00 0.13022731E+04</pdfrwt>
<pdfrwt beam="2">  1       -1 0.22179953E+00 0.13022731E+04</pdfrwt>
<totfact> 0.74510321E-01</totfact>
</mgrwt>
</event>
<event>
12    1  0.1335216E-007  0.1122521E+04  0.7818608E-02  0.9183515E-01
         -2   -1    0    0    0  501 -0.00000000000E+00  0.00000000000E+00  0.12423505431E+04  0.12423505431E+04  0.00000000000E+00 0.  1.
          2   -1    0    0  501    0  0.00000000000E+00 -0.00000000000E+00 -0.10854136066E+04  0.10854136066E+04  0.00000000000E+00 0. -1.
         23    2    1    2    0    0  0.30090057320E+03  0.10111797688E+04 -0.16503867514E+03  0.10723099824E+04  0.97904312643E+02 0.  0.
    5000000    2    1    2    0    0 -0.30090057320E+03 -0.10111797688E+04  0.32197561158E+03  0.12554541673E+04  0.59955916467E+03 0.  0.
         23    2    4    4    0    0  0.15630809299E+03 -0.18180905319E+03  0.31979124125E+02  0.26061050934E+03  0.96997017703E+02 0.  0.
         23    2    4    4    0    0 -0.45720866620E+03 -0.82937071556E+03  0.28999648746E+03  0.99484365791E+03  0.93383042739E+02 0.  0.
          1    1    3    3  502    0  0.24313365444E+03  0.76988219277E+03 -0.86100689379E+02  0.81193958727E+03  0.00000000000E+00 0. -1.
         -1    1    3    3    0  502  0.57766918764E+02  0.24129757598E+03 -0.78937985759E+02  0.26037039515E+03  0.00000000000E+00 0.  1.
         13    1    5    5    0    0  0.54367437109E+02 -0.47497710607E+02 -0.33678056678E+02  0.79662175668E+02  0.00000000000E+00 0. -1.
        -13    1    5    5    0    0  0.10194065588E+03 -0.13431134258E+03  0.65657180802E+02  0.18094833368E+03  0.00000000000E+00 0.  1.
          1    1    6    6  503    0 -0.47823108921E+02 -0.55426907348E+02  0.23122817164E+01  0.73243009576E+02  0.00000000000E+00 0. -1.
         -1    1    6    6    0  503 -0.40938555728E+03 -0.77394380821E+03  0.28768420574E+03  0.92160064833E+03  0.00000000000E+00 0.  1.
<mgrwt>
<rscale>  0 0.11225210E+04</rscale>
<asrwt>0</asrwt>
<pdfrwt beam="1">  1        2 0.16698671E+00 0.11225210E+04</pdfrwt>
<pdfrwt beam="2">  1       -2 0.19113085E+00 0.11225210E+04</pdfrwt>
<totfact> 0.33174169E+00</totfact>
</mgrwt>
</event>
<event>
12    1  0.1335216E-007  0.3380277E+03  0.7818608E-02  0.1067639E+00
         -1   -1    0    0    0  501 -0.00000000000E+00  0.00000000000E+00  0.58945070167E+03  0.58945070167E+03  0.00000000000E+00 0.  1.
          1   -1    0    0  501    0  0.00000000000E+00 -0.00000000000E+00 -0.41484840998E+03  0.41484840998E+03  0.00000000000E+00 0. -1.
         23    2    1    2    0    0 -0.17037519909E+03  0.24135049191E+03 -0.12518779592E+02  0.30989120096E+03  0.92725768676E+02 0.  0.
    5000000    2    1    2    0    0  0.17037519909E+03 -0.24135049191E+03  0.18712107128E+03  0.69440791070E+03  0.59992523093E+03 0.  0.
         23    2    4    4    0    0 -0.63398547805E+01 -0.16706066511E+03  0.36879894345E+03  0.41576101544E+03  0.94313846701E+02 0.  0.
         23    2    4    4    0    0  0.17671505387E+03 -0.74289826808E+02 -0.18167787217E+03  0.27864689526E+03  0.88825978010E+02 0.  0.
          2    1    3    3  502    0 -0.14127264638E+03  0.12332498567E+03  0.14199366168E+01  0.18753407404E+03  0.00000000000E+00 0. -1.
         -2    1    3    3    0  502 -0.29102552711E+02  0.11802550624E+03 -0.13938716209E+02  0.12235712692E+03  0.00000000000E+00 0.  1.
         11    1    5    5    0    0  0.17418081929E+02 -0.12721864662E+03  0.17848118665E+03  0.21987157072E+03  0.00000000000E+00 0. -1.
        -11    1    5    5    0    0 -0.23757936710E+02 -0.39842018488E+02  0.19031775681E+03  0.19588944471E+03  0.00000000000E+00 0.  1.
          3    1    6    6  503    0  0.29241120894E+02 -0.69710607888E+01 -0.84386494250E+02  0.89580797336E+02  0.00000000000E+00 0. -1.
         -3    1    6    6    0  503  0.14747393298E+03 -0.67318766019E+02 -0.97291377920E+02  0.18906609792E+03  0.00000000000E+00 0.  1.
<mgrwt>
<rscale>  0 0.33802770E+03</rscale>
<asrwt>0</asrwt>
<pdfrwt beam="1">  1        1 0.63822833E-01 0.33802770E+03</pdfrwt>
<pdfrwt beam="2">  1       -1 0.90684723E-01 0.33802770E+03</pdfrwt>
<totfact> 0.72260731E+01</totfact>
</mgrwt>
</event>
<event>
12    1  0.1335216E-007  0.1130897E+04  0.7818608E-02  0.9175590E-01
         -2   -1    0    0    0  501 -0.00000000000E+00  0.00000000000E+00  0.14836596829E+04  0.14836596829E+04  0.00000000000E+00 0.  1.
          2   -1    0    0  501    0  0.00000000000E+00 -0.00000000000E+00 -0.10339266302E+04  0.10339266302E+04  0.00000000000E+00 0. -1.
         23    2    1    2    0    0  0.84984820925E+03 -0.73579374589E+03 -0.94462704211E+02  0.11317037512E+04  0.90530452038E+02 0.  0.
    5000000    2    1    2    0    0 -0.84984820925E+03  0.73579374589E+03  0.54419575690E+03  0.13858825619E+04  0.60073874384E+03 0.  0.
         23    2    4    4    0    0 -0.38275713564E+03  0.27492616226E+03 -0.67114808661E+02  0.48462166412E+03  0.90919416024E+02 0.  0.
         23    2    4    4    0    0 -0.46709107361E+03  0.46086758363E+03  0.61131056556E+03  0.90126089780E+03  0.89429288579E+02 0.  0.
          4    1    3    3  502    0  0.16233580230E+03 -0.16102391093E+03 -0.52493425711E+02  0.23460002631E+03  0.00000000000E+00 0. -1.
         -4    1    3    3    0  502  0.68751240695E+03 -0.57476983497E+03 -0.41969278500E+02  0.89710372490E+03  0.00000000000E+00 0.  1.
         13    1    5    5    0    0 -0.26461013098E+03  0.22162153725E+03 -0.16749588641E+02  0.34556500967E+03  0.00000000000E+00 0. -1.
        -13    1    5    5    0    0 -0.11814700466E+03  0.53304625016E+02 -0.50365220020E+02  0.13905665445E+03  0.00000000000E+00 0.  1.
          4    1    6    6  503    0 -0.20918243016E+03  0.14530887213E+03  0.23464873656E+03  0.34631197926E+03  0.00000000000E+00 0. -1.
         -4    1    6    6    0  503 -0.25790864345E+03  0.31555871150E+03  0.37666182900E+03  0.55494891854E+03  0.00000000000E+00 0.  1.
<mgrwt>
<rscale>  0 0.11308967E+04</rscale>
<asrwt>0</asrwt>
<pdfrwt beam="1">  1        2 0.15906564E+00 0.11308967E+04</pdfrwt>
<pdfrwt beam="2">  1       -2 0.22825533E+00 0.11308967E+04</pdfrwt>
<totfact> 0.20585152E+00</totfact>
</mgrwt>
</event>
<event>
12    1  0.1335216E-007  0.1035843E+04  0.7818608E-02  0.9270084E-01
         -2   -1    0    0    0  501 -0.00000000000E+00  0.00000000000E+00  0.24822268018E+03  0.24822268018E+03  0.00000000000E+00 0.  1.
          2   -1    0    0  501    0  0.00000000000E+00 -0.00000000000E+00 -0.46242405417E+04  0.46242405417E+04  0.00000000000E+00 0. -1.
         23    2    1    2    0    0 -0.83352357917E+03  0.50699073559E+03 -0.17084906762E+04  0.19694890363E+04  0.90252481884E+02 0.  0.
    5000000    2    1    2    0    0  0.83352357917E+03 -0.50699073559E+03 -0.26675271853E+04  0.29029741855E+04  0.59979719459E+03 0.  0.
         23    2    4    4    0    0  0.73844527992E+03 -0.20624719700E+03 -0.14575687441E+04  0.16492868772E+04  0.88324525816E+02 0.  0.
         23    2    4    4    0    0  0.95078299246E+02 -0.30074353858E+03 -0.12099584412E+04  0.12536873083E+04  0.90806820535E+02 0.  0.
          2    1    3    3  502    0 -0.18982596959E+03  0.15965315728E+03 -0.45411500174E+03  0.51743933380E+03  0.00000000000E+00 0.  1.
         -2    1    3    3    0  502 -0.64369760957E+03  0.34733757831E+03 -0.12543756745E+04  0.14520497025E+04  0.00000000000E+00 0. -1.
         11    1    5    5    0    0  0.30541125374E+03 -0.11174704523E+03 -0.69355513006E+03  0.76601707191E+03  0.00000000000E+00 0. -1.
        -11    1    5    5    0    0  0.43303402618E+03 -0.94500151772E+02 -0.76401361401E+03  0.88326980527E+03  0.00000000000E+00 0.  1.
          3    1    6    6  503    0  0.40122712763E+02 -0.37699130709E+02 -0.13842048151E+03  0.14896739991E+03  0.00000000000E+00 0. -1.
         -3    1    6    6    0  503  0.54955586483E+02 -0.26304440787E+03 -0.10715379597E+04  0.11047199084E+04  0.00000000000E+00 0.  1.
<mgrwt>
<rscale>  0 0.10358428E+04</rscale>
<asrwt>0</asrwt>
<pdfrwt beam="1">  1        2 0.71142164E+00 0.10358428E+04</pdfrwt>
<pdfrwt beam="2">  1       -2 0.38188104E-01 0.10358428E+04</pdfrwt>
<totfact> 0.64200012E-01</totfact>
</mgrwt>
</event>
<event>
12    1  0.1335216E-007  0.1123285E+04  0.7818608E-02  0.9182789E-01
          2   -1    0    0  501    0  0.00000000000E+00  0.00000000000E+00  0.25082393653E+04  0.25082393653E+04  0.00000000000E+00 0. -1.
         -2   -1    0    0    0  501 -0.00000000000E+00 -0.00000000000E+00 -0.63200123308E+03  0.63200123308E+03  0.00000000000E+00 0.  1.
         23    2    1    2    0    0 -0.73743918898E+03  0.74762189604E+03  0.19924435372E+03  0.10726623591E+04  0.90283814502E+02 0.  0.
    5000000    2    1    2    0    0  0.73743918898E+03 -0.74762189604E+03  0.16769937785E+04  0.20675782393E+04  0.59984713527E+03 0.  0.
         23    2    4    4    0    0  0.27536128518E+03  0.39195990754E+02  0.40479041902E+03  0.49930763462E+03  0.89959255184E+02 0.  0.
         23    2    4    4    0    0  0.46207790380E+03 -0.78681788680E+03  0.12722033595E+04  0.15682706047E+04  0.91503691330E+02 0.  0.
          2    1    3    3  502    0 -0.49769081566E+03  0.48491029698E+03  0.90412048503E+02  0.70071997447E+03  0.00000000000E+00 0. -1.
         -2    1    3    3    0  502 -0.23974837332E+03  0.26271159907E+03  0.10883230522E+03  0.37194238459E+03  0.00000000000E+00 0.  1.
         13    1    5    5    0    0  0.12660856669E+03  0.43008461780E+01  0.25802819655E+03  0.28744873744E+03  0.00000000000E+00 0. -1.
        -13    1    5    5    0    0  0.14875271849E+03  0.34895144576E+02  0.14676222246E+03  0.21185889718E+03  0.00000000000E+00 0.  1.
          4    1    6    6  503    0  0.42091838585E+03 -0.65597402324E+03  0.10993443810E+04  0.13476024172E+04  0.00000000000E+00 0. -1.
         -4    1    6    6    0  503  0.41159517951E+02 -0.13084386356E+03  0.17285897848E+03  0.22066818753E+03  0.00000000000E+00 0.  1.
<mgrwt>
<rscale>  0 0.11232850E+04</rscale>
<asrwt>0</asrwt>
<pdfrwt beam="1">  1        2 0.38588297E+00 0.11232850E+04</pdfrwt>
<pdfrwt beam="2">  1       -2 0.97230961E-01 0.11232850E+04</pdfrwt>
<totfact> 0.30171968E+00</totfact>
</mgrwt>
</event>
<event>
12    1  0.1335216E-007  0.5396102E+03  0.7818608E-02  0.1003928E+00
         -2   -1    0    0    0  501 -0.00000000000E+00  0.00000000000E+00  0.17573581933E+03  0.17573581933E+03  0.00000000000E+00 0. -1.
          2   -1    0    0  501    0  0.00000000000E+00 -0.00000000000E+00 -0.26073476030E+04  0.26073476030E+04  0.00000000000E+00 0.  1.
         23    2    1    2    0    0 -0.30128106323E+03  0.33533626806E+03 -0.15914513927E+04  0.16566090558E+04  0.91735144041E+02 0.  0.
    5000000    2    1    2    0    0  0.30128106323E+03 -0.33533626806E+03 -0.84016039097E+03  0.11264743665E+04  0.59987859119E+03 0.  0.
         23    2    4    4    0    0  0.15093597561E+03  0.76175738395E+02 -0.21290542756E+02  0.19335130778E+03  0.91362077223E+02 0.  0.
         23    2    4    4    0    0  0.15034508762E+03 -0.41151200646E+03 -0.81886984821E+03  0.93312305876E+03  0.90691993267E+02 0.  0.
          1    1    3    3  502    0 -0.16582781096E+03  0.13203113054E+03 -0.84588228394E+03  0.87203665096E+03  0.00000000000E+00 0. -1.
         -1    1    3    3    0  502 -0.13545325227E+03  0.20330513752E+03 -0.74556910877E+03  0.78457240485E+03  0.00000000000E+00 0.  1.
         13    1    5    5    0    0  0.28784297342E+02  0.53244999032E+02 -0.32251213924E+02  0.68583573069E+02  0.00000000000E+00 0. -1.
        -13    1    5    5    0    0  0.12215167827E+03  0.22930739364E+02  0.10960671168E+02  0.12476773471E+03  0.00000000000E+00 0.  1.
          4    1    6    6  503    0  0.40821722417E+02 -0.10565631897E+03 -0.30300992382E+03  0.32348830689E+03  0.00000000000E+00 0. -1.
         -4    1    6    6    0  503  0.10952336520E+03 -0.30585568749E+03 -0.51585992439E+03  0.60963475187E+03  0.00000000000E+00 0.  1.
<mgrwt>
<rscale>  0 0.53961020E+03</rscale>
<asrwt>0</asrwt>
<pdfrwt beam="1">  1        2 0.40113036E+00 0.53961020E+03</pdfrwt>
<pdfrwt beam="2">  1       -2 0.27036283E-01 0.53961020E+03</pdfrwt>
<totfact> 0.40516044E+01</totfact>
</mgrwt>
</event>
<event>
12    1  0.1335216E-007  0.5389089E+03  0.7818608E-02  0.1004094E+00
         -2   -1    0    0    0  501 -0.00000000000E+00  0.00000000000E+00  0.16912126165E+03  0.16912126165E+03  0.00000000000E+00 0.  1.
          2   -1    0    0  501    0  0.00000000000E+00 -0.00000000000E+00 -0.26428746588E+04  0.26428746588E+04  0.00000000000E+00 0. -1.
         23    2    1    2    0    0 -0.42345094856E+03 -0.24803776877E+03 -0.14112668987E+04  0.14969843370E+04  0.91947839662E+02 0.  0.
    5000000    2    1    2    0    0  0.42345094856E+03  0.24803776877E+03 -0.10624864985E+04  0.13150115835E+04  0.59962026713E+03 0.  0.
         23    2    4    4    0    0  0.30605659103E+02  0.14227032597E+03 -0.80869121893E+03  0.82661116950E+03  0.90149797272E+02 0.  0.
         23    2    4    4    0    0  0.39284528945E+03  0.10576744280E+03 -0.25379527956E+03  0.48840041402E+03  0.92783334100E+02 0.  0.
          3    1    3    3  502    0 -0.21513398833E+03 -0.82883230153E+02 -0.73636255362E+03  0.77161005252E+03  0.00000000000E+00 0. -1.
         -3    1    3    3    0  502 -0.20831696022E+03 -0.16515453862E+03 -0.67490434507E+03  0.72537428444E+03  0.00000000000E+00 0.  1.
         11    1    5    5    0    0 -0.24597160929E+02  0.28047740300E+02 -0.10166283405E+03  0.10829140266E+03  0.00000000000E+00 0. -1.
        -11    1    5    5    0    0  0.55202820033E+02  0.11422258567E+03 -0.70702838488E+03  0.71831976685E+03  0.00000000000E+00 0.  1.
          4    1    6    6  503    0  0.65578629565E+02  0.55990776989E+02 -0.54411977379E+02  0.10196169401E+03  0.00000000000E+00 0.  1.
         -4    1    6    6    0  503  0.32726665989E+03  0.49776665811E+02 -0.19938330218E+03  0.38643872001E+03  0.00000000000E+00 0. -1.
<mgrwt>
<rscale>  0 0.53890895E+03</rscale>
<asrwt>0</asrwt>
<pdfrwt beam="1">  1        2 0.40659611E+00 0.53890895E+03</pdfrwt>
<pdfrwt beam="2">  1       -2 0.26018655E-01 0.53890895E+03</pdfrwt>
<totfact> 0.41456091E+01</totfact>
</mgrwt>
</event>
<event>
12    1  0.1335216E-007  0.1751483E+04  0.7818608E-02  0.8732534E-01
          1   -1    0    0  501    0  0.00000000000E+00  0.00000000000E+00  0.16211857810E+04  0.16211857810E+04  0.00000000000E+00 0. -1.
         -1   -1    0    0    0  501 -0.00000000000E+00 -0.00000000000E+00 -0.32743835603E+04  0.32743835603E+04  0.00000000000E+00 0.  1.
         23    2    1    2    0    0  0.82459567190E+03 -0.15067577110E+04  0.75405802260E+03  0.18781060155E+04  0.91661781286E+02 0.  0.
    5000000    2    1    2    0    0 -0.82459567190E+03  0.15067577110E+04 -0.24072558019E+04  0.30174633259E+04  0.59993966814E+03 0.  0.
         23    2    4    4    0    0 -0.83864916027E+03  0.12079373814E+04 -0.21773287796E+04  0.26289802232E+04  0.91275780911E+02 0.  0.
         23    2    4    4    0    0  0.14053488374E+02  0.29882032955E+03 -0.22992702235E+03  0.38848310267E+03  0.92528890435E+02 0.  0.
          1    1    3    3  502    0  0.33276341206E+03 -0.62296220937E+03  0.26160887475E+03  0.75316173964E+03  0.00000000000E+00 0. -1.
         -1    1    3    3    0  502  0.49183225984E+03 -0.88379550161E+03  0.49244914784E+03  0.11249442758E+04  0.00000000000E+00 0.  1.
         13    1    5    5    0    0 -0.51461556827E+03  0.79898500328E+03 -0.13539765934E+04  0.16542245416E+04  0.00000000000E+00 0. -1.
        -13    1    5    5    0    0 -0.32403359200E+03  0.40895237815E+03 -0.82335218621E+03  0.97475568163E+03  0.00000000000E+00 0.  1.
          4    1    6    6  503    0  0.10846016142E+01 -0.69756033923E+01 -0.49165288313E+01  0.86027704315E+01  0.00000000000E+00 0. -1.
         -4    1    6    6    0  503  0.12968886759E+02  0.30579593294E+03 -0.22501049352E+03  0.37988033224E+03  0.00000000000E+00 0.  1.
<mgrwt>
<rscale>  0 0.17514833E+04</rscale>
<asrwt>0</asrwt>
<pdfrwt beam="1">  1        1 0.24941320E+00 0.17514833E+04</pdfrwt>
<pdfrwt beam="2">  1       -1 0.50375131E+00 0.17514833E+04</pdfrwt>
<totfact> 0.68985632E-03</totfact>
</mgrwt>
</event>
<event>
12    1  0.1335216E-007  0.7192429E+03  0.7818608E-02  0.9684879E-01
          3   -1    0    0  501    0  0.00000000000E+00  0.00000000000E+00  0.30198113968E+03  0.30198113968E+03  0.00000000000E+00 0. -1.
         -3   -1    0    0    0  501 -0.00000000000E+00 -0.00000000000E+00 -0.20305149135E+04  0.20305149135E+04  0.00000000000E+00 0.  1.
         23    2    1    2    0    0  0.16781603210E+03 -0.62583144150E+03 -0.95993338672E+03  0.11617943794E+04  0.92015538764E+02 0.  0.
    5000000    2    1    2    0    0 -0.16781603210E+03  0.62583144150E+03 -0.76860038710E+03  0.11707016737E+04  0.59997386613E+03 0.  0.
         23    2    4    4    0    0 -0.31852371287E+03  0.38099350403E+03 -0.69750278220E+03  0.86095087818E+03  0.90071514380E+02 0.  0.
         23    2    4    4    0    0  0.15070768076E+03  0.24483793747E+03 -0.71097604899E+02  0.30975079555E+03  0.90731831556E+02 0.  0.
          1    1    3    3  502    0  0.57587325974E+02 -0.14978807244E+03 -0.17725955539E+03  0.23911026062E+03  0.00000000000E+00 0. -1.
         -1    1    3    3    0  502  0.11022870613E+03 -0.47604336906E+03 -0.78267383133E+03  0.92268411882E+03  0.00000000000E+00 0.  1.
         13    1    5    5    0    0 -0.26940951961E+03  0.28740894615E+03 -0.49592153643E+03  0.63334316281E+03  0.00000000000E+00 0.  1.
        -13    1    5    5    0    0 -0.49114193254E+02  0.93584557883E+02 -0.20158124576E+03  0.22760771537E+03  0.00000000000E+00 0. -1.
          3    1    6    6  503    0  0.10237783357E+03  0.19547669541E+03 -0.89715348397E+02  0.23820412044E+03  0.00000000000E+00 0. -1.
         -3    1    6    6    0  503  0.48329847190E+02  0.49361242061E+02  0.18617743498E+02  0.71546675116E+02  0.00000000000E+00 0.  1.
<mgrwt>
<rscale>  0 0.71924294E+03</rscale>
<asrwt>0</asrwt>
<pdfrwt beam="1">  1        3 0.46458638E-01 0.71924294E+03</pdfrwt>
<pdfrwt beam="2">  1       -3 0.31238691E+00 0.71924294E+03</pdfrwt>
<totfact> 0.39908123E-01</totfact>
</mgrwt>
</event>
<event>
12    1  0.1335216E-007  0.2582976E+04  0.7818608E-02  0.8374007E-01
         -1   -1    0    0    0  501 -0.00000000000E+00  0.00000000000E+00  0.56000808164E+04  0.56000808164E+04  0.00000000000E+00 0.  1.
          1   -1    0    0  501    0  0.00000000000E+00 -0.00000000000E+00 -0.12077841588E+04  0.12077841588E+04  0.00000000000E+00 0. -1.
         23    2    1    2    0    0 -0.18611891981E+03  0.25577611636E+04  0.22514471396E+04  0.34137967420E+04  0.90617607895E+02 0.  0.
    5000000    2    1    2    0    0  0.18611891981E+03 -0.25577611636E+04  0.21408495179E+04  0.33940682333E+04  0.59973335019E+03 0.  0.
         23    2    4    4    0    0  0.31279808086E+03 -0.16646020784E+04  0.16345573883E+04  0.23555768162E+04  0.90672832930E+02 0.  0.
         23    2    4    4    0    0 -0.12667916105E+03 -0.89315908518E+03  0.50629212961E+03  0.10384914170E+04  0.91388956936E+02 0.  0.
          1    1    3    3  502    0 -0.40003960738E+02  0.75480220374E+03  0.71531146749E+03  0.10406715040E+04  0.00000000000E+00 0. -1.
         -1    1    3    3    0  502 -0.14611495907E+03  0.18029589598E+04  0.15361356721E+04  0.23731252380E+04  0.00000000000E+00 0.  1.
         11    1    5    5    0    0  0.29295008253E+03 -0.13944364362E+04  0.13917305810E+04  0.19917797909E+04  0.00000000000E+00 0.  1.
        -11    1    5    5    0    0  0.19847998330E+02 -0.27016564222E+03  0.24282680733E+03  0.36379702532E+03  0.00000000000E+00 0. -1.
          2    1    6    6  503    0 -0.33252247732E+01 -0.27928027684E+03  0.18178359897E+03  0.33324736609E+03  0.00000000000E+00 0. -1.
         -2    1    6    6    0  503 -0.12335393627E+03 -0.61387880834E+03  0.32450853064E+03  0.70524405094E+03  0.00000000000E+00 0.  1.
<mgrwt>
<rscale>  0 0.25829757E+04</rscale>
<asrwt>0</asrwt>
<pdfrwt beam="1">  1        1 0.18581295E+00 0.25829757E+04</pdfrwt>
<pdfrwt beam="2">  1       -1 0.86155088E+00 0.25829757E+04</pdfrwt>
<totfact> 0.20744837E-04</totfact>
</mgrwt>
</event>
<event>
12    1  0.2134699E-007  0.7329672E+03  0.7818608E-02  0.9662458E-01
          2   -1    0    0  501    0  0.00000000000E+00  0.00000000000E+00  0.16757953273E+04  0.16757953273E+04  0.00000000000E+00 0. -1.
         -2   -1    0    0    0  501 -0.00000000000E+00 -0.00000000000E+00 -0.61225329498E+03  0.61225329498E+03  0.00000000000E+00 0.  1.
         23    2    1    2    0    0  0.28291964250E+03  0.66837659890E+03  0.11276814019E+04  0.13441979443E+04  0.91825743323E+02 0.  0.
    5000000    2    1    2    0    0 -0.28291964250E+03 -0.66837659890E+03 -0.64139369547E+02  0.94385067803E+03  0.59997453415E+03 0.  0.
         23    2    4    4    0    0 -0.15875999665E+03 -0.29322825968E+03  0.25574635903E+03  0.42927309738E+03  0.87644983683E+02 0.  0.
         23    2    4    4    0    0 -0.12415964585E+03 -0.37514833922E+03 -0.31988572858E+03  0.51457758065E+03  0.79443773134E+02 0.  0.
          2    1    3    3  502    0  0.19742002020E+03  0.35227540597E+03  0.60375934589E+03  0.72635939712E+03  0.00000000000E+00 0. -1.
         -2    1    3    3    0  502  0.85499622299E+02  0.31610119292E+03  0.52392205602E+03  0.61783854717E+03  0.00000000000E+00 0.  1.
         13    1    5    5    0    0 -0.12755778323E+03 -0.21378702560E+03  0.14048872209E+03  0.28585479078E+03  0.00000000000E+00 0. -1.
        -13    1    5    5    0    0 -0.31202213418E+02 -0.79441234076E+02  0.11525763694E+03  0.14341830659E+03  0.00000000000E+00 0.  1.
          3    1    6    6  503    0 -0.66982299327E+02 -0.29105110673E+03 -0.21156795667E+03  0.36600324512E+03  0.00000000000E+00 0. -1.
         -3    1    6    6    0  503 -0.57177346523E+02 -0.84097232488E+02 -0.10831777191E+03  0.14857433553E+03  0.00000000000E+00 0.  1.
<mgrwt>
<rscale>  0 0.73296718E+03</rscale>
<asrwt>0</asrwt>
<pdfrwt beam="1">  1        2 0.25781466E+00 0.73296718E+03</pdfrwt>
<pdfrwt beam="2">  1       -2 0.94192815E-01 0.73296718E+03</pdfrwt>
<totfact> 0.99126600E+00</totfact>
</mgrwt>
</event>
<event>
12    1  0.1335216E-007  0.5342452E+03  0.7818608E-02  0.1005208E+00
         -2   -1    0    0    0  501 -0.00000000000E+00  0.00000000000E+00  0.92043580710E+03  0.92043580710E+03  0.00000000000E+00 0.  1.
          2   -1    0    0  501    0  0.00000000000E+00 -0.00000000000E+00 -0.48093706248E+03  0.48093706248E+03  0.00000000000E+00 0. -1.
         23    2    1    2    0    0 -0.32487735737E+03 -0.21108531508E+03 -0.19870818888E+03  0.44353455946E+03  0.84472797568E+02 0.  0.
    5000000    2    1    2    0    0  0.32487735737E+03  0.21108531508E+03  0.63820693351E+03  0.95783831012E+03  0.60003652455E+03 0.  0.
         23    2    4    4    0    0  0.29578525907E+03  0.39449860360E+03  0.39391938791E+03  0.63781170428E+03  0.92267102600E+02 0.  0.
         23    2    4    4    0    0  0.29092098302E+02 -0.18341328852E+03  0.24428754560E+03  0.32002660584E+03  0.90850640735E+02 0.  0.
          2    1    3    3  502    0 -0.26481352034E+03 -0.16009966499E+03 -0.11922763136E+03  0.33162227212E+03  0.00000000000E+00 0.  1.
         -2    1    3    3    0  502 -0.60063837036E+02 -0.50985650089E+02 -0.79480557518E+02  0.11191228734E+03  0.00000000000E+00 0. -1.
         13    1    5    5    0    0  0.13087193590E+03  0.14741684601E+03  0.10468119051E+03  0.22319798776E+03  0.00000000000E+00 0. -1.
        -13    1    5    5    0    0  0.16491332317E+03  0.24708175759E+03  0.28923819740E+03  0.41461371652E+03  0.00000000000E+00 0.  1.
          3    1    6    6  503    0  0.25506693035E+02 -0.12677036102E+03  0.22603142926E+03  0.26040645697E+03  0.00000000000E+00 0.  1.
         -3    1    6    6    0  503  0.35854052668E+01 -0.56642927505E+02  0.18256116344E+02  0.59620148870E+02  0.00000000000E+00 0. -1.
<mgrwt>
<rscale>  0 0.53424518E+03</rscale>
<asrwt>0</asrwt>
<pdfrwt beam="1">  1        2 0.73990317E-01 0.53424518E+03</pdfrwt>
<pdfrwt beam="2">  1       -2 0.14160551E+00 0.53424518E+03</pdfrwt>
<totfact> 0.23237035E+01</totfact>
</mgrwt>
</event>
<event>
12    1  0.1335216E-007  0.9458768E+03  0.7818608E-02  0.9369983E-01
          1   -1    0    0  501    0  0.00000000000E+00  0.00000000000E+00  0.89719356139E+03  0.89719356139E+03  0.00000000000E+00 0. -1.
         -1   -1    0    0    0  501 -0.00000000000E+00 -0.00000000000E+00 -0.11514922782E+04  0.11514922782E+04  0.00000000000E+00 0.  1.
         23    2    1    2    0    0 -0.24991538424E+03  0.83852230131E+03 -0.42006831147E+03  0.97492346774E+03  0.91875092154E+02 0.  0.
    5000000    2    1    2    0    0  0.24991538424E+03 -0.83852230131E+03  0.16576959462E+03  0.10737623719E+04  0.59992393159E+03 0.  0.
         23    2    4    4    0    0  0.21879034278E+03 -0.55560464716E+02 -0.65305151280E+02  0.25184563335E+03  0.90583005696E+02 0.  0.
         23    2    4    4    0    0  0.31125041460E+02 -0.78296183660E+03  0.23107474590E+03  0.82191673853E+03  0.90297182181E+02 0.  0.
          2    1    3    3  502    0 -0.20461208023E+03  0.57333653567E+03 -0.32127046930E+03  0.68832812013E+03  0.00000000000E+00 0. -1.
         -2    1    3    3    0  502 -0.45303304012E+02  0.26518576564E+03 -0.98797842168E+02  0.28659534761E+03  0.00000000000E+00 0.  1.
         13    1    5    5    0    0  0.23832647691E+02 -0.12203898272E+02  0.21242868961E+02  0.34178790363E+02  0.00000000000E+00 0. -1.
        -13    1    5    5    0    0  0.19495769509E+03 -0.43356566444E+02 -0.86548020242E+02  0.21766684299E+03  0.00000000000E+00 0.  1.
          3    1    6    6  503    0  0.50035923229E+02 -0.29997936741E+03  0.11220320911E+03  0.32416164891E+03  0.00000000000E+00 0. -1.
         -3    1    6    6    0  503 -0.18910881769E+02 -0.48298246918E+03  0.11887153680E+03  0.49775508963E+03  0.00000000000E+00 0.  1.
<mgrwt>
<rscale>  0 0.94587677E+03</rscale>
<asrwt>0</asrwt>
<pdfrwt beam="1">  1        1 0.13802978E+00 0.94587677E+03</pdfrwt>
<pdfrwt beam="2">  1       -1 0.17715266E+00 0.94587677E+03</pdfrwt>
<totfact> 0.40298098E+00</totfact>
</mgrwt>
</event>
<event>
12    1  0.1335216E-007  0.6784821E+03  0.7818608E-02  0.9754755E-01
          2   -1    0    0  501    0  0.00000000000E+00  0.00000000000E+00  0.97108669650E+03  0.97108669650E+03  0.00000000000E+00 0.  1.
         -2   -1    0    0    0  501 -0.00000000000E+00 -0.00000000000E+00 -0.59596008589E+03  0.59596008589E+03  0.00000000000E+00 0. -1.
         23    2    1    2    0    0  0.24511812633E+03 -0.54557836215E+03  0.38961568128E+03  0.71965970687E+03  0.91493548897E+02 0.  0.
    5000000    2    1    2    0    0 -0.24511812633E+03  0.54557836215E+03 -0.14489070674E+02  0.84738707551E+03  0.60009689007E+03 0.  0.
         23    2    4    4    0    0 -0.37645117192E+03  0.35077350853E+03  0.15378333981E+03  0.54448289306E+03  0.89748348787E+02 0.  0.
         23    2    4    4    0    0  0.13133304558E+03  0.19480485362E+03 -0.16827241049E+03  0.30290418245E+03  0.90763647780E+02 0.  0.
          3    1    3    3  502    0  0.11515126117E+02 -0.62149953548E+02  0.72124064671E+02  0.95901488832E+02  0.00000000000E+00 0. -1.
         -3    1    3    3    0  502  0.23360300022E+03 -0.48342840860E+03  0.31749161661E+03  0.62375821804E+03  0.00000000000E+00 0.  1.
         13    1    5    5    0    0 -0.32308829766E+03  0.32448073516E+03  0.15910696475E+03  0.48475645617E+03  0.00000000000E+00 0. -1.
        -13    1    5    5    0    0 -0.53362874257E+02  0.26292773370E+02 -0.53236249370E+01  0.59726436885E+02  0.00000000000E+00 0.  1.
          2    1    6    6  503    0  0.66414110005E+02  0.13817610686E+03 -0.60214987288E+02  0.16470979087E+03  0.00000000000E+00 0. -1.
         -2    1    6    6    0  503  0.64918935579E+02  0.56628746769E+02 -0.10805742320E+03  0.13819439158E+03  0.00000000000E+00 0.  1.
<mgrwt>
<rscale>  0 0.67848209E+03</rscale>
<asrwt>0</asrwt>
<pdfrwt beam="1">  1        2 0.14939795E+00 0.67848209E+03</pdfrwt>
<pdfrwt beam="2">  1       -2 0.91686167E-01 0.67848209E+03</pdfrwt>
<totfact> 0.27247247E+01</totfact>
</mgrwt>
</event>
<event>
12    1  0.1335216E-007  0.5467857E+03  0.7818608E-02  0.1002241E+00
          2   -1    0    0  501    0  0.00000000000E+00  0.00000000000E+00  0.59583623401E+03  0.59583623401E+03  0.00000000000E+00 0. -1.
         -2   -1    0    0    0  501 -0.00000000000E+00 -0.00000000000E+00 -0.76580913789E+03  0.76580913789E+03  0.00000000000E+00 0.  1.
         23    2    1    2    0    0 -0.25015573602E+03 -0.41158407637E+03  0.17223675383E+03  0.51958739012E+03  0.91248081745E+02 0.  0.
    5000000    2    1    2    0    0  0.25015573602E+03  0.41158407637E+03 -0.34220965771E+03  0.84205798179E+03  0.59997904186E+03 0.  0.
         23    2    4    4    0    0 -0.65059811575E+02  0.18223599467E+03  0.10826145691E+03  0.23943551007E+03  0.90366385314E+02 0.  0.
         23    2    4    4    0    0  0.31521554759E+03  0.22934808170E+03 -0.45047111462E+03  0.60262247171E+03  0.90929831633E+02 0.  0.
          1    1    3    3  502    0 -0.71309558743E+02 -0.87264526714E+02  0.79125358972E+02  0.13769884975E+03  0.00000000000E+00 0. -1.
         -1    1    3    3    0  502 -0.17884617728E+03 -0.32431954965E+03  0.93111394858E+02  0.38188854037E+03  0.00000000000E+00 0.  1.
         13    1    5    5    0    0 -0.85112178265E+02  0.14583695708E+03  0.69475495998E+02  0.18259065004E+03  0.00000000000E+00 0.  1.
        -13    1    5    5    0    0  0.20052366691E+02  0.36399037588E+02  0.38785960915E+02  0.56844860026E+02  0.00000000000E+00 0. -1.
          2    1    6    6  503    0  0.13957481274E+03  0.47898077608E+02 -0.15730001485E+03  0.21568182321E+03  0.00000000000E+00 0. -1.
         -2    1    6    6    0  503  0.17564073485E+03  0.18145000409E+03 -0.29317109977E+03  0.38694064850E+03  0.00000000000E+00 0.  1.
<mgrwt>
<rscale>  0 0.54678569E+03</rscale>
<asrwt>0</asrwt>
<pdfrwt beam="1">  1        2 0.91667113E-01 0.54678569E+03</pdfrwt>
<pdfrwt beam="2">  1       -2 0.11781679E+00 0.54678569E+03</pdfrwt>
<totfact> 0.28705427E+01</totfact>
</mgrwt>
</event>
<event>
12    1  0.1335216E-007  0.9770020E+03  0.7818608E-02  0.9334135E-01
         -2   -1    0    0    0  501 -0.00000000000E+00  0.00000000000E+00  0.19813199103E+04  0.19813199103E+04  0.00000000000E+00 0.  1.
          2   -1    0    0  501    0  0.00000000000E+00 -0.00000000000E+00 -0.51857978813E+03  0.51857978813E+03  0.00000000000E+00 0. -1.
         23    2    1    2    0    0 -0.39523637142E+03  0.79389517074E+03  0.97842816142E+03  0.13236784730E+04  0.91223359768E+02 0.  0.
    5000000    2    1    2    0    0  0.39523637142E+03 -0.79389517074E+03  0.48431196075E+03  0.11762212254E+04  0.60204398879E+03 0.  0.
         23    2    4    4    0    0  0.16158774412E+03 -0.79310651165E+03  0.31579458101E+03  0.87345120676E+03  0.89790062511E+02 0.  0.
         23    2    4    4    0    0  0.23364862730E+03 -0.78865909004E+00  0.16851737974E+03  0.30277001868E+03  0.93162620808E+02 0.  0.
          1    1    3    3  502    0 -0.67931561917E+02  0.21029431464E+03  0.21158180611E+03  0.30594976148E+03  0.00000000000E+00 0. -1.
         -1    1    3    3    0  502 -0.32730480950E+03  0.58360085610E+03  0.76684635531E+03  0.10177287115E+04  0.00000000000E+00 0.  1.
         13    1    5    5    0    0  0.98844968462E+02 -0.65207317208E+03  0.24399222548E+03  0.70320833018E+03  0.00000000000E+00 0. -1.
        -13    1    5    5    0    0  0.62742775658E+02 -0.14103333957E+03  0.71802355531E+02  0.17024287658E+03  0.00000000000E+00 0.  1.
          1    1    6    6  503    0  0.17720943371E+03  0.38370560857E+02  0.10685378794E+03  0.21045953372E+03  0.00000000000E+00 0. -1.
         -1    1    6    6    0  503  0.56439193583E+02 -0.39159219947E+02  0.61663591806E+02  0.92310484960E+02  0.00000000000E+00 0.  1.
<mgrwt>
<rscale>  0 0.97700198E+03</rscale>
<asrwt>0</asrwt>
<pdfrwt beam="1">  1        2 0.79781507E-01 0.97700198E+03</pdfrwt>
<pdfrwt beam="2">  1       -2 0.30481844E+00 0.97700198E+03</pdfrwt>
<totfact> 0.17704855E+00</totfact>
</mgrwt>
</event>
<event>
12    1  0.1335216E-007  0.6996267E+03  0.7818608E-02  0.9717871E-01
          2   -1    0    0  501    0  0.00000000000E+00  0.00000000000E+00  0.23898910376E+04  0.23898910376E+04  0.00000000000E+00 0. -1.
         -2   -1    0    0    0  501 -0.00000000000E+00 -0.00000000000E+00 -0.28623865709E+03  0.28623865709E+03  0.00000000000E+00 0.  1.
         23    2    1    2    0    0 -0.53310055037E+03  0.43161129857E+03  0.59148763211E+03  0.91056034863E+03  0.93691086561E+02 0.  0.
    5000000    2    1    2    0    0  0.53310055037E+03 -0.43161129857E+03  0.15121647484E+04  0.17655693461E+04  0.60009030953E+03 0.  0.
         23    2    4    4    0    0  0.10782014220E+03 -0.11570317277E+03  0.21748752511E+02  0.18103870269E+03  0.85379133183E+02 0.  0.
         23    2    4    4    0    0  0.42528040817E+03 -0.31590812580E+03  0.14904159959E+04  0.15845306434E+04  0.93467371106E+02 0.  0.
          1    1    3    3  502    0 -0.98690920275E+02  0.12863930481E+03  0.15391276799E+03  0.22355560525E+03  0.00000000000E+00 0. -1.
         -1    1    3    3    0  502 -0.43440963009E+03  0.30297199376E+03  0.43757486412E+03  0.68700474338E+03  0.00000000000E+00 0.  1.
         11    1    5    5    0    0  0.17370996025E+02  0.11416225917E+02  0.13542644176E+02  0.24808968709E+02  0.00000000000E+00 0.  1.
        -11    1    5    5    0    0  0.90449146176E+02 -0.12711939868E+03  0.82061083354E+01  0.15622973398E+03  0.00000000000E+00 0. -1.
          1    1    6    6  503    0  0.38091944980E+03 -0.29419835392E+03  0.14128015594E+04  0.14925349393E+04  0.00000000000E+00 0. -1.
         -1    1    6    6    0  503  0.44360958365E+02 -0.21709771879E+02  0.77614436486E+02  0.91995704102E+02  0.00000000000E+00 0.  1.
<mgrwt>
<rscale>  0 0.69962670E+03</rscale>
<asrwt>0</asrwt>
<pdfrwt beam="1">  1        2 0.36767553E+00 0.69962670E+03</pdfrwt>
<pdfrwt beam="2">  1       -2 0.44036718E-01 0.69962670E+03</pdfrwt>
<totfact> 0.20707909E+01</totfact>
</mgrwt>
</event>
<event>
12    1  0.1335216E-007  0.4894310E+03  0.7818608E-02  0.1016575E+00
          1   -1    0    0  501    0  0.00000000000E+00  0.00000000000E+00  0.29601264626E+04  0.29601264626E+04  0.00000000000E+00 0. -1.
         -1   -1    0    0    0  501 -0.00000000000E+00 -0.00000000000E+00 -0.13837202434E+03  0.13837202434E+03  0.00000000000E+00 0.  1.
         23    2    1    2    0    0 -0.28815135813E+03 -0.36410073647E+03  0.69798354256E+03  0.84330874189E+03  0.91586336197E+02 0.  0.
    5000000    2    1    2    0    0  0.28815135813E+03  0.36410073647E+03  0.21237708957E+04  0.22551897451E+04  0.59989783902E+03 0.  0.
         23    2    4    4    0    0  0.16547261765E+03  0.10695598451E+03  0.16175642605E+03  0.27059356039E+03  0.90746700997E+02 0.  0.
         23    2    4    4    0    0  0.12267874048E+03  0.25714475197E+03  0.19620144697E+04  0.19845961847E+04  0.89150099430E+02 0.  0.
          3    1    3    3  502    0 -0.72589263938E+02 -0.15504648351E+03  0.21889153847E+03  0.27788868077E+03  0.00000000000E+00 0. -1.
         -3    1    3    3    0  502 -0.21556209419E+03 -0.20905425296E+03  0.47909200409E+03  0.56542006112E+03  0.00000000000E+00 0.  1.
         11    1    5    5    0    0  0.88774454491E+02  0.15699071330E+02  0.35325602059E+02  0.96825940592E+02  0.00000000000E+00 0.  1.
        -11    1    5    5    0    0  0.76698163156E+02  0.91256913176E+02  0.12643082399E+03  0.17376761979E+03  0.00000000000E+00 0. -1.
          3    1    6    6  503    0  0.16239414064E+02  0.13513832597E+03  0.83855007565E+03  0.84952475837E+03  0.00000000000E+00 0. -1.
         -3    1    6    6    0  503  0.10643932642E+03  0.12200642600E+03  0.11234643940E+04  0.11350714263E+04  0.00000000000E+00 0.  1.
<mgrwt>
<rscale>  0 0.48943104E+03</rscale>
<asrwt>0</asrwt>
<pdfrwt beam="1">  1        1 0.45540403E+00 0.48943104E+03</pdfrwt>
<pdfrwt beam="2">  1       -1 0.21288006E-01 0.48943104E+03</pdfrwt>
<totfact> 0.13138732E+01</totfact>
</mgrwt>
</event>
<event>
12    1  0.1335216E-007  0.5763233E+03  0.7818608E-02  0.9955783E-01
         -2   -1    0    0    0  501 -0.00000000000E+00  0.00000000000E+00  0.14552400727E+04  0.14552400727E+04  0.00000000000E+00 0.  1.
          2   -1    0    0  501    0  0.00000000000E+00 -0.00000000000E+00 -0.96262101879E+03  0.96262101879E+03  0.00000000000E+00 0. -1.
         23    2    1    2    0    0 -0.28380813155E+03  0.43897538260E+03  0.12259079190E+04  0.13357598037E+04  0.90319350932E+02 0.  0.
    5000000    2    1    2    0    0  0.28380813155E+03 -0.43897538260E+03 -0.73328886504E+03  0.10821012879E+04  0.59998682950E+03 0.  0.
         23    2    4    4    0    0  0.97698541554E+02 -0.41531714670E+03 -0.15183326649E+03  0.46270705290E+03  0.94927017363E+02 0.  0.
         23    2    4    4    0    0  0.18610959000E+03 -0.23658235900E+02 -0.58145559855E+03  0.61939423497E+03  0.10179446756E+03 0.  0.
          2    1    3    3  502    0 -0.15676513481E+03  0.29865015127E+03  0.86024560415E+03  0.92400742411E+03  0.00000000000E+00 0. -1.
         -2    1    3    3    0  502 -0.12704299674E+03  0.14032523134E+03  0.36566231483E+03  0.41175237954E+03  0.00000000000E+00 0.  1.
         11    1    5    5    0    0 -0.57370724640E+01 -0.15351382610E+03 -0.32828197995E+02  0.15708946301E+03  0.00000000000E+00 0. -1.
        -11    1    5    5    0    0  0.10343561402E+03 -0.26180332061E+03 -0.11900506850E+03  0.30561758990E+03  0.00000000000E+00 0.  1.
          2    1    6    6  503    0  0.26016478864E+01 -0.60600868777E+01 -0.15075164001E+03  0.15089582562E+03  0.00000000000E+00 0. -1.
         -2    1    6    6    0  503  0.18350794211E+03 -0.17598149022E+02 -0.43070395854E+03  0.46849840935E+03  0.00000000000E+00 0.  1.
<mgrwt>
<rscale>  0 0.57632330E+03</rscale>
<asrwt>0</asrwt>
<pdfrwt beam="1">  1        2 0.14809554E+00 0.57632330E+03</pdfrwt>
<pdfrwt beam="2">  1       -2 0.22388309E+00 0.57632330E+03</pdfrwt>
<totfact> 0.26382721E+00</totfact>
</mgrwt>
</event>
<event>
12    1  0.1335216E-007  0.1223845E+04  0.7818608E-02  0.9092237E-01
         -2   -1    0    0    0  501 -0.00000000000E+00  0.00000000000E+00  0.55389650032E+03  0.55389650032E+03  0.00000000000E+00 0.  1.
          2   -1    0    0  501    0  0.00000000000E+00 -0.00000000000E+00 -0.31140026201E+04  0.31140026201E+04  0.00000000000E+00 0. -1.
         23    2    1    2    0    0 -0.86595508301E+03 -0.84039322115E+03 -0.79847269080E+03  0.14499117693E+04  0.92447439171E+02 0.  0.
    5000000    2    1    2    0    0  0.86595508301E+03  0.84039322115E+03 -0.17616334290E+04  0.22179873511E+04  0.59998048260E+03 0.  0.
         23    2    4    4    0    0  0.53892065373E+03  0.69418404407E+03 -0.81371557547E+03  0.12010771264E+04  0.90145813391E+02 0.  0.
         23    2    4    4    0    0  0.32703442927E+03  0.14620917708E+03 -0.94791785351E+03  0.10169102247E+04  0.85026505963E+02 0.  0.
          2    1    3    3  502    0 -0.28989271111E+03 -0.31444195433E+03 -0.23856082020E+03  0.48971705252E+03  0.00000000000E+00 0.  1.
         -2    1    3    3    0  502 -0.57606237190E+03 -0.52595126682E+03 -0.55991187060E+03  0.96019471683E+03  0.00000000000E+00 0. -1.
         13    1    5    5    0    0  0.39794155656E+03  0.54175188787E+03 -0.57386124612E+03  0.88383783594E+03  0.00000000000E+00 0. -1.
        -13    1    5    5    0    0  0.14097909717E+03  0.15243215620E+03 -0.23985432936E+03  0.31723929043E+03  0.00000000000E+00 0.  1.
          1    1    6    6  503    0  0.14069103631E+03  0.83052357940E+02 -0.32661575536E+03  0.36519791005E+03  0.00000000000E+00 0. -1.
         -1    1    6    6    0  503  0.18634339296E+03  0.63156819138E+02 -0.62130209815E+03  0.65171231465E+03  0.00000000000E+00 0.  1.
<mgrwt>
<rscale>  0 0.12238451E+04</rscale>
<asrwt>0</asrwt>
<pdfrwt beam="1">  1        2 0.47907732E+00 0.12238451E+04</pdfrwt>
<pdfrwt beam="2">  1       -2 0.85214848E-01 0.12238451E+04</pdfrwt>
<totfact> 0.17512024E+00</totfact>
</mgrwt>
</event>
<event>
12    1  0.1335216E-007  0.2289432E+04  0.7818608E-02  0.8482100E-01
          1   -1    0    0  501    0  0.00000000000E+00  0.00000000000E+00  0.26470761643E+04  0.26470761643E+04  0.00000000000E+00 0. -1.
         -1   -1    0    0    0  501 -0.00000000000E+00 -0.00000000000E+00 -0.21286621734E+04  0.21286621734E+04  0.00000000000E+00 0.  1.
         23    2    1    2    0    0  0.99327040398E+03 -0.20313517437E+04 -0.33055569587E+03  0.22869508458E+04  0.88888136091E+02 0.  0.
    5000000    2    1    2    0    0 -0.99327040398E+03  0.20313517437E+04  0.84896968685E+03  0.24887874919E+04  0.60028130792E+03 0.  0.
         23    2    4    4    0    0 -0.35203167388E+03  0.27887869690E+03  0.62686197423E+02  0.46179280301E+03  0.87312121536E+02 0.  0.
         23    2    4    4    0    0 -0.64123873010E+03  0.17524730468E+04  0.78628348943E+03  0.20269946889E+04  0.90093586537E+02 0.  0.
          3    1    3    3  502    0  0.58335417160E+03 -0.11639417090E+04 -0.14780009455E+03  0.13103080781E+04  0.00000000000E+00 0. -1.
         -3    1    3    3    0  502  0.40991623238E+03 -0.86741003470E+03 -0.18275560133E+03  0.97664276769E+03  0.00000000000E+00 0.  1.
         11    1    5    5    0    0 -0.21358997895E+03  0.14978705831E+03  0.76885091815E+02  0.27197087949E+03  0.00000000000E+00 0. -1.
        -11    1    5    5    0    0 -0.13844169492E+03  0.12909163859E+03 -0.14198894392E+02  0.18982192352E+03  0.00000000000E+00 0.  1.
          3    1    6    6  503    0 -0.48267645158E+03  0.13998096540E+04  0.64900653600E+03  0.16166796554E+04  0.00000000000E+00 0. -1.
         -3    1    6    6    0  503 -0.15856227852E+03  0.35266339280E+03  0.13727695343E+03  0.41031503352E+03  0.00000000000E+00 0.  1.
<mgrwt>
<rscale>  0 0.22894320E+04</rscale>
<asrwt>0</asrwt>
<pdfrwt beam="1">  1        1 0.40724249E+00 0.22894320E+04</pdfrwt>
<pdfrwt beam="2">  1       -1 0.32748649E+00 0.22894320E+04</pdfrwt>
<totfact> 0.20101926E-02</totfact>
</mgrwt>
</event>
<event>
12    1  0.1335216E-007  0.6016412E+03  0.7818608E-02  0.9902007E-01
          2   -1    0    0  501    0  0.00000000000E+00  0.00000000000E+00  0.20120235285E+04  0.20120235285E+04  0.00000000000E+00 0.  1.
         -2   -1    0    0    0  501 -0.00000000000E+00 -0.00000000000E+00 -0.23424899430E+03  0.23424899430E+03  0.00000000000E+00 0. -1.
         23    2    1    2    0    0 -0.32417646039E+03 -0.41747742835E+03  0.97784468635E+03  0.11152668436E+04  0.90896210897E+02 0.  0.
    5000000    2    1    2    0    0  0.32417646039E+03  0.41747742835E+03  0.79992984783E+03  0.11310056792E+04  0.59992358201E+03 0.  0.
         23    2    4    4    0    0  0.20703495933E+03 -0.12587728040E+02  0.19208423287E+02  0.22726606582E+03  0.90878907703E+02 0.  0.
         23    2    4    4    0    0  0.11714150105E+03  0.43006515639E+03  0.78072142454E+03  0.90373961336E+03  0.92418483089E+02 0.  0.
          1    1    3    3  502    0 -0.22408626512E+03 -0.34960330143E+03  0.76749261806E+03  0.87262938374E+03  0.00000000000E+00 0. -1.
         -1    1    3    3    0  502 -0.10009019526E+03 -0.67874126919E+02  0.21035206829E+03  0.24263745986E+03  0.00000000000E+00 0.  1.
         13    1    5    5    0    0  0.55776027837E+01 -0.15326496144E+02 -0.15872846842E+02  0.22758699517E+02  0.00000000000E+00 0.  1.
        -13    1    5    5    0    0  0.20145735655E+03  0.27387681038E+01  0.35081270129E+02  0.20450736630E+03  0.00000000000E+00 0. -1.
          4    1    6    6  503    0  0.11307934047E+03  0.32402678953E+03  0.52908597810E+03  0.63064432908E+03  0.00000000000E+00 0. -1.
         -4    1    6    6    0  503  0.40621605881E+01  0.10603836686E+03  0.25163544644E+03  0.27309528429E+03  0.00000000000E+00 0.  1.
<mgrwt>
<rscale>  0 0.60164122E+03</rscale>
<asrwt>0</asrwt>
<pdfrwt beam="1">  1        2 0.30954207E+00 0.60164122E+03</pdfrwt>
<pdfrwt beam="2">  1       -2 0.36038308E-01 0.60164122E+03</pdfrwt>
<totfact> 0.50077916E+01</totfact>
</mgrwt>
</event>
<event>
12    1  0.1335216E-007  0.1028681E+04  0.7818608E-02  0.9277635E-01
          1   -1    0    0  501    0  0.00000000000E+00  0.00000000000E+00  0.82904999893E+03  0.82904999893E+03  0.00000000000E+00 0. -1.
         -1   -1    0    0    0  501 -0.00000000000E+00 -0.00000000000E+00 -0.16429926814E+04  0.16429926814E+04  0.00000000000E+00 0.  1.
         23    2    1    2    0    0  0.46732212319E+03  0.88535013130E+03  0.70098084253E+02  0.10078976615E+04  0.93322735179E+02 0.  0.
    5000000    2    1    2    0    0 -0.46732212319E+03 -0.88535013130E+03 -0.88404076671E+03  0.14641450188E+04  0.59996477980E+03 0.  0.
         23    2    4    4    0    0 -0.50063107389E+03 -0.75484839877E+03 -0.48119557322E+03  0.10297982363E+04  0.92236926050E+02 0.  0.
         23    2    4    4    0    0  0.33308950700E+02 -0.13050173253E+03 -0.40284519349E+03  0.43434678249E+03  0.90734167464E+02 0.  0.
          1    1    3    3  502    0  0.18648692262E+03  0.38384792047E+03 -0.14092209342E+02  0.42698382723E+03  0.00000000000E+00 0. -1.
         -1    1    3    3    0  502  0.28083520057E+03  0.50150221083E+03  0.84190293596E+02  0.58091383430E+03  0.00000000000E+00 0.  1.
         11    1    5    5    0    0 -0.26673640088E+03 -0.32548161345E+03 -0.24276836279E+03  0.48582205201E+03  0.00000000000E+00 0.  1.
        -11    1    5    5    0    0 -0.23389467301E+03 -0.42936678532E+03 -0.23842721043E+03  0.54397618429E+03  0.00000000000E+00 0. -1.
          2    1    6    6  503    0  0.49423270574E+02 -0.95034959032E+02 -0.36359757219E+03  0.37904814683E+03  0.00000000000E+00 0.  1.
         -2    1    6    6    0  503 -0.16114319874E+02 -0.35466773498E+02 -0.39247621298E+02  0.55298635652E+02  0.00000000000E+00 0. -1.
<mgrwt>
<rscale>  0 0.10286814E+04</rscale>
<asrwt>0</asrwt>
<pdfrwt beam="1">  1        1 0.12754616E+00 0.10286814E+04</pdfrwt>
<pdfrwt beam="2">  1       -1 0.25276810E+00 0.10286814E+04</pdfrwt>
<totfact> 0.14015967E+00</totfact>
</mgrwt>
</event>
<event>
12    1  0.1335216E-007  0.7576316E+03  0.7818608E-02  0.9623453E-01
          1   -1    0    0  501    0  0.00000000000E+00  0.00000000000E+00  0.17643428065E+04  0.17643428065E+04  0.00000000000E+00 0. -1.
         -1   -1    0    0    0  501 -0.00000000000E+00 -0.00000000000E+00 -0.84920391548E+03  0.84920391548E+03  0.00000000000E+00 0.  1.
         23    2    1    2    0    0  0.67273940057E+03 -0.26263083854E+03 -0.52319086550E+03  0.89590117976E+03  0.85772861215E+02 0.  0.
    5000000    2    1    2    0    0 -0.67273940057E+03  0.26263083854E+03  0.14383297565E+04  0.17176455422E+04  0.59996705058E+03 0.  0.
         23    2    4    4    0    0 -0.61589086695E+03  0.28788100287E+03  0.14518094684E+04  0.16057079675E+04  0.91380044153E+02 0.  0.
         23    2    4    4    0    0 -0.56848533616E+02 -0.25250164330E+02 -0.13479711899E+02  0.11193757473E+03  0.92081439117E+02 0.  0.
          2    1    3    3  502    0  0.59730625301E+03 -0.25080418133E+03 -0.44080046668E+03  0.78357038528E+03  0.00000000000E+00 0. -1.
         -2    1    3    3    0  502  0.75433147556E+02 -0.11826657209E+02 -0.82390398815E+02  0.11233079448E+03  0.00000000000E+00 0.  1.
         11    1    5    5    0    0 -0.35715403565E+03  0.21573951083E+03  0.86962798807E+03  0.96454931411E+03  0.00000000000E+00 0.  1.
        -11    1    5    5    0    0 -0.25873683130E+03  0.72141492034E+02  0.58218148033E+03  0.64115865336E+03  0.00000000000E+00 0. -1.
          4    1    6    6  503    0 -0.17262130453E+02 -0.53743031859E+02  0.10773307302E+02  0.57466153268E+02  0.00000000000E+00 0. -1.
         -4    1    6    6    0  503 -0.39586403163E+02  0.28492867529E+02 -0.24253019201E+02  0.54471421459E+02  0.00000000000E+00 0.  1.
<mgrwt>
<rscale>  0 0.75763162E+03</rscale>
<asrwt>0</asrwt>
<pdfrwt beam="1">  1        1 0.27143735E+00 0.75763162E+03</pdfrwt>
<pdfrwt beam="2">  1       -1 0.13064676E+00 0.75763162E+03</pdfrwt>
<totfact> 0.22622363E+00</totfact>
</mgrwt>
</event>
<event>
12    1  0.1335216E-007  0.4899368E+03  0.7818608E-02  0.1016439E+00
         -2   -1    0    0    0  501 -0.00000000000E+00  0.00000000000E+00  0.74103222563E+03  0.74103222563E+03  0.00000000000E+00 0.  1.
          2   -1    0    0  501    0  0.00000000000E+00 -0.00000000000E+00 -0.49008402996E+03  0.49008402996E+03  0.00000000000E+00 0. -1.
         23    2    1    2    0    0 -0.34836232727E+03  0.13228612132E+02  0.38196518094E+03  0.52498354587E+03  0.90437916534E+02 0.  0.
    5000000    2    1    2    0    0  0.34836232727E+03 -0.13228612132E+02 -0.13101698527E+03  0.70613270972E+03  0.59993886861E+03 0.  0.
         23    2    4    4    0    0  0.10584977242E+03 -0.25026227167E+03  0.77836260734E+02  0.29741355143E+03  0.92525445934E+02 0.  0.
         23    2    4    4    0    0  0.24251255485E+03  0.23703365954E+03 -0.20885324600E+03  0.40871915829E+03  0.91838864159E+02 0.  0.
          4    1    3    3  502    0 -0.35300416259E+02 -0.18261794669E+02  0.17316455646E+02  0.43352879590E+02  0.00000000000E+00 0. -1.
         -4    1    3    3    0  502 -0.31306191101E+03  0.31490406801E+02  0.36464872529E+03  0.48163066628E+03  0.00000000000E+00 0.  1.
         11    1    5    5    0    0  0.75142679843E+02 -0.81975023043E+02  0.45122734794E+01  0.11129549564E+03  0.00000000000E+00 0. -1.
        -11    1    5    5    0    0  0.30707092578E+02 -0.16828724863E+03  0.73323987254E+02  0.18611805580E+03  0.00000000000E+00 0.  1.
          4    1    6    6  503    0  0.96077857869E+02  0.59196705355E+02 -0.29159899819E+02  0.11655687219E+03  0.00000000000E+00 0. -1.
         -4    1    6    6    0  503  0.14643469698E+03  0.17783695419E+03 -0.17969334619E+03  0.29216228610E+03  0.00000000000E+00 0.  1.
<mgrwt>
<rscale>  0 0.48993678E+03</rscale>
<asrwt>0</asrwt>
<pdfrwt beam="1">  1        2 0.75397543E-01 0.48993678E+03</pdfrwt>
<pdfrwt beam="2">  1       -2 0.11400496E+00 0.48993678E+03</pdfrwt>
<totfact> 0.39301186E+01</totfact>
</mgrwt>
</event>
<event>
12    1  0.1335216E-007  0.1065647E+04  0.7818608E-02  0.9239337E-01
          1   -1    0    0  501    0  0.00000000000E+00  0.00000000000E+00  0.12470111986E+04  0.12470111986E+04  0.00000000000E+00 0. -1.
         -1   -1    0    0    0  501 -0.00000000000E+00 -0.00000000000E+00 -0.14390282795E+04  0.14390282795E+04  0.00000000000E+00 0.  1.
         23    2    1    2    0    0 -0.10341252717E+04  0.18720917967E+03  0.62508892953E+03  0.12260460336E+04  0.89388770110E+02 0.  0.
    5000000    2    1    2    0    0  0.10341252717E+04 -0.18720917967E+03 -0.81710601043E+03  0.14599934445E+04  0.59954672142E+03 0.  0.
         23    2    4    4    0    0  0.28969834863E+03 -0.13068995533E+03  0.24702298542E+02  0.33096709905E+03  0.89016961726E+02 0.  0.
         23    2    4    4    0    0  0.74442692306E+03 -0.56519224343E+02 -0.84180830897E+03  0.11290263454E+04  0.93238367388E+02 0.  0.
          1    1    3    3  502    0 -0.48613798562E+03  0.55202012984E+02  0.32628130625E+03  0.58807898628E+03  0.00000000000E+00 0. -1.
         -1    1    3    3    0  502 -0.54798728607E+03  0.13200716669E+03  0.29880762328E+03  0.63796704733E+03  0.00000000000E+00 0.  1.
         11    1    5    5    0    0  0.13374241677E+03 -0.10899928032E+03  0.99482199496E+01  0.17282026569E+03  0.00000000000E+00 0.  1.
        -11    1    5    5    0    0  0.15595593186E+03 -0.21690675010E+02  0.14754078592E+02  0.15814683336E+03  0.00000000000E+00 0. -1.
          4    1    6    6  503    0  0.29585524023E+03 -0.48017216336E+02 -0.28111672276E+03  0.41092893309E+03  0.00000000000E+00 0. -1.
         -4    1    6    6    0  503  0.44857168283E+03 -0.85020080068E+01 -0.56069158621E+03  0.71809741235E+03  0.00000000000E+00 0.  1.
<mgrwt>
<rscale>  0 0.10656473E+04</rscale>
<asrwt>0</asrwt>
<pdfrwt beam="1">  1        1 0.19184788E+00 0.10656473E+04</pdfrwt>
<pdfrwt beam="2">  1       -1 0.22138897E+00 0.10656473E+04</pdfrwt>
<totfact> 0.10610150E+00</totfact>
</mgrwt>
</event>
<event>
12    1  0.1335216E-007  0.9030147E+03  0.7818608E-02  0.9421821E-01
          2   -1    0    0  501    0  0.00000000000E+00  0.00000000000E+00  0.32573293236E+04  0.32573293236E+04  0.00000000000E+00 0. -1.
         -2   -1    0    0    0  501 -0.00000000000E+00 -0.00000000000E+00 -0.25471655601E+03  0.25471655601E+03  0.00000000000E+00 0.  1.
         23    2    1    2    0    0  0.92514403679E+02 -0.80356361683E+03  0.12881333397E+04  0.15236487535E+04  0.89132608892E+02 0.  0.
    5000000    2    1    2    0    0 -0.92514403679E+02  0.80356361683E+03  0.17144794278E+04  0.19883971261E+04  0.60000835106E+03 0.  0.
         23    2    4    4    0    0 -0.27633506142E+03  0.73034913533E+03  0.12780563420E+04  0.15004556104E+04  0.90377539361E+02 0.  0.
         23    2    4    4    0    0  0.18382065775E+03  0.73214481495E+02  0.43642308577E+03  0.48794151568E+03  0.92040308654E+02 0.  0.
          2    1    3    3  502    0 -0.56967866908E+01 -0.16469264572E+02  0.12242585028E+02  0.21297205035E+02  0.00000000000E+00 0. -1.
         -2    1    3    3    0  502  0.98211190369E+02 -0.78709435226E+03  0.12758907547E+04  0.15023515485E+04  0.00000000000E+00 0.  1.
         11    1    5    5    0    0 -0.18964624435E+03  0.50376288926E+03  0.95769635958E+03  0.10986014126E+04  0.00000000000E+00 0.  1.
        -11    1    5    5    0    0 -0.86688817077E+02  0.22658624607E+03  0.32035998246E+03  0.40185419779E+03  0.00000000000E+00 0. -1.
          4    1    6    6  503    0  0.17518981132E+03  0.89024475288E+02  0.41940964689E+03  0.46316441907E+03  0.00000000000E+00 0. -1.
         -4    1    6    6    0  503  0.86308464232E+01 -0.15809993793E+02  0.17013438878E+02  0.24777096605E+02  0.00000000000E+00 0.  1.
<mgrwt>
<rscale>  0 0.90301470E+03</rscale>
<asrwt>0</asrwt>
<pdfrwt beam="1">  1        2 0.50112756E+00 0.90301470E+03</pdfrwt>
<pdfrwt beam="2">  1       -2 0.39187165E-01 0.90301470E+03</pdfrwt>
<totfact> 0.76478777E+00</totfact>
</mgrwt>
</event>
<event>
12    1  0.2057217E-007  0.8911970E+03  0.7818608E-02  0.9436653E-01
          1   -1    0    0  501    0  0.00000000000E+00  0.00000000000E+00  0.99745920056E+03  0.99745920056E+03  0.00000000000E+00 0. -1.
         -1   -1    0    0    0  501 -0.00000000000E+00 -0.00000000000E+00 -0.82657729169E+03  0.82657729169E+03  0.00000000000E+00 0.  1.
         23    2    1    2    0    0  0.65147433103E+03  0.46863660184E+03  0.14459842052E+01  0.80777985420E+03  0.92017027756E+02 0.  0.
    5000000    2    1    2    0    0 -0.65147433103E+03 -0.46863660184E+03  0.16943592467E+03  0.10162566381E+04  0.60002496051E+03 0.  0.
         23    2    4    4    0    0 -0.74091266761E+03 -0.39795084013E+03  0.19399403206E+03  0.86814724343E+03  0.93431791184E+02 0.  0.
         23    2    4    4    0    0  0.89438336579E+02 -0.70685761717E+02 -0.24558107393E+02  0.14810939463E+03  0.91310454923E+02 0.  0.
          1    1    3    3  502    0  0.25421072492E+03  0.17869476636E+03  0.45271439441E+02  0.31401340007E+03  0.00000000000E+00 0. -1.
         -1    1    3    3    0  502  0.39726360611E+03  0.28994183548E+03 -0.43825455235E+02  0.49376645413E+03  0.00000000000E+00 0.  1.
         11    1    5    5    0    0 -0.30167023317E+03 -0.19441998542E+03  0.45422136277E+02  0.36175576122E+03  0.00000000000E+00 0.  1.
        -11    1    5    5    0    0 -0.43924243444E+03 -0.20353085471E+03  0.14857189578E+03  0.50639148221E+03  0.00000000000E+00 0. -1.
          3    1    6    6  503    0  0.67911141591E+02 -0.86615423373E+02  0.24274002812E+01  0.11009108497E+03  0.00000000000E+00 0. -1.
         -3    1    6    6    0  503  0.21527194989E+02  0.15929661656E+02 -0.26985507674E+02  0.38018309654E+02  0.00000000000E+00 0.  1.
<mgrwt>
<rscale>  0 0.89119696E+03</rscale>
<asrwt>0</asrwt>
<pdfrwt beam="1">  1        1 0.15345526E+00 0.89119696E+03</pdfrwt>
<pdfrwt beam="2">  1       -1 0.12716574E+00 0.89119696E+03</pdfrwt>
<totfact> 0.82689163E+00</totfact>
</mgrwt>
</event>
<event>
12    1  0.1335216E-007  0.4549318E+03  0.7818608E-02  0.1026261E+00
         -1   -1    0    0    0  501 -0.00000000000E+00  0.00000000000E+00  0.53847335495E+03  0.53847335495E+03  0.00000000000E+00 0.  1.
          1   -1    0    0  501    0  0.00000000000E+00 -0.00000000000E+00 -0.51340859129E+03  0.51340859129E+03  0.00000000000E+00 0. -1.
         23    2    1    2    0    0 -0.14360909955E+03 -0.23821044589E+03  0.21559287888E+03  0.36365446323E+03  0.91632358906E+02 0.  0.
    5000000    2    1    2    0    0  0.14360909955E+03  0.23821044589E+03 -0.19052811522E+03  0.68822748302E+03  0.59999026299E+03 0.  0.
         23    2    4    4    0    0 -0.15413768779E+03 -0.82739515479E+02  0.12771622927E+02  0.19709125306E+03  0.89875433029E+02 0.  0.
         23    2    4    4    0    0  0.29774678734E+03  0.32094996136E+03 -0.20329973815E+03  0.49113622996E+03  0.90675166239E+02 0.  0.
          4    1    3    3  502    0 -0.60418105036E+02 -0.74171447839E+02  0.25195911817E+02  0.98927170499E+02  0.00000000000E+00 0. -1.
         -4    1    3    3    0  502 -0.83190994514E+02 -0.16403899805E+03  0.19039696706E+03  0.26472729273E+03  0.00000000000E+00 0.  1.
         13    1    5    5    0    0 -0.16192606337E+03 -0.76239246199E+02  0.25533712926E+02  0.18078839331E+03  0.00000000000E+00 0. -1.
        -13    1    5    5    0    0  0.77883755812E+01 -0.65002692796E+01 -0.12762089999E+02  0.16302859751E+02  0.00000000000E+00 0.  1.
          2    1    6    6  503    0  0.71743087815E+02  0.11407569246E+03 -0.26324533674E+02  0.13730737538E+03  0.00000000000E+00 0. -1.
         -2    1    6    6    0  503  0.22600369953E+03  0.20687426890E+03 -0.17697520447E+03  0.35382885458E+03  0.00000000000E+00 0.  1.
<mgrwt>
<rscale>  0 0.45493178E+03</rscale>
<asrwt>0</asrwt>
<pdfrwt beam="1">  1        1 0.78985937E-01 0.45493178E+03</pdfrwt>
<pdfrwt beam="2">  1       -1 0.82842055E-01 0.45493178E+03</pdfrwt>
<totfact> 0.64975499E+01</totfact>
</mgrwt>
</event>
<event>
12    1  0.1335216E-007  0.9947575E+03  0.7818608E-02  0.9314313E-01
          2   -1    0    0  501    0  0.00000000000E+00  0.00000000000E+00  0.24448419707E+04  0.24448419707E+04  0.00000000000E+00 0. -1.
         -2   -1    0    0    0  501 -0.00000000000E+00 -0.00000000000E+00 -0.41857241530E+03  0.41857241530E+03  0.00000000000E+00 0.  1.
         23    2    1    2    0    0 -0.32417086109E+03 -0.84653244714E+03  0.11504790813E+04  0.14675090748E+04  0.90977121832E+02 0.  0.
    5000000    2    1    2    0    0  0.32417086109E+03  0.84653244714E+03  0.87579047407E+03  0.13959053112E+04  0.59986561179E+03 0.  0.
         23    2    4    4    0    0  0.20004341387E+03 -0.26306638482E+01  0.23022639988E+03  0.31821155685E+03  0.90719964084E+02 0.  0.
         23    2    4    4    0    0  0.12412744722E+03  0.84916311098E+03  0.64556407418E+03  0.10776937544E+04  0.90472328051E+02 0.  0.
          1    1    3    3  502    0 -0.18863128692E+03 -0.60894118559E+03  0.80171551916E+03  0.10242748184E+04  0.00000000000E+00 0. -1.
         -1    1    3    3    0  502 -0.13553957417E+03 -0.23759126155E+03  0.34876356217E+03  0.44323425638E+03  0.00000000000E+00 0.  1.
         13    1    5    5    0    0  0.19013307558E+03 -0.25226878023E+02  0.18386964005E+03  0.26569724563E+03  0.00000000000E+00 0.  1.
        -13    1    5    5    0    0  0.99103382869E+01  0.22596214175E+02  0.46356759836E+02  0.52514311216E+02  0.00000000000E+00 0. -1.
          4    1    6    6  503    0  0.77975631338E+02  0.27036318196E+03  0.23433628506E+03  0.36618293753E+03  0.00000000000E+00 0. -1.
         -4    1    6    6    0  503  0.46151815883E+02  0.57879992902E+03  0.41122778912E+03  0.71151081685E+03  0.00000000000E+00 0.  1.
<mgrwt>
<rscale>  0 0.99475753E+03</rscale>
<asrwt>0</asrwt>
<pdfrwt beam="1">  1        2 0.37612952E+00 0.99475753E+03</pdfrwt>
<pdfrwt beam="2">  1       -2 0.64395758E-01 0.99475753E+03</pdfrwt>
<totfact> 0.84375366E+00</totfact>
</mgrwt>
</event>
<event>
12    1  0.1335216E-007  0.6903256E+03  0.7818608E-02  0.9733921E-01
         -1   -1    0    0    0  501 -0.00000000000E+00  0.00000000000E+00  0.12281170501E+04  0.12281170501E+04  0.00000000000E+00 0.  1.
          1   -1    0    0  501    0  0.00000000000E+00 -0.00000000000E+00 -0.41737241213E+03  0.41737241213E+03  0.00000000000E+00 0. -1.
         23    2    1    2    0    0 -0.96707670903E+02  0.56698350675E+03  0.20653841687E+03  0.61789933438E+03  0.91207451697E+02 0.  0.
    5000000    2    1    2    0    0  0.96707670903E+02 -0.56698350675E+03  0.60420622105E+03  0.10275901278E+04  0.60004470055E+03 0.  0.
         23    2    4    4    0    0 -0.22437841443E+03 -0.21942945309E+03  0.36975509233E+03  0.49360310166E+03  0.91816316174E+02 0.  0.
         23    2    4    4    0    0  0.32108608534E+03 -0.34755405367E+03  0.23445112872E+03  0.53398702615E+03  0.79276212793E+02 0.  0.
          3    1    3    3  502    0 -0.74760464619E+02  0.43326833656E+03  0.19779409532E+03  0.48211314303E+03  0.00000000000E+00 0. -1.
         -3    1    3    3    0  502 -0.21947206284E+02  0.13371517019E+03  0.87443215497E+01  0.13578619135E+03  0.00000000000E+00 0.  1.
         13    1    5    5    0    0 -0.47447615800E+02 -0.37043977823E+01  0.45572432571E+02  0.65892681069E+02  0.00000000000E+00 0. -1.
        -13    1    5    5    0    0 -0.17693079863E+03 -0.21572505530E+03  0.32418265976E+03  0.42771042059E+03  0.00000000000E+00 0.  1.
          1    1    6    6  503    0  0.21143468555E+03 -0.27707913988E+03  0.18485934087E+03  0.39452560362E+03  0.00000000000E+00 0. -1.
         -1    1    6    6    0  503  0.10965139979E+03 -0.70474913792E+02  0.49591787854E+02  0.13946142252E+03  0.00000000000E+00 0.  1.
<mgrwt>
<rscale>  0 0.69032561E+03</rscale>
<asrwt>0</asrwt>
<pdfrwt beam="1">  1        1 0.64211141E-01 0.69032561E+03</pdfrwt>
<pdfrwt beam="2">  1       -1 0.18894108E+00 0.69032561E+03</pdfrwt>
<totfact> 0.10580286E+01</totfact>
</mgrwt>
</event>
<event>
12    1  0.1335216E-007  0.5263710E+03  0.7818608E-02  0.1007116E+00
         -2   -1    0    0    0  501 -0.00000000000E+00  0.00000000000E+00  0.26651684650E+03  0.26651684650E+03  0.00000000000E+00 0.  1.
          2   -1    0    0  501    0  0.00000000000E+00 -0.00000000000E+00 -0.16300779474E+04  0.16300779474E+04  0.00000000000E+00 0. -1.
         23    2    1    2    0    0 -0.22435334701E+03 -0.28448013285E+03 -0.10218912987E+02  0.37252714126E+03  0.86073657368E+02 0.  0.
    5000000    2    1    2    0    0  0.22435334701E+03  0.28448013285E+03 -0.13533421879E+04  0.15240676527E+04  0.59998646814E+03 0.  0.
         23    2    4    4    0    0  0.19453951825E+03  0.45114850367E+03 -0.85912929644E+03  0.99383602194E+03  0.90698919372E+02 0.  0.
         23    2    4    4    0    0  0.29813828758E+02 -0.16666837082E+03 -0.49421289149E+03  0.53023163072E+03  0.90730314030E+02 0.  0.
          2    1    3    3  502    0 -0.20536127454E+03 -0.24877021445E+03  0.18198279635E+02  0.32309603845E+03  0.00000000000E+00 0. -1.
         -2    1    3    3    0  502 -0.18992072465E+02 -0.35709918407E+02 -0.28417192622E+02  0.49431102817E+02  0.00000000000E+00 0.  1.
         11    1    5    5    0    0  0.13460697237E+03  0.20531519038E+03 -0.39065215504E+03  0.46139188403E+03  0.00000000000E+00 0. -1.
        -11    1    5    5    0    0  0.59932545882E+02  0.24583331329E+03 -0.46847714139E+03  0.53244413790E+03  0.00000000000E+00 0.  1.
          3    1    6    6  503    0  0.59857445533E+02 -0.13416058944E+03 -0.40040632715E+03  0.42650580813E+03  0.00000000000E+00 0. -1.
         -3    1    6    6    0  503 -0.30043616776E+02 -0.32507781374E+02 -0.93806564340E+02  0.10372582259E+03  0.00000000000E+00 0.  1.
<mgrwt>
<rscale>  0 0.52637101E+03</rscale>
<asrwt>0</asrwt>
<pdfrwt beam="1">  1        2 0.25078123E+00 0.52637101E+03</pdfrwt>
<pdfrwt beam="2">  1       -2 0.41002591E-01 0.52637101E+03</pdfrwt>
<totfact> 0.63547453E+01</totfact>
</mgrwt>
</event>
<event>
12    1  0.1335216E-007  0.7018546E+03  0.7818608E-02  0.9714066E-01
          2   -1    0    0  501    0  0.00000000000E+00  0.00000000000E+00  0.12730441584E+04  0.12730441584E+04  0.00000000000E+00 0.  1.
         -2   -1    0    0    0  501 -0.00000000000E+00 -0.00000000000E+00 -0.54109893805E+03  0.54109893805E+03  0.00000000000E+00 0. -1.
         23    2    1    2    0    0 -0.59383426800E+03 -0.34091947852E+03  0.55646106022E+03  0.88702174527E+03  0.91068305968E+02 0.  0.
    5000000    2    1    2    0    0  0.59383426800E+03  0.34091947852E+03  0.17548416015E+03  0.92712135120E+03  0.59991172742E+03 0.  0.
         23    2    4    4    0    0  0.29650011606E+03  0.22436950749E+03  0.37862674622E+03  0.53841235436E+03  0.90970630738E+02 0.  0.
         23    2    4    4    0    0  0.29733415194E+03  0.11654997103E+03 -0.20314258607E+03  0.38870899684E+03  0.88522767095E+02 0.  0.
          4    1    3    3  502    0 -0.26576922277E+03 -0.20465586134E+03  0.26301394364E+03  0.42625536466E+03  0.00000000000E+00 0. -1.
         -4    1    3    3    0  502 -0.32806504523E+03 -0.13626361718E+03  0.29344711658E+03  0.46076638061E+03  0.00000000000E+00 0.  1.
         13    1    5    5    0    0  0.73441009820E+02  0.11846763639E+02  0.82385842820E+02  0.11100159832E+03  0.00000000000E+00 0. -1.
        -13    1    5    5    0    0  0.22305910624E+03  0.21252274385E+03  0.29624090340E+03  0.42741075604E+03  0.00000000000E+00 0.  1.
          2    1    6    6  503    0  0.22728875743E+03  0.12599033910E+03 -0.17083954548E+03  0.31099822363E+03  0.00000000000E+00 0. -1.
         -2    1    6    6    0  503  0.70045394513E+02 -0.94403680791E+01 -0.32303040589E+02  0.77710773212E+02  0.00000000000E+00 0.  1.
<mgrwt>
<rscale>  0 0.70185458E+03</rscale>
<asrwt>0</asrwt>
<pdfrwt beam="1">  1        2 0.19585295E+00 0.70185458E+03</pdfrwt>
<pdfrwt beam="2">  1       -2 0.83245991E-01 0.70185458E+03</pdfrwt>
<totfact> 0.22218435E+01</totfact>
</mgrwt>
</event>
<event>
12    1  0.1335216E-007  0.5494775E+03  0.7818608E-02  0.1001615E+00
          2   -1    0    0  501    0  0.00000000000E+00  0.00000000000E+00  0.20177636112E+04  0.20177636112E+04  0.00000000000E+00 0. -1.
         -2   -1    0    0    0  501 -0.00000000000E+00 -0.00000000000E+00 -0.35314714991E+03  0.35314714991E+03  0.00000000000E+00 0.  1.
         23    2    1    2    0    0 -0.34467554392E+02 -0.53497202181E+03  0.14346379337E+04  0.15341214589E+04  0.89216443002E+02 0.  0.
    5000000    2    1    2    0    0  0.34467554392E+02  0.53497202181E+03  0.22997852758E+03  0.83678930212E+03  0.59995261193E+03 0.  0.
         23    2    4    4    0    0  0.71951068919E+02  0.36565022659E+03  0.41748712557E+03  0.56697235523E+03  0.91022563428E+02 0.  0.
         23    2    4    4    0    0 -0.37483514527E+02  0.16932179522E+03 -0.18750859799E+03  0.26981694689E+03  0.86987506647E+02 0.  0.
          2    1    3    3  502    0  0.16339656107E+01 -0.46105385296E+03  0.12049365027E+04  0.12901338306E+04  0.00000000000E+00 0. -1.
         -2    1    3    3    0  502 -0.36101520002E+02 -0.73918168845E+02  0.22970143091E+03  0.24398762836E+03  0.00000000000E+00 0.  1.
         11    1    5    5    0    0  0.44435876256E+02  0.29230101346E+03  0.37601400765E+03  0.47833143689E+03  0.00000000000E+00 0. -1.
        -11    1    5    5    0    0  0.27515192663E+02  0.73349213130E+02  0.41473117923E+02  0.88640918341E+02  0.00000000000E+00 0.  1.
          2    1    6    6  503    0 -0.29956317006E+02  0.30999045081E+02 -0.91873222398E+02  0.10148404169E+03  0.00000000000E+00 0. -1.
         -2    1    6    6    0  503 -0.75271975209E+01  0.13832275014E+03 -0.95635375588E+02  0.16833290520E+03  0.00000000000E+00 0.  1.
<mgrwt>
<rscale>  0 0.54947752E+03</rscale>
<asrwt>0</asrwt>
<pdfrwt beam="1">  1        2 0.31042516E+00 0.54947752E+03</pdfrwt>
<pdfrwt beam="2">  1       -2 0.54330332E-01 0.54947752E+03</pdfrwt>
<totfact> 0.22246525E+01</totfact>
</mgrwt>
</event>
<event>
12    1  0.1335216E-007  0.6871494E+03  0.7818608E-02  0.9739464E-01
         -2   -1    0    0    0  501 -0.00000000000E+00  0.00000000000E+00  0.27611798613E+03  0.27611798613E+03  0.00000000000E+00 0.  1.
          2   -1    0    0  501    0  0.00000000000E+00 -0.00000000000E+00 -0.30275609461E+04  0.30275609461E+04  0.00000000000E+00 0. -1.
         23    2    1    2    0    0 -0.49286599667E+03 -0.45591823900E+03 -0.20592556693E+04  0.21679082108E+04  0.92270079105E+02 0.  0.
    5000000    2    1    2    0    0  0.49286599667E+03  0.45591823900E+03 -0.69218729071E+03  0.11357707215E+04  0.60006129274E+03 0.  0.
         23    2    4    4    0    0  0.26456454935E+03  0.11639887893E+03  0.25164782393E+02  0.30455163381E+03  0.92603086318E+02 0.  0.
         23    2    4    4    0    0  0.22830144732E+03  0.33951936007E+03 -0.71735207311E+03  0.83121908768E+03  0.94531625484E+02 0.  0.
          1    1    3    3  502    0 -0.36311129830E+03 -0.34939817235E+03 -0.16598471152E+04  0.17346530903E+04  0.00000000000E+00 0. -1.
         -1    1    3    3    0  502 -0.12975469836E+03 -0.10652006665E+03 -0.39940855409E+03  0.43325512049E+03  0.00000000000E+00 0.  1.
         13    1    5    5    0    0  0.93969567079E+02  0.68151605487E+02  0.48364238972E+02  0.12575380900E+03  0.00000000000E+00 0.  1.
        -13    1    5    5    0    0  0.17059498227E+03  0.48247273442E+02 -0.23199456579E+02  0.17879782481E+03  0.00000000000E+00 0. -1.
          2    1    6    6  503    0  0.17892916144E+03  0.26664534177E+03 -0.47484139285E+03  0.57322746922E+03  0.00000000000E+00 0. -1.
         -2    1    6    6    0  503  0.49372285880E+02  0.72874018293E+02 -0.24251068026E+03  0.25799161846E+03  0.00000000000E+00 0.  1.
<mgrwt>
<rscale>  0 0.68714938E+03</rscale>
<asrwt>0</asrwt>
<pdfrwt beam="1">  1        2 0.46577860E+00 0.68714938E+03</pdfrwt>
<pdfrwt beam="2">  1       -2 0.42479690E-01 0.68714938E+03</pdfrwt>
<totfact> 0.94671373E+00</totfact>
</mgrwt>
</event>
<event>
12    1  0.2313522E-007  0.6697404E+03  0.7818608E-02  0.9770427E-01
         -2   -1    0    0    0  501 -0.00000000000E+00  0.00000000000E+00  0.45071907816E+03  0.45071907816E+03  0.00000000000E+00 0.  1.
          2   -1    0    0  501    0  0.00000000000E+00 -0.00000000000E+00 -0.11948945667E+04  0.11948945667E+04  0.00000000000E+00 0. -1.
         23    2    1    2    0    0 -0.29509600057E+03 -0.51190699716E+03 -0.46980262616E+03  0.75988937475E+03  0.87102990948E+02 0.  0.
    5000000    2    1    2    0    0  0.29509600057E+03  0.51190699716E+03 -0.27437286234E+03  0.88572427005E+03  0.60008048767E+03 0.  0.
         23    2    4    4    0    0  0.37223774517E+03  0.24020622922E+03  0.40678450530E+02  0.45292428431E+03  0.85004114595E+02 0.  0.
         23    2    4    4    0    0 -0.77141744599E+02  0.27170076793E+03 -0.31505131287E+03  0.43279998574E+03  0.91029346161E+02 0.  0.
          3    1    3    3  502    0 -0.15737621158E+03 -0.35564841789E+03 -0.31100294761E+03  0.49797178890E+03  0.00000000000E+00 0. -1.
         -3    1    3    3    0  502 -0.13771978898E+03 -0.15625857926E+03 -0.15879967855E+03  0.26191758585E+03  0.00000000000E+00 0.  1.
         11    1    5    5    0    0  0.93039001295E+02  0.25737442514E+02  0.28490350904E+02  0.10064974816E+03  0.00000000000E+00 0. -1.
        -11    1    5    5    0    0  0.27919874387E+03  0.21446878671E+03  0.12188099625E+02  0.35227453616E+03  0.00000000000E+00 0.  1.
          1    1    6    6  503    0 -0.61239116445E+02  0.77224584057E+02 -0.77472539436E+02  0.12536291370E+03  0.00000000000E+00 0. -1.
         -1    1    6    6    0  503 -0.15902628154E+02  0.19447618388E+03 -0.23757877343E+03  0.30743707204E+03  0.00000000000E+00 0.  1.
<mgrwt>
<rscale>  0 0.66974042E+03</rscale>
<asrwt>0</asrwt>
<pdfrwt beam="1">  1        2 0.18382993E+00 0.66974042E+03</pdfrwt>
<pdfrwt beam="2">  1       -2 0.69341396E-01 0.66974042E+03</pdfrwt>
<totfact> 0.37174699E+01</totfact>
</mgrwt>
</event>
<event>
12    1  0.1335216E-007  0.1373165E+04  0.7818608E-02  0.8973475E-01
          2   -1    0    0  501    0  0.00000000000E+00  0.00000000000E+00  0.48546334717E+04  0.48546334717E+04  0.00000000000E+00 0. -1.
         -2   -1    0    0    0  501 -0.00000000000E+00 -0.00000000000E+00 -0.45370731794E+03  0.45370731794E+03  0.00000000000E+00 0.  1.
         23    2    1    2    0    0 -0.95205474178E+03 -0.98225699827E+03  0.28068102658E+04  0.31237399192E+04  0.91269780202E+02 0.  0.
    5000000    2    1    2    0    0  0.95205474178E+03  0.98225699827E+03  0.15941158879E+04  0.21846008704E+04  0.60003204644E+03 0.  0.
         23    2    4    4    0    0  0.45631459953E+03  0.45602615086E+03  0.34208000327E+03  0.73595481133E+03  0.91803549358E+02 0.  0.
         23    2    4    4    0    0  0.49574014225E+03  0.52623084740E+03  0.12520358846E+04  0.14486460590E+04  0.91128231321E+02 0.  0.
          2    1    3    3  502    0 -0.21602979766E+03 -0.27121696304E+03  0.75908841875E+03  0.83453145057E+03  0.00000000000E+00 0. -1.
         -2    1    3    3    0  502 -0.73602494412E+03 -0.71104003522E+03  0.20477218471E+04  0.22892084687E+04  0.00000000000E+00 0.  1.
         13    1    5    5    0    0  0.20889352108E+03  0.25407091255E+03  0.21063773677E+03  0.39058518649E+03  0.00000000000E+00 0. -1.
        -13    1    5    5    0    0  0.24742107845E+03  0.20195523831E+03  0.13144226649E+03  0.34536962484E+03  0.00000000000E+00 0.  1.
          1    1    6    6  503    0  0.37198444319E+03  0.44444423052E+03  0.96919307902E+03  0.11292645060E+04  0.00000000000E+00 0. -1.
         -1    1    6    6    0  503  0.12375569906E+03  0.81786616885E+02  0.28284280560E+03  0.31938155306E+03  0.00000000000E+00 0.  1.
<mgrwt>
<rscale>  0 0.13731653E+04</rscale>
<asrwt>0</asrwt>
<pdfrwt beam="1">  1        2 0.74686665E+00 0.13731653E+04</pdfrwt>
<pdfrwt beam="2">  1       -2 0.69801129E-01 0.13731653E+04</pdfrwt>
<totfact> 0.98067882E-02</totfact>
</mgrwt>
</event>
<event>
12    1  0.1335216E-007  0.3979081E+03  0.7818608E-02  0.1044506E+00
         -2   -1    0    0    0  501 -0.00000000000E+00  0.00000000000E+00  0.17199274142E+03  0.17199274142E+03  0.00000000000E+00 0. -1.
          2   -1    0    0  501    0  0.00000000000E+00 -0.00000000000E+00 -0.13556913881E+04  0.13556913881E+04  0.00000000000E+00 0.  1.
         23    2    1    2    0    0  0.23742621868E+03  0.69753472621E+02 -0.59674380411E+03  0.65272385360E+03  0.93319371289E+02 0.  0.
    5000000    2    1    2    0    0 -0.23742621868E+03 -0.69753472621E+02 -0.58695484261E+03  0.87496027596E+03  0.59983559496E+03 0.  0.
         23    2    4    4    0    0 -0.36772117250E+03  0.12911759067E+01 -0.59070878241E+03  0.70198037846E+03  0.92838883450E+02 0.  0.
         23    2    4    4    0    0  0.13029495382E+03 -0.71044648527E+02  0.37539398012E+01  0.17297989750E+03  0.88790966883E+02 0.  0.
          3    1    3    3  502    0  0.17913779313E+03  0.85501905676E+01 -0.38439803902E+03  0.42417603314E+03  0.00000000000E+00 0. -1.
         -3    1    3    3    0  502  0.58288425551E+02  0.61203282053E+02 -0.21234576509E+03  0.22854782046E+03  0.00000000000E+00 0.  1.
         13    1    5    5    0    0 -0.14446739567E+03  0.45856110761E+02 -0.24065201306E+03  0.28440640410E+03  0.00000000000E+00 0. -1.
        -13    1    5    5    0    0 -0.22325377684E+03 -0.44564934854E+02 -0.35005676935E+03  0.41757397436E+03  0.00000000000E+00 0.  1.
          2    1    6    6  503    0  0.36454736766E+02 -0.25412548208E+01  0.37130582069E+02  0.52096889864E+02  0.00000000000E+00 0. -1.
         -2    1    6    6    0  503  0.93840217055E+02 -0.68503393707E+02 -0.33376642268E+02  0.12088300764E+03  0.00000000000E+00 0.  1.
<mgrwt>
<rscale>  0 0.39790806E+03</rscale>
<asrwt>0</asrwt>
<pdfrwt beam="1">  1        2 0.20856791E+00 0.39790806E+03</pdfrwt>
<pdfrwt beam="2">  1       -2 0.26460422E-01 0.39790806E+03</pdfrwt>
<totfact> 0.20771107E+02</totfact>
</mgrwt>
</event>
<event>
12    1  0.1335216E-007  0.1272228E+04  0.7818608E-02  0.9051884E-01
          3   -1    0    0  501    0  0.00000000000E+00  0.00000000000E+00  0.14780976743E+04  0.14780976743E+04  0.00000000000E+00 0. -1.
         -3   -1    0    0    0  501 -0.00000000000E+00 -0.00000000000E+00 -0.13098506594E+04  0.13098506594E+04  0.00000000000E+00 0.  1.
         23    2    1    2    0    0  0.17942466149E+03  0.12324424042E+04 -0.37278275219E+03  0.13034077833E+04  0.93794351995E+02 0.  0.
    5000000    2    1    2    0    0 -0.17942466149E+03 -0.12324424042E+04  0.54102976707E+03  0.14845405504E+04  0.60003328922E+03 0.  0.
         23    2    4    4    0    0 -0.25997585136E+03 -0.11361496227E+04  0.31446703440E+03  0.12102439454E+04  0.85892277392E+02 0.  0.
         23    2    4    4    0    0  0.80551189871E+02 -0.96292781501E+02  0.22656273267E+03  0.27429660498E+03  0.90261629206E+02 0.  0.
          1    1    3    3  502    0  0.11068517244E+03  0.81769201159E+03 -0.20114089713E+03  0.84931095231E+03  0.00000000000E+00 0. -1.
         -1    1    3    3    0  502  0.68739489049E+02  0.41475039261E+03 -0.17164185505E+03  0.45409683101E+03  0.00000000000E+00 0.  1.
         11    1    5    5    0    0 -0.24460194551E+02 -0.78285312411E+02  0.87565519672E+00  0.82022302020E+02  0.00000000000E+00 0.  1.
        -11    1    5    5    0    0 -0.23551565681E+03 -0.10578643103E+04  0.31359137920E+03  0.11282216434E+04  0.00000000000E+00 0. -1.
          3    1    6    6  503    0  0.25664867664E+02 -0.43417696114E+01  0.12157475366E+03  0.12433003307E+03  0.00000000000E+00 0. -1.
         -3    1    6    6    0  503  0.54886322207E+02 -0.91951011890E+02  0.10498797902E+03  0.14996657191E+03  0.00000000000E+00 0.  1.
<mgrwt>
<rscale>  0 0.12722275E+04</rscale>
<asrwt>0</asrwt>
<pdfrwt beam="1">  1        3 0.22739964E+00 0.12722275E+04</pdfrwt>
<pdfrwt beam="2">  1       -3 0.20151549E+00 0.12722275E+04</pdfrwt>
<totfact> 0.35308675E-02</totfact>
</mgrwt>
</event>
<event>
12    1  0.1335216E-007  0.6593620E+03  0.7818608E-02  0.9789369E-01
         -2   -1    0    0    0  501 -0.00000000000E+00  0.00000000000E+00  0.97580582745E+03  0.97580582745E+03  0.00000000000E+00 0.  1.
          2   -1    0    0  501    0  0.00000000000E+00 -0.00000000000E+00 -0.54911323024E+03  0.54911323024E+03  0.00000000000E+00 0. -1.
         23    2    1    2    0    0  0.46799259483E+02 -0.59576769802E+03  0.27769303732E+03  0.66499794283E+03  0.89328160725E+02 0.  0.
    5000000    2    1    2    0    0 -0.46799259483E+02  0.59576769802E+03  0.14899955989E+03  0.85992111486E+03  0.60011176811E+03 0.  0.
         23    2    4    4    0    0 -0.13030498943E+03  0.31930276310E+02  0.22349968985E+03  0.27775614327E+03  0.95903237415E+02 0.  0.
         23    2    4    4    0    0  0.83505729945E+02  0.56383742171E+03 -0.74500129961E+02  0.58216497158E+03  0.92086588132E+02 0.  0.
          3    1    3    3  502    0  0.46248742267E+02 -0.33369251082E+03  0.19942592001E+03  0.39148478324E+03  0.00000000000E+00 0. -1.
         -3    1    3    3    0  502  0.55051721630E+00 -0.26207518720E+03  0.78267117309E+02  0.27351315959E+03  0.00000000000E+00 0.  1.
         13    1    5    5    0    0 -0.52185835821E+02 -0.18864205997E+02  0.14723394604E+03  0.15734374660E+03  0.00000000000E+00 0.  1.
        -13    1    5    5    0    0 -0.78119153607E+02  0.50794482307E+02  0.76265743817E+02  0.12041239668E+03  0.00000000000E+00 0. -1.
          3    1    6    6  503    0  0.54199166118E+02  0.24553707924E+03  0.96304043609E+01  0.25163217517E+03  0.00000000000E+00 0. -1.
         -3    1    6    6    0  503  0.29306563827E+02  0.31830034247E+03 -0.84130534322E+02  0.33053279642E+03  0.00000000000E+00 0.  1.
<mgrwt>
<rscale>  0 0.65936205E+03</rscale>
<asrwt>0</asrwt>
<pdfrwt beam="1">  1        2 0.84478959E-01 0.65936205E+03</pdfrwt>
<pdfrwt beam="2">  1       -2 0.15012397E+00 0.65936205E+03</pdfrwt>
<totfact> 0.16872014E+01</totfact>
</mgrwt>
</event>
<event>
12    1  0.1335216E-007  0.4913496E+03  0.7818608E-02  0.1016062E+00
          1   -1    0    0  501    0  0.00000000000E+00  0.00000000000E+00  0.18767528031E+04  0.18767528031E+04  0.00000000000E+00 0. -1.
         -1   -1    0    0    0  501 -0.00000000000E+00 -0.00000000000E+00 -0.15582131212E+03  0.15582131212E+03  0.00000000000E+00 0.  1.
         23    2    1    2    0    0  0.16214060563E+02 -0.35924428907E+03  0.72609168815E+03  0.81642587450E+03  0.10011350540E+03 0.  0.
    5000000    2    1    2    0    0 -0.16214060563E+02  0.35924428907E+03  0.99483980287E+03  0.12161482408E+04  0.59999246256E+03 0.  0.
         23    2    4    4    0    0  0.61119204083E+02  0.45058358604E+03  0.94878067439E+03  0.10565465910E+04  0.96668535934E+02 0.  0.
         23    2    4    4    0    0 -0.77333264646E+02 -0.91339296968E+02  0.46059128485E+02  0.15960164971E+03  0.95015484440E+02 0.  0.
          4    1    3    3  502    0 -0.22761025616E+02 -0.27139249347E+03  0.47452254368E+03  0.54712301565E+03  0.00000000000E+00 0. -1.
         -4    1    3    3    0  502  0.38975086179E+02 -0.87851795600E+02  0.25156914448E+03  0.26930285885E+03  0.00000000000E+00 0.  1.
         13    1    5    5    0    0 -0.15462238253E+02  0.22806058623E+03  0.50137136662E+03  0.55102083360E+03  0.00000000000E+00 0.  1.
        -13    1    5    5    0    0  0.76581442336E+02  0.22252299981E+03  0.44740930777E+03  0.50552575744E+03  0.00000000000E+00 0. -1.
          3    1    6    6  503    0 -0.14776058118E+02  0.18649701816E+02 -0.28078427348E+01  0.23958865836E+02  0.00000000000E+00 0. -1.
         -3    1    6    6    0  503 -0.62557206528E+02 -0.10998899878E+03  0.48866971220E+02  0.13564278388E+03  0.00000000000E+00 0.  1.
<mgrwt>
<rscale>  0 0.49134955E+03</rscale>
<asrwt>0</asrwt>
<pdfrwt beam="1">  1        1 0.28873119E+00 0.49134955E+03</pdfrwt>
<pdfrwt beam="2">  1       -1 0.23972511E-01 0.49134955E+03</pdfrwt>
<totfact> 0.58110451E+01</totfact>
</mgrwt>
</event>
<event>
12    1  0.1335216E-007  0.5113688E+03  0.7818608E-02  0.1010853E+00
          2   -1    0    0  501    0  0.00000000000E+00  0.00000000000E+00  0.24433885064E+04  0.24433885064E+04  0.00000000000E+00 0. -1.
         -2   -1    0    0    0  501 -0.00000000000E+00 -0.00000000000E+00 -0.12040220891E+03  0.12040220891E+03  0.00000000000E+00 0.  1.
         23    2    1    2    0    0  0.16804842336E+03 -0.29934867961E+03  0.11362467841E+04  0.11904491726E+04  0.90898699681E+02 0.  0.
    5000000    2    1    2    0    0 -0.16804842336E+03  0.29934867961E+03  0.11867395134E+04  0.13733415427E+04  0.59988866942E+03 0.  0.
         23    2    4    4    0    0  0.19793058513E+03  0.14277558716E+02  0.36214616850E+03  0.42294023792E+03  0.91368661357E+02 0.  0.
         23    2    4    4    0    0 -0.36597900849E+03  0.28507112090E+03  0.82459334493E+03  0.95040130482E+03  0.90012649572E+02 0.  0.
          3    1    3    3  502    0  0.11311030092E+03 -0.12564436545E+03  0.63504578890E+03  0.65716329839E+03  0.00000000000E+00 0. -1.
         -3    1    3    3    0  502  0.54938122435E+02 -0.17370431416E+03  0.50120099516E+03  0.53328587418E+03  0.00000000000E+00 0.  1.
         11    1    5    5    0    0  0.11657180686E+03 -0.18849045247E+01  0.29162188718E+03  0.31406347146E+03  0.00000000000E+00 0. -1.
        -11    1    5    5    0    0  0.81358778271E+02  0.16162463241E+02  0.70524281318E+02  0.10887676646E+03  0.00000000000E+00 0.  1.
          3    1    6    6  503    0 -0.73566423653E+02  0.10615031779E+03  0.20484006460E+03  0.24215565391E+03  0.00000000000E+00 0. -1.
         -3    1    6    6    0  503 -0.29241258484E+03  0.17892080310E+03  0.61975328033E+03  0.70824565091E+03  0.00000000000E+00 0.  1.
<mgrwt>
<rscale>  0 0.51136881E+03</rscale>
<asrwt>0</asrwt>
<pdfrwt beam="1">  1        2 0.37590589E+00 0.51136881E+03</pdfrwt>
<pdfrwt beam="2">  1       -2 0.18523419E-01 0.51136881E+03</pdfrwt>
<totfact> 0.98226410E+01</totfact>
</mgrwt>
</event>
<event>
12    1  0.1335216E-007  0.4516817E+03  0.7818608E-02  0.1027222E+00
          1   -1    0    0  501    0  0.00000000000E+00  0.00000000000E+00  0.83304786511E+03  0.83304786511E+03  0.00000000000E+00 0. -1.
         -1   -1    0    0    0  501 -0.00000000000E+00 -0.00000000000E+00 -0.67744722987E+03  0.67744722987E+03  0.00000000000E+00 0.  1.
         23    2    1    2    0    0 -0.42134574869E+02 -0.34796427442E+03  0.58957633306E+03  0.69130446323E+03  0.86296869601E+02 0.  0.
    5000000    2    1    2    0    0  0.42134574869E+02  0.34796427442E+03 -0.43397569783E+03  0.81919063175E+03  0.59990326401E+03 0.  0.
         23    2    4    4    0    0 -0.17224573131E+03  0.24878330670E+03 -0.24773901823E+00  0.31609683287E+03  0.91407990519E+02 0.  0.
         23    2    4    4    0    0  0.21438030617E+03  0.99180967726E+02 -0.43372795881E+03  0.50309379888E+03  0.95852220572E+02 0.  0.
          3    1    3    3  502    0  0.90293278754E+01 -0.23683683955E+03  0.41906861390E+03  0.48144752621E+03  0.00000000000E+00 0. -1.
         -3    1    3    3    0  502 -0.51163902745E+02 -0.11112743487E+03  0.17050771916E+03  0.20985693703E+03  0.00000000000E+00 0.  1.
         11    1    5    5    0    0 -0.15870589204E+03  0.21188465289E+03 -0.30521506628E+02  0.26648495016E+03  0.00000000000E+00 0.  1.
        -11    1    5    5    0    0 -0.13539839270E+02  0.36898653812E+02  0.30273767610E+02  0.49611882709E+02  0.00000000000E+00 0. -1.
          4    1    6    6  503    0  0.19033136426E+01  0.89271109597E+01  0.25733481861E+01  0.94835665125E+01  0.00000000000E+00 0. -1.
         -4    1    6    6    0  503  0.21247699253E+03  0.90253856767E+02 -0.43630130699E+03  0.49361023237E+03  0.00000000000E+00 0.  1.
<mgrwt>
<rscale>  0 0.45168170E+03</rscale>
<asrwt>0</asrwt>
<pdfrwt beam="1">  1        1 0.12816121E+00 0.45168170E+03</pdfrwt>
<pdfrwt beam="2">  1       -1 0.10422265E+00 0.45168170E+03</pdfrwt>
<totfact> 0.19297067E+01</totfact>
</mgrwt>
</event>
<event>
12    1  0.1335216E-007  0.9359550E+03  0.7818608E-02  0.9381719E-01
         -2   -1    0    0    0  501 -0.00000000000E+00  0.00000000000E+00  0.94893307733E+03  0.94893307733E+03  0.00000000000E+00 0.  1.
          2   -1    0    0  501    0  0.00000000000E+00 -0.00000000000E+00 -0.11953927364E+04  0.11953927364E+04  0.00000000000E+00 0. -1.
         23    2    1    2    0    0  0.64279101987E+03  0.57144509334E+03  0.35568878698E+03  0.93506323853E+03  0.89994204996E+02 0.  0.
    5000000    2    1    2    0    0 -0.64279101987E+03 -0.57144509334E+03 -0.60214844605E+03  0.12092625752E+04  0.60000286227E+03 0.  0.
         23    2    4    4    0    0 -0.14127889447E+03 -0.47447299263E+03 -0.42968575767E+03  0.66244681625E+03  0.95507001116E+02 0.  0.
         23    2    4    4    0    0 -0.50151212540E+03 -0.96972100714E+02 -0.17246268838E+03  0.54681575894E+03  0.91356965211E+02 0.  0.
          4    1    3    3  502    0  0.32429224543E+03  0.28820562661E+03  0.22805761317E+03  0.49014101908E+03  0.00000000000E+00 0. -1.
         -4    1    3    3    0  502  0.31849877444E+03  0.28323946673E+03  0.12763117381E+03  0.44492221945E+03  0.00000000000E+00 0.  1.
         13    1    5    5    0    0 -0.13276825670E+03 -0.36500821200E+03 -0.28973212677E+03  0.48456486676E+03  0.00000000000E+00 0.  1.
        -13    1    5    5    0    0 -0.85106377656E+01 -0.10946478063E+03 -0.13995363090E+03  0.17788194949E+03  0.00000000000E+00 0. -1.
          1    1    6    6  503    0 -0.36479287444E+02  0.69394097881E+01 -0.34642837196E+02  0.50784052513E+02  0.00000000000E+00 0. -1.
         -1    1    6    6    0  503 -0.46503283796E+03 -0.10391151050E+03 -0.13781985118E+03  0.49603170642E+03  0.00000000000E+00 0.  1.
<mgrwt>
<rscale>  0 0.93595497E+03</rscale>
<asrwt>0</asrwt>
<pdfrwt beam="1">  1        2 0.18390657E+00 0.93595497E+03</pdfrwt>
<pdfrwt beam="2">  1       -2 0.14598970E+00 0.93595497E+03</pdfrwt>
<totfact> 0.61240174E+00</totfact>
</mgrwt>
</event>
<event>
12    1  0.1335216E-007  0.1123066E+04  0.7818608E-02  0.9182997E-01
         -1   -1    0    0    0  501 -0.00000000000E+00  0.00000000000E+00  0.62117966072E+03  0.62117966072E+03  0.00000000000E+00 0.  1.
          1   -1    0    0  501    0  0.00000000000E+00 -0.00000000000E+00 -0.24282345697E+04  0.24282345697E+04  0.00000000000E+00 0. -1.
         23    2    1    2    0    0  0.48110053996E+03 -0.94973365672E+03 -0.30209974967E+03  0.11105573709E+04  0.92852932358E+02 0.  0.
    5000000    2    1    2    0    0 -0.48110053996E+03  0.94973365672E+03 -0.15049551593E+04  0.19388568595E+04  0.60068639234E+03 0.  0.
         23    2    4    4    0    0 -0.56613129261E+03  0.75318923921E+03 -0.13818340994E+04  0.16754774669E+04  0.99802771309E+02 0.  0.
         23    2    4    4    0    0  0.85030752647E+02  0.19654441751E+03 -0.12312105989E+03  0.26337939265E+03  0.91378181930E+02 0.  0.
          3    1    3    3  502    0  0.29511436507E+03 -0.67351512164E+03 -0.19478632244E+03  0.76069495788E+03  0.00000000000E+00 0. -1.
         -3    1    3    3    0  502  0.18598617490E+03 -0.27621853509E+03 -0.10731342723E+03  0.34986241302E+03  0.00000000000E+00 0.  1.
         13    1    5    5    0    0 -0.20603742511E+03  0.34734226765E+03 -0.55032281419E+03  0.68260769939E+03  0.00000000000E+00 0. -1.
        -13    1    5    5    0    0 -0.36009386750E+03  0.40584697156E+03 -0.83151128525E+03  0.99286976751E+03  0.00000000000E+00 0.  1.
          4    1    6    6  503    0  0.51256471326E+02  0.19023787082E+03 -0.11480078660E+03  0.22802827445E+03  0.00000000000E+00 0. -1.
         -4    1    6    6    0  503  0.33774281320E+02  0.63065466906E+01 -0.83202732896E+01  0.35351118193E+02  0.00000000000E+00 0.  1.
<mgrwt>
<rscale>  0 0.11230663E+04</rscale>
<asrwt>0</asrwt>
<pdfrwt beam="1">  1        1 0.37357455E+00 0.11230663E+04</pdfrwt>
<pdfrwt beam="2">  1       -1 0.95566101E-01 0.11230663E+04</pdfrwt>
<totfact> 0.16045458E+00</totfact>
</mgrwt>
</event>
<event>
12    1  0.1335216E-007  0.1180098E+04  0.7818608E-02  0.9130457E-01
         -2   -1    0    0    0  501 -0.00000000000E+00  0.00000000000E+00  0.84607005699E+03  0.84607005699E+03  0.00000000000E+00 0. -1.
          2   -1    0    0  501    0  0.00000000000E+00 -0.00000000000E+00 -0.17490334597E+04  0.17490334597E+04  0.00000000000E+00 0.  1.
         23    2    1    2    0    0 -0.73643504603E+03  0.87046689748E+03 -0.45374243385E+03  0.12305908136E+04  0.91773403542E+02 0.  0.
    5000000    2    1    2    0    0  0.73643504603E+03 -0.87046689748E+03 -0.44922096888E+03  0.13645127031E+04  0.60003853332E+03 0.  0.
         23    2    4    4    0    0  0.76434047423E+03 -0.78513962412E+03 -0.25026115618E+03  0.11277491238E+04  0.92340943919E+02 0.  0.
         23    2    4    4    0    0 -0.27905428196E+02 -0.85327273356E+02 -0.19895981270E+03  0.23676357937E+03  0.91719839434E+02 0.  0.
          2    1    3    3  502    0 -0.48991502967E+03  0.58705879188E+03 -0.34986912888E+03  0.84087048275E+03  0.00000000000E+00 0. -1.
         -2    1    3    3    0  502 -0.24652001636E+03  0.28340810560E+03 -0.10387330496E+03  0.38972033084E+03  0.00000000000E+00 0.  1.
         11    1    5    5    0    0  0.73250083860E+03 -0.72203073720E+03 -0.22653454540E+03  0.10531874307E+04  0.00000000000E+00 0. -1.
        -11    1    5    5    0    0  0.31839635623E+02 -0.63108886924E+02 -0.23726610782E+02  0.74561693011E+02  0.00000000000E+00 0.  1.
          4    1    6    6  503    0  0.10866923058E+02 -0.80984082828E+02 -0.16849989177E+03  0.18726645512E+03  0.00000000000E+00 0. -1.
         -4    1    6    6    0  503 -0.38772351253E+02 -0.43431905277E+01 -0.30459920931E+02  0.49497124248E+02  0.00000000000E+00 0.  1.
<mgrwt>
<rscale>  0 0.11800981E+04</rscale>
<asrwt>0</asrwt>
<pdfrwt beam="1">  1        2 0.26908207E+00 0.11800981E+04</pdfrwt>
<pdfrwt beam="2">  1       -2 0.13016463E+00 0.11800981E+04</pdfrwt>
<totfact> 0.38915922E+00</totfact>
</mgrwt>
</event>
<event>
12    1  0.1335216E-007  0.1463826E+04  0.7818608E-02  0.8908871E-01
          1   -1    0    0  501    0  0.00000000000E+00  0.00000000000E+00  0.33819595974E+04  0.33819595974E+04  0.00000000000E+00 0. -1.
         -1   -1    0    0    0  501 -0.00000000000E+00 -0.00000000000E+00 -0.68858445266E+03  0.68858445266E+03  0.00000000000E+00 0.  1.
         23    2    1    2    0    0 -0.10004301063E+04  0.10623810755E+04  0.11133909485E+04  0.18376448781E+04  0.88234611516E+02 0.  0.
    5000000    2    1    2    0    0  0.10004301063E+04 -0.10623810755E+04  0.15799841963E+04  0.22328991720E+04  0.59997892008E+03 0.  0.
         23    2    4    4    0    0  0.91972356794E+03 -0.10181398761E+04  0.15922701415E+04  0.21038848935E+04  0.92234444309E+02 0.  0.
         23    2    4    4    0    0  0.80706538379E+02 -0.44241199424E+02 -0.12285945257E+02  0.12901427850E+03  0.89570701365E+02 0.  0.
          4    1    3    3  502    0 -0.37880711011E+03  0.46504816172E+03  0.46379779955E+03  0.75820381050E+03  0.00000000000E+00 0. -1.
         -4    1    3    3    0  502 -0.62162299621E+03  0.59733291376E+03  0.64959314892E+03  0.10794410676E+04  0.00000000000E+00 0.  1.
         13    1    5    5    0    0  0.37865862633E+03 -0.37923595376E+03  0.67726830996E+03  0.86365191344E+03  0.00000000000E+00 0.  1.
        -13    1    5    5    0    0  0.54106494161E+03 -0.63890392230E+03  0.91500183157E+03  0.12402329800E+04  0.00000000000E+00 0. -1.
          4    1    6    6  503    0  0.10752367270E+02 -0.21552290474E+01 -0.41024833134E+02  0.42465225159E+02  0.00000000000E+00 0. -1.
         -4    1    6    6    0  503  0.69954171110E+02 -0.42085970377E+02  0.28738887877E+02  0.86549053343E+02  0.00000000000E+00 0.  1.
<mgrwt>
<rscale>  0 0.14638256E+04</rscale>
<asrwt>0</asrwt>
<pdfrwt beam="1">  1        1 0.52030146E+00 0.14638256E+04</pdfrwt>
<pdfrwt beam="2">  1       -1 0.10593607E+00 0.14638256E+04</pdfrwt>
<totfact> 0.24872733E-01</totfact>
</mgrwt>
</event>
<event>
12    1  0.1335216E-007  0.5269501E+03  0.7818608E-02  0.1006974E+00
          1   -1    0    0  501    0  0.00000000000E+00  0.00000000000E+00  0.37806055644E+03  0.37806055644E+03  0.00000000000E+00 0. -1.
         -1   -1    0    0    0  501 -0.00000000000E+00 -0.00000000000E+00 -0.12170688928E+04  0.12170688928E+04  0.00000000000E+00 0.  1.
         23    2    1    2    0    0  0.44466244711E+03  0.27771113808E+03 -0.18338246814E+03  0.56329898333E+03  0.93959815436E+02 0.  0.
    5000000    2    1    2    0    0 -0.44466244711E+03 -0.27771113808E+03 -0.65562586823E+03  0.10318304659E+04  0.59998388578E+03 0.  0.
         23    2    4    4    0    0 -0.23435010009E+03 -0.13123811885E+03 -0.70060256570E+03  0.75682213936E+03  0.98956466760E+02 0.  0.
         23    2    4    4    0    0 -0.21031234703E+03 -0.14647301923E+03  0.44976697476E+02  0.27500832654E+03  0.89000267857E+02 0.  0.
          4    1    3    3  502    0  0.30982562630E+03  0.15610305170E+03 -0.15312825288E+03  0.37922070525E+03  0.00000000000E+00 0. -1.
         -4    1    3    3    0  502  0.13483682082E+03  0.12160808638E+03 -0.30254215256E+02  0.18407827808E+03  0.00000000000E+00 0.  1.
         13    1    5    5    0    0 -0.10333304034E+03 -0.54347586360E+02 -0.18034181572E+03  0.21483609536E+03  0.00000000000E+00 0. -1.
        -13    1    5    5    0    0 -0.13101705975E+03 -0.76890532491E+02 -0.52026074998E+03  0.54198604401E+03  0.00000000000E+00 0.  1.
          1    1    6    6  503    0 -0.16450827098E+03 -0.12189761807E+03 -0.22746132540E+01  0.20476126190E+03  0.00000000000E+00 0. -1.
         -1    1    6    6    0  503 -0.45804076048E+02 -0.24575401160E+02  0.47251310730E+02  0.70247064640E+02  0.00000000000E+00 0.  1.
<mgrwt>
<rscale>  0 0.52695015E+03</rscale>
<asrwt>0</asrwt>
<pdfrwt beam="1">  1        1 0.58163163E-01 0.52695015E+03</pdfrwt>
<pdfrwt beam="2">  1       -1 0.18724137E+00 0.52695015E+03</pdfrwt>
<totfact> 0.12690148E+01</totfact>
</mgrwt>
</event>
<event>
12    1  0.1335216E-007  0.1397948E+04  0.7818608E-02  0.8955305E-01
         -1   -1    0    0    0  501 -0.00000000000E+00  0.00000000000E+00  0.71352110954E+03  0.71352110954E+03  0.00000000000E+00 0.  1.
          1   -1    0    0  501    0  0.00000000000E+00 -0.00000000000E+00 -0.31801804024E+04  0.31801804024E+04  0.00000000000E+00 0. -1.
         23    2    1    2    0    0  0.12230210408E+04  0.66952099527E+03 -0.16769102832E+04  0.21826556974E+04  0.88988572161E+02 0.  0.
    5000000    2    1    2    0    0 -0.12230210408E+04 -0.66952099527E+03 -0.78974900961E+03  0.17110458146E+04  0.59994620765E+03 0.  0.
         23    2    4    4    0    0 -0.20435248215E+03 -0.11063114403E+03 -0.41896599099E+03  0.48787448727E+03  0.92140255726E+02 0.  0.
         23    2    4    4    0    0 -0.10186685586E+04 -0.55888985123E+03 -0.37078301862E+03  0.12231713273E+04  0.92868460134E+02 0.  0.
          4    1    3    3  502    0  0.11318816114E+04  0.64458403867E+03 -0.15693578830E+04  0.20394922726E+04  0.00000000000E+00 0. -1.
         -4    1    3    3    0  502  0.91139429385E+02  0.24936956602E+02 -0.10755240019E+03  0.14316342473E+03  0.00000000000E+00 0.  1.
         11    1    5    5    0    0 -0.18249502577E+03 -0.10549636244E+03 -0.41444465982E+03  0.46497128188E+03  0.00000000000E+00 0.  1.
        -11    1    5    5    0    0 -0.21857456386E+02 -0.51347815977E+01 -0.45213311774E+01  0.22903205394E+02  0.00000000000E+00 0. -1.
          1    1    6    6  503    0 -0.66657266279E+02 -0.12110769293E+02 -0.22871531939E+02  0.71505026774E+02  0.00000000000E+00 0. -1.
         -1    1    6    6    0  503 -0.95201129234E+03 -0.54677908194E+03 -0.34791148668E+03  0.11516663005E+04  0.00000000000E+00 0.  1.
<mgrwt>
<rscale>  0 0.13979477E+04</rscale>
<asrwt>0</asrwt>
<pdfrwt beam="1">  1        1 0.48925852E+00 0.13979477E+04</pdfrwt>
<pdfrwt beam="2">  1       -1 0.10977248E+00 0.13979477E+04</pdfrwt>
<totfact> 0.32754266E-01</totfact>
</mgrwt>
</event>
<event>
12    1  0.1335216E-007  0.1524027E+04  0.7818608E-02  0.8868631E-01
          1   -1    0    0  501    0  0.00000000000E+00  0.00000000000E+00  0.11567031567E+04  0.11567031567E+04  0.00000000000E+00 0. -1.
         -1   -1    0    0    0  501 -0.00000000000E+00 -0.00000000000E+00 -0.21997317796E+04  0.21997317796E+04  0.00000000000E+00 0.  1.
         23    2    1    2    0    0 -0.81731500971E+03 -0.12235728144E+04 -0.97141531021E+03  0.17656414007E+04  0.93314488849E+02 0.  0.
    5000000    2    1    2    0    0  0.81731500971E+03  0.12235728144E+04 -0.71613312607E+02  0.15907935356E+04  0.60030104875E+03 0.  0.
         23    2    4    4    0    0  0.31932943615E+03  0.96045783822E+03 -0.37592256570E+01  0.10162381642E+04  0.90968823065E+02 0.  0.
         23    2    4    4    0    0  0.49798557356E+03  0.26311497617E+03 -0.67854086950E+02  0.57455537141E+03  0.91052597676E+02 0.  0.
          1    1    3    3  502    0 -0.18078854877E+03 -0.25632341319E+03 -0.16332283168E+03  0.35363899511E+03  0.00000000000E+00 0. -1.
         -1    1    3    3    0  502 -0.63652646094E+03 -0.96724940120E+03 -0.80809247853E+03  0.14120024056E+04  0.00000000000E+00 0.  1.
         11    1    5    5    0    0  0.10644255323E+03  0.26418922828E+03 -0.37980350967E+02  0.28734730299E+03  0.00000000000E+00 0. -1.
        -11    1    5    5    0    0  0.21288688292E+03  0.69626860994E+03  0.34221125310E+02  0.72889086119E+03  0.00000000000E+00 0.  1.
          2    1    6    6  503    0  0.76303470154E+02  0.32366390259E+02  0.21513422885E+02  0.85630777996E+02  0.00000000000E+00 0. -1.
         -2    1    6    6    0  503  0.42168210341E+03  0.23074858591E+03 -0.89367509836E+02  0.48892459341E+03  0.00000000000E+00 0.  1.
<mgrwt>
<rscale>  0 0.15240266E+04</rscale>
<asrwt>0</asrwt>
<pdfrwt beam="1">  1        1 0.17795433E+00 0.15240266E+04</pdfrwt>
<pdfrwt beam="2">  1       -1 0.33842027E+00 0.15240266E+04</pdfrwt>
<totfact> 0.20188259E-01</totfact>
</mgrwt>
</event>
<event>
12    1  0.1335216E-007  0.6330491E+03  0.7818608E-02  0.9839117E-01
          1   -1    0    0  501    0  0.00000000000E+00  0.00000000000E+00  0.13283478491E+04  0.13283478491E+04  0.00000000000E+00 0. -1.
         -1   -1    0    0    0  501 -0.00000000000E+00 -0.00000000000E+00 -0.44809100912E+03  0.44809100912E+03  0.00000000000E+00 0.  1.
         23    2    1    2    0    0  0.47996117091E+03  0.38309621474E+03  0.62468864504E+03  0.88071474997E+03  0.91088595570E+02 0.  0.
    5000000    2    1    2    0    0 -0.47996117091E+03 -0.38309621474E+03  0.25556819498E+03  0.89572410829E+03  0.59990094229E+03 0.  0.
         23    2    4    4    0    0 -0.71318676523E+02 -0.23171321899E+02  0.31822964477E+03  0.33923142646E+03  0.90468724480E+02 0.  0.
         23    2    4    4    0    0 -0.40864249438E+03 -0.35992489284E+03 -0.62661449789E+02  0.55649268183E+03  0.96036612508E+02 0.  0.
          4    1    3    3  502    0  0.36701473978E+03  0.31790956046E+03  0.44452761410E+03  0.65830927955E+03  0.00000000000E+00 0. -1.
         -4    1    3    3    0  502  0.11294643112E+03  0.65186654274E+02  0.18016103094E+03  0.22240547041E+03  0.00000000000E+00 0.  1.
         11    1    5    5    0    0 -0.14385466193E+02 -0.42886895884E+02  0.66740783569E+02  0.80626048320E+02  0.00000000000E+00 0.  1.
        -11    1    5    5    0    0 -0.56933210330E+02  0.19715573985E+02  0.25148886120E+03  0.25860537814E+03  0.00000000000E+00 0. -1.
          2    1    6    6  503    0 -0.25174970750E+03 -0.21504378487E+03 -0.84839968764E+02  0.34178877240E+03  0.00000000000E+00 0. -1.
         -2    1    6    6    0  503 -0.15689278688E+03 -0.14488110797E+03  0.22178518975E+02  0.21470390943E+03  0.00000000000E+00 0.  1.
<mgrwt>
<rscale>  0 0.63304906E+03</rscale>
<asrwt>0</asrwt>
<pdfrwt beam="1">  1        1 0.20436121E+00 0.63304906E+03</pdfrwt>
<pdfrwt beam="2">  1       -1 0.68937079E-01 0.63304906E+03</pdfrwt>
<totfact> 0.19303169E+01</totfact>
</mgrwt>
</event>
<event>
12    1  0.1335216E-007  0.6755365E+03  0.7818608E-02  0.9760007E-01
          2   -1    0    0  501    0  0.00000000000E+00  0.00000000000E+00  0.39644739826E+03  0.39644739826E+03  0.00000000000E+00 0. -1.
         -2   -1    0    0    0  501 -0.00000000000E+00 -0.00000000000E+00 -0.14514149079E+04  0.14514149079E+04  0.00000000000E+00 0.  1.
         23    2    1    2    0    0 -0.55638442284E+03 -0.24701863624E+03 -0.22194116600E+03  0.65432009965E+03  0.91077324321E+02 0.  0.
    5000000    2    1    2    0    0  0.55638442284E+03  0.24701863624E+03 -0.83302634369E+03  0.11935422066E+04  0.60002356363E+03 0.  0.
         23    2    4    4    0    0  0.11480583489E+03 -0.10023912390E+03 -0.50892951747E+03  0.53862902613E+03  0.88790271697E+02 0.  0.
         23    2    4    4    0    0  0.44157858795E+03  0.34725776014E+03 -0.32409682621E+03  0.65491318042E+03  0.91065469934E+02 0.  0.
          2    1    3    3  502    0 -0.36160317227E+03 -0.19614961619E+03 -0.17816357025E+03  0.44830099698E+03  0.00000000000E+00 0. -1.
         -2    1    3    3    0  502 -0.19478125057E+03 -0.50869020054E+02 -0.43777595750E+02  0.20601910267E+03  0.00000000000E+00 0.  1.
         13    1    5    5    0    0  0.79208464686E+00  0.12953956196E+02 -0.70616356103E+02  0.71799039885E+02  0.00000000000E+00 0. -1.
        -13    1    5    5    0    0  0.11401375024E+03 -0.11319308009E+03 -0.43831316137E+03  0.46682998624E+03  0.00000000000E+00 0.  1.
          4    1    6    6  503    0  0.27925691224E+03  0.25426403734E+03 -0.17780515242E+03  0.41743178598E+03  0.00000000000E+00 0. -1.
         -4    1    6    6    0  503  0.16232167571E+03  0.92993722804E+02 -0.14629167379E+03  0.23748139444E+03  0.00000000000E+00 0.  1.
<mgrwt>
<rscale>  0 0.67553652E+03</rscale>
<asrwt>0</asrwt>
<pdfrwt beam="1">  1        2 0.60991907E-01 0.67553652E+03</pdfrwt>
<pdfrwt beam="2">  1       -2 0.22329460E+00 0.67553652E+03</pdfrwt>
<totfact> 0.78066233E+00</totfact>
</mgrwt>
</event>
<event>
12    1  0.1335216E-007  0.5104755E+03  0.7818608E-02  0.1011080E+00
         -2   -1    0    0    0  501 -0.00000000000E+00  0.00000000000E+00  0.29549786230E+03  0.29549786230E+03  0.00000000000E+00 0.  1.
          2   -1    0    0  501    0  0.00000000000E+00 -0.00000000000E+00 -0.44040841201E+04  0.44040841201E+04  0.00000000000E+00 0. -1.
         23    2    1    2    0    0  0.44754529153E+03 -0.14675939321E+03 -0.38711531928E+04  0.39006183739E+04  0.84625935671E+02 0.  0.
    5000000    2    1    2    0    0 -0.44754529153E+03  0.14675939321E+03 -0.23743306497E+03  0.79896360850E+03  0.60011105631E+03 0.  0.
         23    2    4    4    0    0 -0.46260385916E+03  0.17712687790E+03 -0.37535813654E+03  0.62815870952E+03  0.91177696281E+02 0.  0.
         23    2    4    4    0    0  0.15058567628E+02 -0.30367484692E+02  0.13792507157E+03  0.17080489898E+03  0.94879099710E+02 0.  0.
          4    1    3    3  502    0  0.39701374788E+03 -0.15587342639E+03 -0.33867669452E+04  0.34135182411E+04  0.00000000000E+00 0. -1.
         -4    1    3    3    0  502  0.50531543651E+02  0.91140331855E+01 -0.48438624759E+03  0.48710013278E+03  0.00000000000E+00 0.  1.
         11    1    5    5    0    0 -0.18147052316E+03  0.35797470879E+02 -0.17815187034E+03  0.25680945972E+03  0.00000000000E+00 0. -1.
        -11    1    5    5    0    0 -0.28113333600E+03  0.14132940702E+03 -0.19720626620E+03  0.37134924980E+03  0.00000000000E+00 0.  1.
          1    1    6    6  503    0  0.12515817078E+02 -0.35549903331E+02  0.53061852943E+01  0.38060437548E+02  0.00000000000E+00 0. -1.
         -1    1    6    6    0  503  0.25427505497E+01  0.51824186391E+01  0.13261888628E+03  0.13274446143E+03  0.00000000000E+00 0.  1.
<mgrwt>
<rscale>  0 0.51047547E+03</rscale>
<asrwt>0</asrwt>
<pdfrwt beam="1">  1        2 0.67755142E+00 0.51047547E+03</pdfrwt>
<pdfrwt beam="2">  1       -2 0.45461209E-01 0.51047547E+03</pdfrwt>
<totfact> 0.85633040E-01</totfact>
</mgrwt>
</event>
<event>
12    1  0.1335216E-007  0.6702725E+03  0.7818608E-02  0.9769466E-01
          2   -1    0    0  501    0  0.00000000000E+00  0.00000000000E+00  0.12845338814E+04  0.12845338814E+04  0.00000000000E+00 0.  1.
         -2   -1    0    0    0  501 -0.00000000000E+00 -0.00000000000E+00 -0.47833423713E+03  0.47833423713E+03  0.00000000000E+00 0. -1.
         23    2    1    2    0    0 -0.55472257802E+03 -0.27224349221E+03  0.62377223936E+03  0.88250846531E+03  0.88857904129E+02 0.  0.
    5000000    2    1    2    0    0  0.55472257802E+03  0.27224349221E+03  0.18242740495E+03  0.88035965326E+03  0.59993308243E+03 0.  0.
         23    2    4    4    0    0 -0.15402391747E+02  0.89835336719E+02 -0.14267113874E+03  0.19340123547E+03  0.93495254732E+02 0.  0.
         23    2    4    4    0    0  0.57012496976E+03  0.18240815549E+03  0.32509854369E+03  0.68695841778E+03  0.88924621543E+02 0.  0.
          3    1    3    3  502    0 -0.51861209669E+03 -0.22727044877E+03  0.55684185143E+03  0.79415565932E+03  0.00000000000E+00 0. -1.
         -3    1    3    3    0  502 -0.36110481323E+02 -0.44973043436E+02  0.66930387928E+02  0.88352805985E+02  0.00000000000E+00 0.  1.
         13    1    5    5    0    0  0.20969008423E+02  0.63549774981E+02 -0.32404402953E+02  0.74352663336E+02  0.00000000000E+00 0. -1.
        -13    1    5    5    0    0 -0.36371400169E+02  0.26285561737E+02 -0.11026673579E+03  0.11904857214E+03  0.00000000000E+00 0.  1.
          3    1    6    6  503    0  0.13480436639E+03  0.83049211743E+02  0.94920929092E+02  0.18460599001E+03  0.00000000000E+00 0. -1.
         -3    1    6    6    0  503  0.43532060338E+03  0.99358943748E+02  0.23017761460E+03  0.50235242777E+03  0.00000000000E+00 0.  1.
<mgrwt>
<rscale>  0 0.67027252E+03</rscale>
<asrwt>0</asrwt>
<pdfrwt beam="1">  1        2 0.19762060E+00 0.67027252E+03</pdfrwt>
<pdfrwt beam="2">  1       -2 0.73589883E-01 0.67027252E+03</pdfrwt>
<totfact> 0.28933626E+01</totfact>
</mgrwt>
</event>
<event>
12    1  0.1335216E-007  0.1238819E+04  0.7818608E-02  0.9079541E-01
          2   -1    0    0  501    0  0.00000000000E+00  0.00000000000E+00  0.17835959908E+04  0.17835959908E+04  0.00000000000E+00 0. -1.
         -2   -1    0    0    0  501 -0.00000000000E+00 -0.00000000000E+00 -0.13086989024E+04  0.13086989024E+04  0.00000000000E+00 0.  1.
         23    2    1    2    0    0 -0.94871402923E+03  0.72720571290E+03  0.10895752412E+04  0.16201088353E+04  0.93230756984E+02 0.  0.
    5000000    2    1    2    0    0  0.94871402923E+03 -0.72720571290E+03 -0.61467815273E+03  0.14721860578E+04  0.60051319660E+03 0.  0.
         23    2    4    4    0    0  0.32194431813E+03 -0.52991354511E+03 -0.49499565390E+03  0.79865570156E+03  0.91508048717E+02 0.  0.
         23    2    4    4    0    0  0.62676971110E+03 -0.19729216779E+03 -0.11968249883E+03  0.67353035627E+03  0.86918180361E+02 0.  0.
          4    1    3    3  502    0 -0.46738618563E+03  0.30459963647E+03  0.53249338064E+03  0.77121980361E+03  0.00000000000E+00 0. -1.
         -4    1    3    3    0  502 -0.48132784360E+03  0.42260607643E+03  0.55708186051E+03  0.84888903171E+03  0.00000000000E+00 0.  1.
         11    1    5    5    0    0  0.26607593461E+03 -0.44584326065E+03 -0.45401973958E+03  0.68971482511E+03  0.00000000000E+00 0.  1.
        -11    1    5    5    0    0  0.55868383523E+02 -0.84070284464E+02 -0.40975914316E+02  0.10894087645E+03  0.00000000000E+00 0. -1.
          1    1    6    6  503    0  0.47957430625E+03 -0.17343033277E+03 -0.62333434997E+02  0.51376556197E+03  0.00000000000E+00 0. -1.
         -1    1    6    6    0  503  0.14719540484E+03 -0.23861835016E+02 -0.57349063838E+02  0.15976479431E+03  0.00000000000E+00 0.  1.
<mgrwt>
<rscale>  0 0.12388189E+04</rscale>
<asrwt>0</asrwt>
<pdfrwt beam="1">  1        2 0.27439938E+00 0.12388189E+04</pdfrwt>
<pdfrwt beam="2">  1       -2 0.20133829E+00 0.12388189E+04</pdfrwt>
<totfact> 0.11094238E+00</totfact>
</mgrwt>
</event>
<event>
12    1  0.1335216E-007  0.6320918E+03  0.7818608E-02  0.9840975E-01
         -2   -1    0    0    0  501 -0.00000000000E+00  0.00000000000E+00  0.17541855198E+03  0.17541855198E+03  0.00000000000E+00 0.  1.
          2   -1    0    0  501    0  0.00000000000E+00 -0.00000000000E+00 -0.24333447292E+04  0.24333447292E+04  0.00000000000E+00 0. -1.
         23    2    1    2    0    0 -0.46189685146E+03  0.20250135902E+03 -0.73679935823E+03  0.89755216055E+03  0.91493632728E+02 0.  0.
    5000000    2    1    2    0    0  0.46189685146E+03 -0.20250135902E+03 -0.15211268190E+04  0.17112111207E+04  0.60005099628E+03 0.  0.
         23    2    4    4    0    0 -0.25971703019E+02  0.13980014437E+03 -0.24321019429E+03  0.29811058140E+03  0.97468509829E+02 0.  0.
         23    2    4    4    0    0  0.48786855448E+03 -0.34230150339E+03 -0.12779166247E+04  0.14131005393E+04  0.92715633223E+02 0.  0.
          1    1    3    3  502    0 -0.14502592473E+03  0.75290706153E+02 -0.16963414676E+03  0.23553546022E+03  0.00000000000E+00 0. -1.
         -1    1    3    3    0  502 -0.31687092673E+03  0.12721065287E+03 -0.56716521147E+03  0.66201670033E+03  0.00000000000E+00 0.  1.
         11    1    5    5    0    0  0.12907893246E+02  0.11177333773E+03 -0.21455881648E+03  0.24227129105E+03  0.00000000000E+00 0. -1.
        -11    1    5    5    0    0 -0.38879596265E+02  0.28026806636E+02 -0.28651377811E+02  0.55839290347E+02  0.00000000000E+00 0.  1.
          2    1    6    6  503    0  0.33231630828E+03 -0.26577680903E+03 -0.82804515613E+03  0.93098347007E+03  0.00000000000E+00 0.  1.
         -2    1    6    6    0  503  0.15555224620E+03 -0.76524694363E+02 -0.44987146859E+03  0.48211706918E+03  0.00000000000E+00 0. -1.
<mgrwt>
<rscale>  0 0.63209176E+03</rscale>
<asrwt>0</asrwt>
<pdfrwt beam="1">  1        2 0.37436071E+00 0.63209176E+03</pdfrwt>
<pdfrwt beam="2">  1       -2 0.26987471E-01 0.63209176E+03</pdfrwt>
<totfact> 0.50130107E+01</totfact>
</mgrwt>
</event>
<event>
12    1  0.1335216E-007  0.1778039E+04  0.7818608E-02  0.8718066E-01
          1   -1    0    0  501    0  0.00000000000E+00  0.00000000000E+00  0.29939614192E+04  0.29939614192E+04  0.00000000000E+00 0. -1.
         -1   -1    0    0    0  501 -0.00000000000E+00 -0.00000000000E+00 -0.14440589831E+04  0.14440589831E+04  0.00000000000E+00 0.  1.
         23    2    1    2    0    0  0.45534056094E+03 -0.16700891125E+04  0.19010009463E+04  0.25726549159E+04  0.90642418444E+02 0.  0.
    5000000    2    1    2    0    0 -0.45534056094E+03  0.16700891125E+04 -0.35109851015E+03  0.18653654864E+04  0.59982127664E+03 0.  0.
         23    2    4    4    0    0 -0.26498079205E+02  0.11341476853E+04 -0.18641867302E+03  0.11532129659E+04  0.90305606995E+02 0.  0.
         23    2    4    4    0    0 -0.42884248174E+03  0.53594142719E+03 -0.16467983713E+03  0.71215252055E+03  0.94353994368E+02 0.  0.
          1    1    3    3  502    0  0.14083626535E+03 -0.51426608760E+03  0.64866447248E+03  0.83968450049E+03  0.00000000000E+00 0. -1.
         -1    1    3    3    0  502  0.31450429559E+03 -0.11558230249E+04  0.12523364738E+04  0.17329704154E+04  0.00000000000E+00 0.  1.
         11    1    5    5    0    0 -0.31198581902E+02  0.11174527740E+04 -0.17280796165E+03  0.11311660556E+04  0.00000000000E+00 0.  1.
        -11    1    5    5    0    0  0.47005026963E+01  0.16694911301E+02 -0.13610711374E+02  0.22046910283E+02  0.00000000000E+00 0. -1.
          4    1    6    6  503    0 -0.36309813340E+03  0.40957049372E+03 -0.15734720762E+03  0.56951416800E+03  0.00000000000E+00 0. -1.
         -4    1    6    6    0  503 -0.65744348332E+02  0.12637093347E+03 -0.73326295120E+01  0.14263835255E+03  0.00000000000E+00 0.  1.
<mgrwt>
<rscale>  0 0.17780393E+04</rscale>
<asrwt>0</asrwt>
<pdfrwt beam="1">  1        1 0.46060945E+00 0.17780393E+04</pdfrwt>
<pdfrwt beam="2">  1       -1 0.22216292E+00 0.17780393E+04</pdfrwt>
<totfact> 0.58735302E-02</totfact>
</mgrwt>
</event>
<event>
12    1  0.1335216E-007  0.1579521E+04  0.7818608E-02  0.8833229E-01
          1   -1    0    0  501    0  0.00000000000E+00  0.00000000000E+00  0.20271743646E+04  0.20271743646E+04  0.00000000000E+00 0. -1.
         -1   -1    0    0    0  501 -0.00000000000E+00 -0.00000000000E+00 -0.13683831156E+04  0.13683831156E+04  0.00000000000E+00 0.  1.
         23    2    1    2    0    0  0.10959917750E+04  0.10712869710E+04  0.82221423726E+03  0.17416000575E+04  0.90998698481E+02 0.  0.
    5000000    2    1    2    0    0 -0.10959917750E+04 -0.10712869710E+04 -0.16342298827E+03  0.16539574228E+04  0.60001194821E+03 0.  0.
         23    2    4    4    0    0 -0.42323732663E+03 -0.77223722127E+03 -0.21400759633E+03  0.91081716344E+03  0.91150937276E+02 0.  0.
         23    2    4    4    0    0 -0.67275444841E+03 -0.29904974976E+03  0.50584608054E+02  0.74314025933E+03  0.87574778197E+02 0.  0.
          1    1    3    3  502    0  0.24543822545E+03  0.18889478542E+03  0.16540282510E+03  0.35111145955E+03  0.00000000000E+00 0. -1.
         -1    1    3    3    0  502  0.85055354959E+03  0.88239218560E+03  0.65681141216E+03  0.13904885980E+04  0.00000000000E+00 0.  1.
         13    1    5    5    0    0 -0.18613706701E+03 -0.26387571417E+03 -0.53073637220E+02  0.32725251903E+03  0.00000000000E+00 0. -1.
        -13    1    5    5    0    0 -0.23710025962E+03 -0.50836150710E+03 -0.16093395910E+03  0.58356464441E+03  0.00000000000E+00 0.  1.
          4    1    6    6  503    0 -0.47774171870E+03 -0.17509060434E+03  0.12661480773E+02  0.50897365611E+03  0.00000000000E+00 0. -1.
         -4    1    6    6    0  503 -0.19501272971E+03 -0.12395914542E+03  0.37923127282E+02  0.23416660322E+03  0.00000000000E+00 0.  1.
<mgrwt>
<rscale>  0 0.15795212E+04</rscale>
<asrwt>0</asrwt>
<pdfrwt beam="1">  1        1 0.31187298E+00 0.15795212E+04</pdfrwt>
<pdfrwt beam="2">  1       -1 0.21052048E+00 0.15795212E+04</pdfrwt>
<totfact> 0.34107495E-01</totfact>
</mgrwt>
</event>
<event>
12    1  0.1335216E-007  0.9323885E+03  0.7818608E-02  0.9385976E-01
          1   -1    0    0  501    0  0.00000000000E+00  0.00000000000E+00  0.11734719666E+04  0.11734719666E+04  0.00000000000E+00 0. -1.
         -1   -1    0    0    0  501 -0.00000000000E+00 -0.00000000000E+00 -0.88294971238E+03  0.88294971238E+03  0.00000000000E+00 0.  1.
         23    2    1    2    0    0 -0.25589506586E+03  0.88413056271E+03  0.24638250543E+03  0.95681528745E+03  0.87304173331E+02 0.  0.
    5000000    2    1    2    0    0  0.25589506586E+03 -0.88413056271E+03  0.44139748807E+02  0.10996063915E+04  0.60001396838E+03 0.  0.
         23    2    4    4    0    0  0.18311861360E+03 -0.38384891725E+03 -0.25592476604E+03  0.50485449480E+03  0.92239672173E+02 0.  0.
         23    2    4    4    0    0  0.72776452265E+02 -0.50028164545E+03  0.30006451484E+03  0.59475189675E+03  0.90072020272E+02 0.  0.
          1    1    3    3  502    0 -0.16925188112E+03  0.45475948994E+03  0.10425172097E+03  0.49630717734E+03  0.00000000000E+00 0. -1.
         -1    1    3    3    0  502 -0.86643184742E+02  0.42937107277E+03  0.14213078446E+03  0.46050811012E+03  0.00000000000E+00 0.  1.
         13    1    5    5    0    0  0.18617410165E+03 -0.31590612937E+03 -0.20704206632E+03  0.42109843971E+03  0.00000000000E+00 0. -1.
        -13    1    5    5    0    0 -0.30554880499E+01 -0.67942787883E+02 -0.48882699712E+02  0.83756055087E+02  0.00000000000E+00 0.  1.
          2    1    6    6  503    0  0.58737365669E+02 -0.28011461625E+03  0.21639247988E+03  0.35880354194E+03  0.00000000000E+00 0. -1.
         -2    1    6    6    0  503  0.14039086595E+02 -0.22016702920E+03  0.83672034966E+02  0.23594835481E+03  0.00000000000E+00 0.  1.
<mgrwt>
<rscale>  0 0.93238845E+03</rscale>
<asrwt>0</asrwt>
<pdfrwt beam="1">  1        1 0.18053415E+00 0.93238845E+03</pdfrwt>
<pdfrwt beam="2">  1       -1 0.13583842E+00 0.93238845E+03</pdfrwt>
<totfact> 0.51248087E+00</totfact>
</mgrwt>
</event>
<event>
12    1  0.1335216E-007  0.8712910E+03  0.7818608E-02  0.9462198E-01
          2   -1    0    0  501    0  0.00000000000E+00  0.00000000000E+00  0.24008726345E+04  0.24008726345E+04  0.00000000000E+00 0. -1.
         -2   -1    0    0    0  501 -0.00000000000E+00 -0.00000000000E+00 -0.36127274949E+03  0.36127274949E+03  0.00000000000E+00 0.  1.
         23    2    1    2    0    0 -0.25428560879E+02 -0.78048153589E+03  0.13422658791E+04  0.15553222150E+04  0.86899153307E+02 0.  0.
    5000000    2    1    2    0    0  0.25428560879E+02  0.78048153589E+03  0.69733400589E+03  0.12068231689E+04  0.60029110080E+03 0.  0.
         23    2    4    4    0    0 -0.23560475988E+03  0.18689629532E+03  0.33648769762E+03  0.45959057464E+03  0.86946521316E+02 0.  0.
         23    2    4    4    0    0  0.26103332076E+03  0.59358524057E+03  0.36084630827E+03  0.74723259428E+03  0.87548040469E+02 0.  0.
          1    1    3    3  502    0 -0.34420304595E+02 -0.58364716049E+03  0.93223797538E+03  0.11004073828E+04  0.00000000000E+00 0. -1.
         -1    1    3    3    0  502  0.89917437153E+01 -0.19683437540E+03  0.41002790373E+03  0.45491483228E+03  0.00000000000E+00 0.  1.
         13    1    5    5    0    0 -0.64848803255E+02  0.95351757769E+02  0.16202224826E+03  0.19886813200E+03  0.00000000000E+00 0. -1.
        -13    1    5    5    0    0 -0.17075595662E+03  0.91544537550E+02  0.17446544936E+03  0.26072244264E+03  0.00000000000E+00 0.  1.
          1    1    6    6  503    0  0.13936983445E+03  0.39569136146E+03  0.26316990858E+03  0.49523126423E+03  0.00000000000E+00 0. -1.
         -1    1    6    6    0  503  0.12166348630E+03  0.19789387911E+03  0.97676399689E+02  0.25200133005E+03  0.00000000000E+00 0.  1.
<mgrwt>
<rscale>  0 0.87129099E+03</rscale>
<asrwt>0</asrwt>
<pdfrwt beam="1">  1        2 0.36936501E+00 0.87129099E+03</pdfrwt>
<pdfrwt beam="2">  1       -2 0.55580424E-01 0.87129099E+03</pdfrwt>
<totfact> 0.12400111E+01</totfact>
</mgrwt>
</event>
<event>
12    1  0.1335216E-007  0.1135268E+04  0.7818608E-02  0.9171483E-01
          2   -1    0    0  501    0  0.00000000000E+00  0.00000000000E+00  0.41750293425E+04  0.41750293425E+04  0.00000000000E+00 0. -1.
         -2   -1    0    0    0  501 -0.00000000000E+00 -0.00000000000E+00 -0.45436643365E+03  0.45436643365E+03  0.00000000000E+00 0.  1.
         23    2    1    2    0    0 -0.91285122058E+03  0.64995295802E+03  0.63277566979E+03  0.12901663423E+04  0.91585719437E+02 0.  0.
    5000000    2    1    2    0    0  0.91285122058E+03 -0.64995295802E+03  0.30878872391E+04  0.33392294339E+04  0.59972444680E+03 0.  0.
         23    2    4    4    0    0  0.51330475673E+03 -0.22412489389E+03  0.83281758612E+03  0.10080020500E+04  0.93644325490E+02 0.  0.
         23    2    4    4    0    0  0.39954646385E+03 -0.42582806414E+03  0.22550696530E+04  0.23312273839E+04  0.91186943106E+02 0.  0.
          4    1    3    3  502    0 -0.60593264636E+03  0.37731155783E+03  0.40129257068E+03  0.81887368433E+03  0.00000000000E+00 0. -1.
         -4    1    3    3    0  502 -0.30691857422E+03  0.27264140020E+03  0.23148309911E+03  0.47129265799E+03  0.00000000000E+00 0.  1.
         11    1    5    5    0    0  0.16781612461E+03 -0.98519161968E+02  0.35844499431E+03  0.40786160753E+03  0.00000000000E+00 0. -1.
        -11    1    5    5    0    0  0.34548863211E+03 -0.12560573192E+03  0.47437259181E+03  0.60014044245E+03  0.00000000000E+00 0.  1.
          1    1    6    6  503    0  0.88871023122E+02 -0.89349487764E+02  0.35365772434E+03  0.37543997616E+03  0.00000000000E+00 0.  1.
         -1    1    6    6    0  503  0.31067544073E+03 -0.33647857637E+03  0.19014119286E+04  0.19557874077E+04  0.00000000000E+00 0. -1.
<mgrwt>
<rscale>  0 0.11352675E+04</rscale>
<asrwt>0</asrwt>
<pdfrwt beam="1">  1        2 0.64231218E+00 0.11352675E+04</pdfrwt>
<pdfrwt beam="2">  1       -2 0.69902531E-01 0.11352675E+04</pdfrwt>
<totfact> 0.47148157E-01</totfact>
</mgrwt>
</event>
<event>
12    1  0.1335216E-007  0.1103646E+04  0.7818608E-02  0.9201645E-01
         -1   -1    0    0    0  501 -0.00000000000E+00  0.00000000000E+00  0.89407893567E+03  0.89407893567E+03  0.00000000000E+00 0.  1.
          1   -1    0    0  501    0  0.00000000000E+00 -0.00000000000E+00 -0.19706625817E+04  0.19706625817E+04  0.00000000000E+00 0. -1.
         23    2    1    2    0    0  0.71617440273E+03  0.81598199905E+03 -0.11969257853E+04  0.16184962822E+04  0.90368590306E+02 0.  0.
    5000000    2    1    2    0    0 -0.71617440273E+03 -0.81598199905E+03  0.12034213928E+03  0.12462452351E+04  0.59992712702E+03 0.  0.
         23    2    4    4    0    0 -0.49753453687E+03 -0.68399031434E+03 -0.14943600064E+03  0.86371290055E+03  0.91024671391E+02 0.  0.
         23    2    4    4    0    0 -0.21863986586E+03 -0.13199168471E+03  0.26977813992E+03  0.38253233460E+03  0.91244432456E+02 0.  0.
          4    1    3    3  502    0  0.35541219096E+03  0.46491019922E+03 -0.61132292130E+03  0.84627125258E+03  0.00000000000E+00 0.  1.
         -4    1    3    3    0  502  0.36076221177E+03  0.35107179983E+03 -0.58560286398E+03  0.77222502962E+03  0.00000000000E+00 0. -1.
         11    1    5    5    0    0 -0.29707936003E+03 -0.45242136003E+03 -0.13106787559E+03  0.55688420805E+03  0.00000000000E+00 0.  1.
        -11    1    5    5    0    0 -0.20045517683E+03 -0.23156895431E+03 -0.18368125047E+02  0.30682869250E+03  0.00000000000E+00 0. -1.
          1    1    6    6  503    0 -0.11495735545E+03 -0.12103079538E+03  0.16390712491E+03  0.23394271221E+03  0.00000000000E+00 0. -1.
         -1    1    6    6    0  503 -0.10368251041E+03 -0.10960889337E+02  0.10587101501E+03  0.14858962238E+03  0.00000000000E+00 0.  1.
<mgrwt>
<rscale>  0 0.11036464E+04</rscale>
<asrwt>0</asrwt>
<pdfrwt beam="1">  1        1 0.30317886E+00 0.11036464E+04</pdfrwt>
<pdfrwt beam="2">  1       -1 0.13755061E+00 0.11036464E+04</pdfrwt>
<totfact> 0.13634509E+00</totfact>
</mgrwt>
</event>
<event>
12    1  0.1335216E-007  0.5656817E+03  0.7818608E-02  0.9979280E-01
          2   -1    0    0  501    0  0.00000000000E+00  0.00000000000E+00  0.11003419203E+04  0.11003419203E+04  0.00000000000E+00 0. -1.
         -2   -1    0    0    0  501 -0.00000000000E+00 -0.00000000000E+00 -0.32987914161E+03  0.32987914161E+03  0.00000000000E+00 0.  1.
         23    2    1    2    0    0  0.29806603667E+02 -0.40608900359E+03  0.51196455718E+03  0.66037995515E+03  0.90538748078E+02 0.  0.
    5000000    2    1    2    0    0 -0.29806603667E+02  0.40608900359E+03  0.25849822157E+03  0.76984110681E+03  0.60003107146E+03 0.  0.
         23    2    4    4    0    0 -0.23494994456E+03 -0.74092484198E+01  0.11605738579E+03  0.27744755587E+03  0.90837525589E+02 0.  0.
         23    2    4    4    0    0  0.20514334089E+03  0.41349825201E+03  0.14244083578E+03  0.49239355093E+03  0.95380409797E+02 0.  0.
          1    1    3    3  502    0 -0.28748816028E+02 -0.21628226611E+03  0.28063571939E+03  0.35547281198E+03  0.00000000000E+00 0. -1.
         -1    1    3    3    0  502  0.58555419695E+02 -0.18980673748E+03  0.23132883779E+03  0.30490714317E+03  0.00000000000E+00 0.  1.
         13    1    5    5    0    0 -0.85550001202E+02  0.27948230901E+02  0.93587943852E+01  0.90484768599E+02  0.00000000000E+00 0.  1.
        -13    1    5    5    0    0 -0.14939994336E+03 -0.35357479320E+02  0.10669859140E+03  0.18696278728E+03  0.00000000000E+00 0. -1.
          1    1    6    6  503    0  0.18815038056E+03  0.28565850529E+03  0.11151105236E+03  0.35977223649E+03  0.00000000000E+00 0. -1.
         -1    1    6    6    0  503  0.16992960332E+02  0.12783974672E+03  0.30929783422E+02  0.13262131444E+03  0.00000000000E+00 0.  1.
<mgrwt>
<rscale>  0 0.56568169E+03</rscale>
<asrwt>0</asrwt>
<pdfrwt beam="1">  1        2 0.16928337E+00 0.56568169E+03</pdfrwt>
<pdfrwt beam="2">  1       -2 0.50750638E-01 0.56568169E+03</pdfrwt>
<totfact> 0.82542640E+01</totfact>
</mgrwt>
</event>
<event>
12    1  0.1335216E-007  0.1100037E+04  0.7818608E-02  0.9205156E-01
         -2   -1    0    0    0  501 -0.00000000000E+00  0.00000000000E+00  0.69858900849E+03  0.69858900849E+03  0.00000000000E+00 0.  1.
          2   -1    0    0  501    0  0.00000000000E+00 -0.00000000000E+00 -0.17998959435E+04  0.17998959435E+04  0.00000000000E+00 0. -1.
         23    2    1    2    0    0 -0.10314215849E+04  0.92497927639E+02 -0.60529691559E+03  0.12029108649E+04  0.90685392843E+02 0.  0.
    5000000    2    1    2    0    0  0.10314215849E+04 -0.92497927639E+02 -0.49601001939E+03  0.12955740870E+04  0.60008326361E+03 0.  0.
         23    2    4    4    0    0  0.10830002698E+04 -0.10636842334E+03 -0.41155643379E+03  0.11669756545E+04  0.90827607421E+02 0.  0.
         23    2    4    4    0    0 -0.51578684870E+02  0.13870495696E+02 -0.84453585603E+02  0.12859843251E+03  0.80946879738E+02 0.  0.
          2    1    3    3  502    0 -0.17886671046E+03 -0.75454074572E+01 -0.13412913073E+03  0.22369813812E+03  0.00000000000E+00 0. -1.
         -2    1    3    3    0  502 -0.85255487444E+03  0.10004333510E+03 -0.47116778485E+03  0.97921272679E+03  0.00000000000E+00 0.  1.
         13    1    5    5    0    0  0.26447063358E+03  0.94557371049E+01 -0.82384792046E+02  0.27716670246E+03  0.00000000000E+00 0. -1.
        -13    1    5    5    0    0  0.81852963619E+03 -0.11582416044E+03 -0.32917164174E+03  0.88980895208E+03  0.00000000000E+00 0.  1.
          3    1    6    6  503    0  0.91373826509E+01  0.51441595505E+00  0.11233462838E+02  0.14489550470E+02  0.00000000000E+00 0. -1.
         -3    1    6    6    0  503 -0.60716067521E+02  0.13356079741E+02 -0.95687048441E+02  0.11410888204E+03  0.00000000000E+00 0.  1.
<mgrwt>
<rscale>  0 0.11000367E+04</rscale>
<asrwt>0</asrwt>
<pdfrwt beam="1">  1        2 0.27690707E+00 0.11000367E+04</pdfrwt>
<pdfrwt beam="2">  1       -2 0.10747523E+00 0.11000367E+04</pdfrwt>
<totfact> 0.59179257E+00</totfact>
</mgrwt>
</event>
<event>
12    1  0.1335216E-007  0.1252002E+04  0.7818608E-02  0.9068519E-01
         -1   -1    0    0    0  501 -0.00000000000E+00  0.00000000000E+00  0.22919507766E+04  0.22919507766E+04  0.00000000000E+00 0.  1.
          1   -1    0    0  501    0  0.00000000000E+00 -0.00000000000E+00 -0.11698424742E+04  0.11698424742E+04  0.00000000000E+00 0. -1.
         23    2    1    2    0    0 -0.43900944938E+03 -0.11563996343E+04 -0.49839384219E+03  0.13366738145E+04  0.91164980371E+02 0.  0.
    5000000    2    1    2    0    0  0.43900944938E+03  0.11563996343E+04  0.16205021447E+04  0.21251194363E+04  0.60009666462E+03 0.  0.
         23    2    4    4    0    0  0.42411179958E+03  0.10481434393E+04  0.16231312379E+04  0.19802062995E+04  0.90479198900E+02 0.  0.
         23    2    4    4    0    0  0.14897649801E+02  0.10825619496E+03 -0.26290932099E+01  0.14491313677E+03  0.95139693927E+02 0.  0.
          3    1    3    3  502    0 -0.44206256889E+02 -0.21292213018E+03 -0.82052706018E+02  0.23242778069E+03  0.00000000000E+00 0. -1.
         -3    1    3    3    0  502 -0.39480319249E+03 -0.94347750410E+03 -0.41634113617E+03  0.11042460338E+04  0.00000000000E+00 0.  1.
         11    1    5    5    0    0  0.35383584261E+03  0.87322293859E+03  0.14080988064E+04  0.16942432979E+04  0.00000000000E+00 0.  1.
        -11    1    5    5    0    0  0.70275956972E+02  0.17492050073E+03  0.21503243149E+03  0.28596300163E+03  0.00000000000E+00 0. -1.
          1    1    6    6  503    0 -0.10250765526E+02  0.10744280339E+03  0.21500509533E+02  0.11005137938E+03  0.00000000000E+00 0. -1.
         -1    1    6    6    0  503  0.25148415327E+02  0.81339156617E+00 -0.24129602743E+02  0.34861757383E+02  0.00000000000E+00 0.  1.
<mgrwt>
<rscale>  0 0.12520017E+04</rscale>
<asrwt>0</asrwt>
<pdfrwt beam="1">  1        1 0.17997577E+00 0.12520017E+04</pdfrwt>
<pdfrwt beam="2">  1       -1 0.35260781E+00 0.12520017E+04</pdfrwt>
<totfact> 0.16469977E-01</totfact>
</mgrwt>
</event>
<event>
12    1  0.1335216E-007  0.9773938E+03  0.7818608E-02  0.9333692E-01
         -1   -1    0    0    0  501 -0.00000000000E+00  0.00000000000E+00  0.76388229023E+03  0.76388229023E+03  0.00000000000E+00 0.  1.
          1   -1    0    0  501    0  0.00000000000E+00 -0.00000000000E+00 -0.13422707393E+04  0.13422707393E+04  0.00000000000E+00 0. -1.
         23    2    1    2    0    0 -0.86319293909E+03  0.22116747707E+03 -0.50758802957E+03  0.10294693140E+04  0.90246095550E+02 0.  0.
    5000000    2    1    2    0    0  0.86319293909E+03 -0.22116747707E+03 -0.70800419469E+02  0.10766837155E+04  0.60018165648E+03 0.  0.
         23    2    4    4    0    0 -0.62048247171E+02 -0.75889193723E+01  0.35588424641E+02  0.11721627906E+03  0.92550221145E+02 0.  0.
         23    2    4    4    0    0  0.92524118626E+03 -0.21357855770E+03 -0.10638884411E+03  0.95946743642E+03  0.87017942619E+02 0.  0.
          1    1    3    3  502    0 -0.37307117461E+03  0.94365471366E+02 -0.27092610206E+03  0.47062500602E+03  0.00000000000E+00 0. -1.
         -1    1    3    3    0  502 -0.49012176448E+03  0.12680200571E+03 -0.23666192751E+03  0.55884430801E+03  0.00000000000E+00 0.  1.
         13    1    5    5    0    0 -0.72550324112E+02  0.24756583301E+02  0.31822568473E+02  0.83000685597E+02  0.00000000000E+00 0. -1.
        -13    1    5    5    0    0  0.10502076941E+02 -0.32345502674E+02  0.37658561685E+01  0.34215593462E+02  0.00000000000E+00 0.  1.
          2    1    6    6  503    0  0.76248099107E+03 -0.14364427624E+03 -0.74387065955E+02  0.77945132973E+03  0.00000000000E+00 0. -1.
         -2    1    6    6    0  503  0.16276019518E+03 -0.69934281461E+02 -0.32001778155E+02  0.18001610668E+03  0.00000000000E+00 0.  1.
<mgrwt>
<rscale>  0 0.97739382E+03</rscale>
<asrwt>0</asrwt>
<pdfrwt beam="1">  1        1 0.20650319E+00 0.97739382E+03</pdfrwt>
<pdfrwt beam="2">  1       -1 0.11752035E+00 0.97739382E+03</pdfrwt>
<totfact> 0.55358227E+00</totfact>
</mgrwt>
</event>
<event>
12    1  0.1335216E-007  0.1163160E+04  0.7818608E-02  0.9145728E-01
         -2   -1    0    0    0  501 -0.00000000000E+00  0.00000000000E+00  0.12551587739E+04  0.12551587739E+04  0.00000000000E+00 0.  1.
          2   -1    0    0  501    0  0.00000000000E+00 -0.00000000000E+00 -0.11274060053E+04  0.11274060053E+04  0.00000000000E+00 0. -1.
         23    2    1    2    0    0 -0.38036932605E+03 -0.10294532579E+04  0.23811096703E+03  0.11269349519E+04  0.93971904218E+02 0.  0.
    5000000    2    1    2    0    0  0.38036932605E+03  0.10294532579E+04 -0.11035819842E+03  0.12556298272E+04  0.59997707991E+03 0.  0.
         23    2    4    4    0    0  0.48964387302E+03  0.93144575403E+03 -0.17422576670E+03  0.10704467044E+04  0.90328367939E+02 0.  0.
         23    2    4    4    0    0 -0.10927454697E+03  0.98007503915E+02  0.63867568276E+02  0.18518312278E+03  0.93098470706E+02 0.  0.
          3    1    3    3  502    0 -0.84158609730E+02 -0.22882723952E+03  0.93408824036E+02  0.26109344218E+03  0.00000000000E+00 0. -1.
         -3    1    3    3    0  502 -0.29621071632E+03 -0.80062601842E+03  0.14470214299E+03  0.86584150976E+03  0.00000000000E+00 0.  1.
         11    1    5    5    0    0  0.34227509748E+03  0.57267922731E+03 -0.13420922806E+03  0.68053350883E+03  0.00000000000E+00 0. -1.
        -11    1    5    5    0    0  0.14736877554E+03  0.35876652672E+03 -0.40016538642E+02  0.38991319555E+03  0.00000000000E+00 0.  1.
          1    1    6    6  503    0 -0.57083332801E+02  0.10660423910E+03  0.44144856809E+02  0.12873126684E+03  0.00000000000E+00 0. -1.
         -1    1    6    6    0  503 -0.52191214169E+02 -0.85967351897E+01  0.19722711467E+02  0.56451855948E+02  0.00000000000E+00 0.  1.
<mgrwt>
<rscale>  0 0.11631598E+04</rscale>
<asrwt>0</asrwt>
<pdfrwt beam="1">  1        2 0.17344708E+00 0.11631598E+04</pdfrwt>
<pdfrwt beam="2">  1       -2 0.19310135E+00 0.11631598E+04</pdfrwt>
<totfact> 0.30192675E+00</totfact>
</mgrwt>
</event>
<event>
12    1  0.1335216E-007  0.8038432E+03  0.7818608E-02  0.9554471E-01
         -2   -1    0    0    0  501 -0.00000000000E+00  0.00000000000E+00  0.33057840297E+03  0.33057840297E+03  0.00000000000E+00 0.  1.
          2   -1    0    0  501    0  0.00000000000E+00 -0.00000000000E+00 -0.35545988853E+04  0.35545988853E+04  0.00000000000E+00 0. -1.
         23    2    1    2    0    0 -0.27446527131E+03  0.70211218361E+03 -0.31658221131E+03  0.82226078875E+03  0.87153913639E+02 0.  0.
    5000000    2    1    2    0    0  0.27446527131E+03 -0.70211218361E+03 -0.29074382710E+04  0.30629164995E+04  0.59997289916E+03 0.  0.
         23    2    4    4    0    0 -0.41223515744E+01 -0.49262969688E+03 -0.23274096468E+04  0.23806230637E+04  0.88484436534E+02 0.  0.
         23    2    4    4    0    0  0.27858762289E+03 -0.20948248673E+03 -0.58002862423E+03  0.68229343580E+03  0.87161641457E+02 0.  0.
          2    1    3    3  502    0 -0.20206506719E+03  0.60066494748E+03 -0.27546495818E+03  0.69102070425E+03  0.00000000000E+00 0. -1.
         -2    1    3    3    0  502 -0.72400204120E+02  0.10144723613E+03 -0.41117253132E+02  0.13124008450E+03  0.00000000000E+00 0.  1.
         13    1    5    5    0    0 -0.43028689638E+02 -0.20261436288E+03 -0.10308927145E+04  0.10514959995E+04  0.00000000000E+00 0.  1.
        -13    1    5    5    0    0  0.38906338064E+02 -0.29001533400E+03 -0.12965169323E+04  0.13291270642E+04  0.00000000000E+00 0. -1.
          3    1    6    6  503    0  0.14286391325E+03 -0.90858078398E+02 -0.36022205421E+03  0.39802665295E+03  0.00000000000E+00 0. -1.
         -3    1    6    6    0  503  0.13572370964E+03 -0.11862440833E+03 -0.21980657001E+03  0.28426678285E+03  0.00000000000E+00 0.  1.
<mgrwt>
<rscale>  0 0.80384321E+03</rscale>
<asrwt>0</asrwt>
<pdfrwt beam="1">  1        2 0.54686139E+00 0.80384321E+03</pdfrwt>
<pdfrwt beam="2">  1       -2 0.50858214E-01 0.80384321E+03</pdfrwt>
<totfact> 0.29263164E+00</totfact>
</mgrwt>
</event>
<event>
12    1  0.1335216E-007  0.7190014E+03  0.7818608E-02  0.9685278E-01
          2   -1    0    0  501    0  0.00000000000E+00  0.00000000000E+00  0.13597665880E+04  0.13597665880E+04  0.00000000000E+00 0. -1.
         -2   -1    0    0    0  501 -0.00000000000E+00 -0.00000000000E+00 -0.40787885789E+03  0.40787885789E+03  0.00000000000E+00 0.  1.
         23    2    1    2    0    0 -0.22122939287E+03 -0.56649842971E+03  0.54313617328E+03  0.82055885963E+03  0.91962080511E+02 0.  0.
    5000000    2    1    2    0    0  0.22122939287E+03  0.56649842971E+03  0.40875155680E+03  0.94708658623E+03  0.60002687564E+03 0.  0.
         23    2    4    4    0    0  0.40883805432E+03  0.41383825056E+03  0.22282663852E+03  0.62952263180E+03  0.90754508543E+02 0.  0.
         23    2    4    4    0    0 -0.18760866145E+03  0.15266017915E+03  0.18592491827E+03  0.31756395443E+03  0.88185314942E+02 0.  0.
          2    1    3    3  502    0 -0.38329632812E+02 -0.11213562138E+03  0.15786952282E+03  0.19739894774E+03  0.00000000000E+00 0. -1.
         -2    1    3    3    0  502 -0.18289976006E+03 -0.45436280834E+03  0.38526665046E+03  0.62315991189E+03  0.00000000000E+00 0.  1.
         11    1    5    5    0    0  0.40710226143E+03  0.41694470062E+03  0.21536259685E+03  0.62125371851E+03  0.00000000000E+00 0. -1.
        -11    1    5    5    0    0  0.17357928941E+01 -0.31064500600E+01  0.74640416710E+01  0.82689132909E+01  0.00000000000E+00 0.  1.
          4    1    6    6  503    0 -0.13073873583E+02  0.21210923776E+02 -0.72153289618E+01  0.25940131648E+02  0.00000000000E+00 0. -1.
         -4    1    6    6    0  503 -0.17453478786E+03  0.13144925537E+03  0.19314024723E+03  0.29162382278E+03  0.00000000000E+00 0.  1.
<mgrwt>
<rscale>  0 0.71900139E+03</rscale>
<asrwt>0</asrwt>
<pdfrwt beam="1">  1        2 0.20919486E+00 0.71900139E+03</pdfrwt>
<pdfrwt beam="2">  1       -2 0.62750594E-01 0.71900139E+03</pdfrwt>
<totfact> 0.36797306E+01</totfact>
</mgrwt>
</event>
<event>
12    1  0.1335216E-007  0.1037208E+04  0.7818608E-02  0.9268652E-01
          2   -1    0    0  501    0  0.00000000000E+00  0.00000000000E+00  0.16699822494E+04  0.16699822494E+04  0.00000000000E+00 0. -1.
         -2   -1    0    0    0  501 -0.00000000000E+00 -0.00000000000E+00 -0.69668883526E+03  0.69668883526E+03  0.00000000000E+00 0.  1.
         23    2    1    2    0    0 -0.90577897014E+03 -0.29653541510E+03  0.75553337791E+03  0.12196500441E+04  0.91360548433E+02 0.  0.
    5000000    2    1    2    0    0  0.90577897014E+03  0.29653541510E+03  0.21776003628E+03  0.11470210406E+04  0.59989085589E+03 0.  0.
         23    2    4    4    0    0  0.96113004767E+03  0.31765786130E+03  0.20847205391E+03  0.10376879503E+04  0.93049446873E+02 0.  0.
         23    2    4    4    0    0 -0.55351077524E+02 -0.21122446198E+02  0.92879823717E+01  0.10933309029E+03  0.91419683321E+02 0.  0.
          3    1    3    3  502    0 -0.76357819536E+03 -0.23572022990E+03  0.59168570024E+03  0.99433779727E+03  0.00000000000E+00 0. -1.
         -3    1    3    3    0  502 -0.14220077478E+03 -0.60815185199E+02  0.16384767767E+03  0.22531224684E+03  0.00000000000E+00 0.  1.
         13    1    5    5    0    0  0.24265343051E+03  0.89985880953E+02  0.94074512590E+02  0.27536913412E+03  0.00000000000E+00 0. -1.
        -13    1    5    5    0    0  0.71847661716E+03  0.22767198035E+03  0.11439754132E+03  0.76231881618E+03  0.00000000000E+00 0.  1.
          1    1    6    6  503    0 -0.72988387859E+01  0.34134106018E+02  0.92294774448E+01  0.36105311176E+02  0.00000000000E+00 0. -1.
         -1    1    6    6    0  503 -0.48052238738E+02 -0.55256552215E+02  0.58504926867E-01  0.73227779109E+02  0.00000000000E+00 0.  1.
<mgrwt>
<rscale>  0 0.10372075E+04</rscale>
<asrwt>0</asrwt>
<pdfrwt beam="1">  1        2 0.25692034E+00 0.10372075E+04</pdfrwt>
<pdfrwt beam="2">  1       -2 0.10718290E+00 0.10372075E+04</pdfrwt>
<totfact> 0.70747864E+00</totfact>
</mgrwt>
</event>
<event>
12    1  0.1335216E-007  0.1409938E+04  0.7818608E-02  0.8946656E-01
          1   -1    0    0  501    0  0.00000000000E+00  0.00000000000E+00  0.28494360864E+04  0.28494360864E+04  0.00000000000E+00 0. -1.
         -1   -1    0    0    0  501 -0.00000000000E+00 -0.00000000000E+00 -0.90322877685E+03  0.90322877685E+03  0.00000000000E+00 0.  1.
         23    2    1    2    0    0  0.12911821809E+04 -0.55483060190E+03  0.18417831807E+03  0.14203406607E+04  0.91964767791E+02 0.  0.
    5000000    2    1    2    0    0 -0.12911821809E+04  0.55483060190E+03  0.17620289914E+04  0.23323242025E+04  0.60000133164E+03 0.  0.
         23    2    4    4    0    0 -0.80906085602E+03  0.29094952366E+03  0.14648226499E+04  0.17009547855E+04  0.91162999167E+02 0.  0.
         23    2    4    4    0    0 -0.48212132486E+03  0.26388107824E+03  0.29720634154E+03  0.63136941708E+03  0.90672686232E+02 0.  0.
          1    1    3    3  502    0  0.65845095459E+03 -0.33105183208E+03  0.83802520762E+02  0.74173838893E+03  0.00000000000E+00 0. -1.
         -1    1    3    3    0  502  0.63273122630E+03 -0.22377876982E+03  0.10037579731E+03  0.67860227176E+03  0.00000000000E+00 0.  1.
         13    1    5    5    0    0 -0.38479218674E+03  0.13252214918E+03  0.60484577175E+03  0.72901684110E+03  0.00000000000E+00 0.  1.
        -13    1    5    5    0    0 -0.42426866929E+03  0.15842737448E+03  0.85997687815E+03  0.97193794436E+03  0.00000000000E+00 0. -1.
          4    1    6    6  503    0 -0.38146924987E+03  0.18471454268E+03  0.26306791193E+03  0.49884163535E+03  0.00000000000E+00 0. -1.
         -4    1    6    6    0  503 -0.10065207499E+03  0.79166535560E+02  0.34138429614E+02  0.13252778173E+03  0.00000000000E+00 0.  1.
<mgrwt>
<rscale>  0 0.14099380E+04</rscale>
<asrwt>0</asrwt>
<pdfrwt beam="1">  1        1 0.43837478E+00 0.14099380E+04</pdfrwt>
<pdfrwt beam="2">  1       -1 0.13895827E+00 0.14099380E+04</pdfrwt>
<totfact> 0.31624640E-01</totfact>
</mgrwt>
</event>
<event>
12    1  0.1335216E-007  0.7746208E+03  0.7818608E-02  0.9597497E-01
          1   -1    0    0  501    0  0.00000000000E+00  0.00000000000E+00  0.13763284302E+04  0.13763284302E+04  0.00000000000E+00 0. -1.
         -1   -1    0    0    0  501 -0.00000000000E+00 -0.00000000000E+00 -0.55419132732E+03  0.55419132732E+03  0.00000000000E+00 0.  1.
         23    2    1    2    0    0 -0.63269323040E+03 -0.42235016797E+03  0.25486205241E+03  0.80780709036E+03  0.94431145805E+02 0.  0.
    5000000    2    1    2    0    0  0.63269323040E+03  0.42235016797E+03  0.56727505050E+03  0.11227126672E+04  0.60000196831E+03 0.  0.
         23    2    4    4    0    0  0.41572963996E+03  0.31235134113E+03  0.33105178107E+02  0.52875562928E+03  0.89955927141E+02 0.  0.
         23    2    4    4    0    0  0.21696359044E+03  0.10999882684E+03  0.53416987239E+03  0.59395703791E+03  0.90964657067E+02 0.  0.
          1    1    3    3  502    0 -0.17737288034E+03 -0.83412425859E+02  0.35086378108E+02  0.19912263909E+03  0.00000000000E+00 0. -1.
         -1    1    3    3    0  502 -0.45532035005E+03 -0.33893774211E+03  0.21977567430E+03  0.60868445127E+03  0.00000000000E+00 0.  1.
         11    1    5    5    0    0  0.13537124593E+03  0.14966917172E+03  0.33783087573E+02  0.20461557173E+03  0.00000000000E+00 0. -1.
        -11    1    5    5    0    0  0.28035839403E+03  0.16268216942E+03 -0.67790946669E+00  0.32414005755E+03  0.00000000000E+00 0.  1.
          3    1    6    6  503    0  0.19312239185E+03  0.12632576014E+03  0.47799805802E+03  0.53078865793E+03  0.00000000000E+00 0. -1.
         -3    1    6    6    0  503  0.23841198582E+02 -0.16326933298E+02  0.56171814366E+02  0.63168379985E+02  0.00000000000E+00 0.  1.
<mgrwt>
<rscale>  0 0.77462079E+03</rscale>
<asrwt>0</asrwt>
<pdfrwt beam="1">  1        1 0.21174284E+00 0.77462079E+03</pdfrwt>
<pdfrwt beam="2">  1       -1 0.85260204E-01 0.77462079E+03</pdfrwt>
<totfact> 0.11212025E+01</totfact>
</mgrwt>
</event>
<event>
12    1  0.1335216E-007  0.3917726E+03  0.7818608E-02  0.1046666E+00
         -1   -1    0    0    0  501 -0.00000000000E+00  0.00000000000E+00  0.13630241361E+04  0.13630241361E+04  0.00000000000E+00 0.  1.
          1   -1    0    0  501    0  0.00000000000E+00 -0.00000000000E+00 -0.33632463887E+03  0.33632463887E+03  0.00000000000E+00 0. -1.
         23    2    1    2    0    0 -0.17321453964E+03  0.95396603638E+02  0.10446836865E+04  0.10671404942E+04  0.91219739691E+02 0.  0.
    5000000    2    1    2    0    0  0.17321453964E+03 -0.95396603638E+02 -0.17984189233E+02  0.63220828075E+03  0.60021670292E+03 0.  0.
         23    2    4    4    0    0  0.35832417095E+03 -0.73658136951E+02 -0.12615685729E+03  0.39748370655E+03  0.90862597917E+02 0.  0.
         23    2    4    4    0    0 -0.18510963131E+03 -0.21738466687E+02  0.10817266806E+03  0.23472457421E+03  0.93038503241E+02 0.  0.
          3    1    3    3  502    0 -0.18152589971E+03  0.84216800377E+02  0.91023583378E+03  0.93197285091E+03  0.00000000000E+00 0. -1.
         -3    1    3    3    0  502  0.83113600668E+01  0.11179803260E+02  0.13444785270E+03  0.13516764332E+03  0.00000000000E+00 0.  1.
         13    1    5    5    0    0  0.28482852251E+03 -0.52631046718E+02 -0.13674961708E+03  0.32030886982E+03  0.00000000000E+00 0. -1.
        -13    1    5    5    0    0  0.73495648445E+02 -0.21027090233E+02  0.10592759789E+02  0.77174836727E+02  0.00000000000E+00 0.  1.
          3    1    6    6  503    0 -0.15416185840E+03 -0.49418312997E+02  0.63942244988E+02  0.17405935464E+03  0.00000000000E+00 0. -1.
         -3    1    6    6    0  503 -0.30947772907E+02  0.27679846310E+02  0.44230423074E+02  0.60665219565E+02  0.00000000000E+00 0.  1.
<mgrwt>
<rscale>  0 0.39177257E+03</rscale>
<asrwt>0</asrwt>
<pdfrwt beam="1">  1        1 0.51742253E-01 0.39177257E+03</pdfrwt>
<pdfrwt beam="2">  1       -1 0.20969602E+00 0.39177257E+03</pdfrwt>
<totfact> 0.10674725E+01</totfact>
</mgrwt>
</event>
<event>
12    1  0.1335216E-007  0.7839074E+03  0.7818608E-02  0.9583607E-01
         -1   -1    0    0    0  501 -0.00000000000E+00  0.00000000000E+00  0.73467881011E+03  0.73467881011E+03  0.00000000000E+00 0.  1.
          1   -1    0    0  501    0  0.00000000000E+00 -0.00000000000E+00 -0.10953136661E+04  0.10953136661E+04  0.00000000000E+00 0. -1.
         23    2    1    2    0    0  0.56982258646E+03  0.38449232971E+03 -0.56546097463E+03  0.89481037449E+03  0.91691661618E+02 0.  0.
    5000000    2    1    2    0    0 -0.56982258646E+03 -0.38449232971E+03  0.20482611864E+03  0.93518210172E+03  0.60006640703E+03 0.  0.
         23    2    4    4    0    0 -0.19874525579E+03 -0.45056027707E+03  0.12395617565E+02  0.50046399079E+03  0.88353351761E+02 0.  0.
         23    2    4    4    0    0 -0.37107733067E+03  0.66067947357E+02  0.19243050107E+03  0.43471811093E+03  0.99433290314E+02 0.  0.
          4    1    3    3  502    0  0.17275345237E+03  0.13466771975E+03 -0.23321580653E+03  0.31995118763E+03  0.00000000000E+00 0. -1.
         -4    1    3    3    0  502  0.39706913409E+03  0.24982460996E+03 -0.33224516809E+03  0.57485918685E+03  0.00000000000E+00 0.  1.
         13    1    5    5    0    0 -0.36889902582E+02 -0.36748364947E+02 -0.17981281347E+02  0.55087509634E+02  0.00000000000E+00 0. -1.
        -13    1    5    5    0    0 -0.16185535321E+03 -0.41381191212E+03  0.30376898911E+02  0.44537648115E+03  0.00000000000E+00 0.  1.
          1    1    6    6  503    0 -0.20242206461E+03  0.87443190742E+00  0.61789756092E+02  0.21164458611E+03  0.00000000000E+00 0. -1.
         -1    1    6    6    0  503 -0.16865526606E+03  0.65193515450E+02  0.13064074498E+03  0.22307352482E+03  0.00000000000E+00 0.  1.
<mgrwt>
<rscale>  0 0.78390740E+03</rscale>
<asrwt>0</asrwt>
<pdfrwt beam="1">  1        1 0.16850979E+00 0.78390740E+03</pdfrwt>
<pdfrwt beam="2">  1       -1 0.11302751E+00 0.78390740E+03</pdfrwt>
<totfact> 0.94101763E+00</totfact>
</mgrwt>
</event>
<event>
12    1  0.1335216E-007  0.2066624E+04  0.7818608E-02  0.8576090E-01
         -1   -1    0    0    0  501 -0.00000000000E+00  0.00000000000E+00  0.16197264393E+04  0.16197264393E+04  0.00000000000E+00 0.  1.
          1   -1    0    0  501    0  0.00000000000E+00 -0.00000000000E+00 -0.27346750247E+04  0.27346750247E+04  0.00000000000E+00 0. -1.
         23    2    1    2    0    0  0.10609210668E+04 -0.17653851769E+04 -0.47160078277E+03  0.21147617673E+04  0.87588247452E+02 0.  0.
    5000000    2    1    2    0    0 -0.10609210668E+04  0.17653851769E+04 -0.64334780262E+03  0.22396396966E+04  0.59995936734E+03 0.  0.
         23    2    4    4    0    0 -0.22236358093E+03  0.30287940885E+03  0.91630995565E+02  0.39815556060E+03  0.94605035066E+02 0.  0.
         23    2    4    4    0    0 -0.83855748592E+03  0.14625057681E+04 -0.73497879819E+03  0.18414841360E+04  0.93638723329E+02 0.  0.
          4    1    3    3  502    0  0.18740655068E+03 -0.37799046606E+03 -0.10610451197E+03  0.43503583201E+03  0.00000000000E+00 0. -1.
         -4    1    3    3    0  502  0.87351451616E+03 -0.13873947109E+04 -0.36549627080E+03  0.16797259353E+04  0.00000000000E+00 0.  1.
         13    1    5    5    0    0  0.75485580808E+01  0.19749062886E+02  0.13721256818E+02  0.25204743654E+02  0.00000000000E+00 0. -1.
        -13    1    5    5    0    0 -0.22991213901E+03  0.28313034596E+03  0.77909738747E+02  0.37295081694E+03  0.00000000000E+00 0.  1.
          1    1    6    6  503    0 -0.19626388790E+03  0.36190235411E+03 -0.22260076042E+03  0.46802128813E+03  0.00000000000E+00 0. -1.
         -1    1    6    6    0  503 -0.64229359802E+03  0.11006034140E+04 -0.51237803777E+03  0.13734628479E+04  0.00000000000E+00 0.  1.
<mgrwt>
<rscale>  0 0.20666241E+04</rscale>
<asrwt>0</asrwt>
<pdfrwt beam="1">  1        1 0.42071923E+00 0.20666241E+04</pdfrwt>
<pdfrwt beam="2">  1       -1 0.24918869E+00 0.20666241E+04</pdfrwt>
<totfact> 0.57900495E-02</totfact>
</mgrwt>
</event>
<event>
12    1  0.1335216E-007  0.5489137E+03  0.7818608E-02  0.1001746E+00
          1   -1    0    0  501    0  0.00000000000E+00  0.00000000000E+00  0.11090385437E+04  0.11090385437E+04  0.00000000000E+00 0. -1.
         -1   -1    0    0    0  501 -0.00000000000E+00 -0.00000000000E+00 -0.39943525291E+03  0.39943525291E+03  0.00000000000E+00 0.  1.
         23    2    1    2    0    0  0.37288920133E+03  0.16036551535E+03 -0.93823246979E+02  0.42664405583E+03  0.91972244288E+02 0.  0.
    5000000    2    1    2    0    0 -0.37288920133E+03 -0.16036551535E+03  0.80342653776E+03  0.10818297408E+04  0.60008160399E+03 0.  0.
         23    2    4    4    0    0 -0.48086710322E+03 -0.24064529326E+03  0.51066008709E+03  0.74734877570E+03  0.92807003300E+02 0.  0.
         23    2    4    4    0    0  0.10797790189E+03  0.80279777907E+02  0.29276645067E+03  0.33448096507E+03  0.89784471488E+02 0.  0.
          3    1    3    3  502    0  0.29517578033E+02  0.38288560438E+02 -0.29352278899E+02  0.56558443666E+02  0.00000000000E+00 0. -1.
         -3    1    3    3    0  502  0.34337162330E+03  0.12207695492E+03 -0.64470968080E+02  0.37008561216E+03  0.00000000000E+00 0.  1.
         13    1    5    5    0    0 -0.40203304115E+03 -0.17048866668E+03  0.44265499145E+03  0.62180414368E+03  0.00000000000E+00 0. -1.
        -13    1    5    5    0    0 -0.78834062069E+02 -0.70156626577E+02  0.68005095644E+02  0.12554463202E+03  0.00000000000E+00 0.  1.
          1    1    6    6  503    0  0.61090676150E+02  0.73318880032E+02  0.25971642646E+03  0.27669541206E+03  0.00000000000E+00 0. -1.
         -1    1    6    6    0  503  0.46887225740E+02  0.69608978744E+01  0.33050024213E+02  0.57785553015E+02  0.00000000000E+00 0.  1.
<mgrwt>
<rscale>  0 0.54891370E+03</rscale>
<asrwt>0</asrwt>
<pdfrwt beam="1">  1        1 0.17062131E+00 0.54891370E+03</pdfrwt>
<pdfrwt beam="2">  1       -1 0.61451578E-01 0.54891370E+03</pdfrwt>
<totfact> 0.35337226E+01</totfact>
</mgrwt>
</event>
<event>
12    1  0.1335216E-007  0.6924761E+03  0.7818608E-02  0.9730186E-01
         -1   -1    0    0    0  501 -0.00000000000E+00  0.00000000000E+00  0.48085450963E+03  0.48085450963E+03  0.00000000000E+00 0.  1.
          1   -1    0    0  501    0  0.00000000000E+00 -0.00000000000E+00 -0.10943801273E+04  0.10943801273E+04  0.00000000000E+00 0. -1.
         23    2    1    2    0    0 -0.44890121044E+03  0.37304307969E+03 -0.11820981813E+03  0.60259992623E+03  0.92085145134E+02 0.  0.
    5000000    2    1    2    0    0  0.44890121044E+03 -0.37304307969E+03 -0.49531579955E+03  0.97263471070E+03  0.60000591926E+03 0.  0.
         23    2    4    4    0    0  0.41675213560E+03 -0.50850398635E+03 -0.45128307687E+03  0.80253469078E+03  0.90260000943E+02 0.  0.
         23    2    4    4    0    0  0.32149074842E+02  0.13546090667E+03 -0.44032722680E+02  0.17010001993E+03  0.87246294272E+02 0.  0.
          2    1    3    3  502    0 -0.29378103422E+03  0.21568605974E+03 -0.33626010867E+02  0.36600338938E+03  0.00000000000E+00 0.  1.
         -2    1    3    3    0  502 -0.15512017622E+03  0.15735701995E+03 -0.84583807261E+02  0.23659653685E+03  0.00000000000E+00 0. -1.
         11    1    5    5    0    0  0.64558369475E+02 -0.54353081067E+02 -0.91594194160E+02  0.12454532064E+03  0.00000000000E+00 0. -1.
        -11    1    5    5    0    0  0.35219376612E+03 -0.45415090529E+03 -0.35968888271E+03  0.67798937013E+03  0.00000000000E+00 0.  1.
          4    1    6    6  503    0  0.21225667414E+02  0.50602410680E+02 -0.61873513369E+02  0.82701055497E+02  0.00000000000E+00 0. -1.
         -4    1    6    6    0  503  0.10923407428E+02  0.84858495985E+02  0.17840790689E+02  0.87398964428E+02  0.00000000000E+00 0.  1.
<mgrwt>
<rscale>  0 0.69247608E+03</rscale>
<asrwt>0</asrwt>
<pdfrwt beam="1">  1        1 0.16836617E+00 0.69247608E+03</pdfrwt>
<pdfrwt beam="2">  1       -1 0.73977618E-01 0.69247608E+03</pdfrwt>
<totfact> 0.24413949E+01</totfact>
</mgrwt>
</event>
<event>
12    1  0.1335216E-007  0.9585709E+03  0.7818608E-02  0.9355188E-01
          2   -1    0    0  501    0  0.00000000000E+00  0.00000000000E+00  0.10282278588E+04  0.10282278588E+04  0.00000000000E+00 0. -1.
         -2   -1    0    0    0  501 -0.00000000000E+00 -0.00000000000E+00 -0.10641828772E+04  0.10641828772E+04  0.00000000000E+00 0.  1.
         23    2    1    2    0    0  0.65113235285E+03  0.68796085926E+03  0.12514808391E+03  0.95961946759E+03  0.89129090974E+02 0.  0.
    5000000    2    1    2    0    0 -0.65113235285E+03 -0.68796085926E+03 -0.16110310226E+03  0.11327912684E+04  0.59999863612E+03 0.  0.
         23    2    4    4    0    0 -0.27823981406E+03 -0.39979138466E+03 -0.36030496933E+03  0.61309521524E+03  0.93891036036E+02 0.  0.
         23    2    4    4    0    0 -0.37289253879E+03 -0.28816947460E+03  0.19920186707E+03  0.51969605314E+03  0.91170786018E+02 0.  0.
          2    1    3    3  502    0  0.20038702085E+03  0.26215275978E+03  0.68197062709E+02  0.33694193409E+03  0.00000000000E+00 0. -1.
         -2    1    3    3    0  502  0.45074533201E+03  0.42580809948E+03  0.56951021203E+02  0.62267753350E+03  0.00000000000E+00 0.  1.
         13    1    5    5    0    0 -0.18519110593E+03 -0.33383995189E+03 -0.26940887673E+03  0.46725368062E+03  0.00000000000E+00 0. -1.
        -13    1    5    5    0    0 -0.93048708135E+02 -0.65951432769E+02 -0.90896092598E+02  0.14584153462E+03  0.00000000000E+00 0.  1.
          3    1    6    6  503    0 -0.33186537667E+03 -0.25834722059E+03  0.20636788943E+03  0.46847157908E+03  0.00000000000E+00 0. -1.
         -3    1    6    6    0  503 -0.41027162123E+02 -0.29822254011E+02 -0.71660223553E+01  0.51224474059E+02  0.00000000000E+00 0.  1.
<mgrwt>
<rscale>  0 0.95857087E+03</rscale>
<asrwt>0</asrwt>
<pdfrwt beam="1">  1        2 0.15818890E+00 0.95857087E+03</pdfrwt>
<pdfrwt beam="2">  1       -2 0.16372044E+00 0.95857087E+03</pdfrwt>
<totfact> 0.56884210E+00</totfact>
</mgrwt>
</event>
<event>
12    1  0.1335216E-007  0.1298961E+04  0.7818608E-02  0.9030389E-01
          1   -1    0    0  501    0  0.00000000000E+00  0.00000000000E+00  0.22540852721E+04  0.22540852721E+04  0.00000000000E+00 0. -1.
         -1   -1    0    0    0  501 -0.00000000000E+00 -0.00000000000E+00 -0.97632692214E+03  0.97632692214E+03  0.00000000000E+00 0.  1.
         23    2    1    2    0    0 -0.20374443355E+03 -0.12348685945E+04 -0.12011824913E+03  0.12605543151E+04  0.90313607226E+02 0.  0.
    5000000    2    1    2    0    0  0.20374443355E+03  0.12348685945E+04  0.13978765991E+04  0.19698578791E+04  0.59989068813E+03 0.  0.
         23    2    4    4    0    0  0.43478406433E+02  0.11327681494E+04  0.13258529867E+04  0.17467550118E+04  0.90624923981E+02 0.  0.
         23    2    4    4    0    0  0.16026602711E+03  0.10210044516E+03  0.72023612408E+02  0.22310286734E+03  0.92074906038E+02 0.  0.
          2    1    3    3  502    0 -0.21166164335E+03 -0.12152968148E+04 -0.12028096790E+03  0.12394412090E+04  0.00000000000E+00 0. -1.
         -2    1    3    3    0  502  0.79172098029E+01 -0.19571779738E+02  0.16271877672E+00  0.21113106133E+02  0.00000000000E+00 0.  1.
         11    1    5    5    0    0 -0.27593278473E+02  0.36066608153E+03  0.43425053574E+03  0.56516806277E+03  0.00000000000E+00 0.  1.
        -11    1    5    5    0    0  0.71071684906E+02  0.77210206784E+03  0.89160245094E+03  0.11815869490E+04  0.00000000000E+00 0. -1.
          1    1    6    6  503    0  0.10411074388E+03  0.10758360403E+03  0.29841895939E+02  0.15265587968E+03  0.00000000000E+00 0. -1.
         -1    1    6    6    0  503  0.56155283234E+02 -0.54831588703E+01  0.42181716468E+02  0.70446987661E+02  0.00000000000E+00 0.  1.
<mgrwt>
<rscale>  0 0.12989614E+04</rscale>
<asrwt>0</asrwt>
<pdfrwt beam="1">  1        1 0.34678235E+00 0.12989614E+04</pdfrwt>
<pdfrwt beam="2">  1       -1 0.15020414E+00 0.12989614E+04</pdfrwt>
<totfact> 0.67605266E-01</totfact>
</mgrwt>
</event>
<event>
12    1  0.1335216E-007  0.8818893E+03  0.7818608E-02  0.9448508E-01
         -2   -1    0    0    0  501 -0.00000000000E+00  0.00000000000E+00  0.12084198526E+04  0.12084198526E+04  0.00000000000E+00 0.  1.
          2   -1    0    0  501    0  0.00000000000E+00 -0.00000000000E+00 -0.95281987331E+03  0.95281987331E+03  0.00000000000E+00 0. -1.
         23    2    1    2    0    0  0.24584622212E+03  0.83921375067E+03  0.57411814125E+03  0.10539132668E+04  0.12806814467E+03 0.  0.
    5000000    2    1    2    0    0 -0.24584622212E+03 -0.83921375067E+03 -0.31851816194E+03  0.11073264591E+04  0.59999831939E+03 0.  0.
         23    2    4    4    0    0 -0.13356023460E+02 -0.88776451869E+02  0.14278367940E+03  0.19161318141E+03  0.90932889647E+02 0.  0.
         23    2    4    4    0    0 -0.23249019866E+03 -0.75043729880E+03 -0.46130184134E+03  0.91571327767E+03  0.92323270019E+02 0.  0.
          1    1    3    3  502    0  0.17603561165E+03  0.58499520618E+03  0.32865743586E+03  0.69370284558E+03  0.00000000000E+00 0. -1.
         -1    1    3    3    0  502  0.69810610479E+02  0.25421854448E+03  0.24546070539E+03  0.36021042126E+03  0.00000000000E+00 0.  1.
         13    1    5    5    0    0  0.94023925475E+01 -0.68362224956E+02  0.30865136045E+02  0.75594017023E+02  0.00000000000E+00 0.  1.
        -13    1    5    5    0    0 -0.22758416007E+02 -0.20414226913E+02  0.11191854335E+03  0.11601916439E+03  0.00000000000E+00 0. -1.
          1    1    6    6  503    0 -0.12506562966E+03 -0.27291559442E+03 -0.14942254211E+03  0.33533778417E+03  0.00000000000E+00 0. -1.
         -1    1    6    6    0  503 -0.10742456901E+03 -0.47752170438E+03 -0.31187929922E+03  0.58037549351E+03  0.00000000000E+00 0.  1.
<mgrwt>
<rscale>  0 0.88188926E+03</rscale>
<asrwt>0</asrwt>
<pdfrwt beam="1">  1        2 0.14658767E+00 0.88188926E+03</pdfrwt>
<pdfrwt beam="2">  1       -2 0.18591075E+00 0.88188926E+03</pdfrwt>
<totfact> 0.44856658E+00</totfact>
</mgrwt>
</event>
<event>
12    1  0.1335216E-007  0.5834737E+03  0.7818608E-02  0.9940299E-01
          1   -1    0    0  501    0  0.00000000000E+00  0.00000000000E+00  0.84550668704E+03  0.84550668704E+03  0.00000000000E+00 0. -1.
         -1   -1    0    0    0  501 -0.00000000000E+00 -0.00000000000E+00 -0.85359124338E+03  0.85359124338E+03  0.00000000000E+00 0.  1.
         23    2    1    2    0    0 -0.51560776182E+03 -0.21572101909E+03  0.48174042732E+03  0.74396426662E+03  0.94984570132E+02 0.  0.
    5000000    2    1    2    0    0  0.51560776182E+03  0.21572101909E+03 -0.48982498367E+03  0.95513366380E+03  0.59997073177E+03 0.  0.
         23    2    4    4    0    0  0.33677717486E+03  0.19335072220E+02 -0.56630206259E+03  0.66417462148E+03  0.81468958522E+02 0.  0.
         23    2    4    4    0    0  0.17883058696E+03  0.19638594687E+03  0.76477078917E+02  0.29095904233E+03  0.90887852601E+02 0.  0.
          2    1    3    3  502    0 -0.29761552434E+03 -0.12571084007E+03  0.33897228063E+03  0.46827387571E+03  0.00000000000E+00 0. -1.
         -2    1    3    3    0  502 -0.21799223748E+03 -0.90010179019E+02  0.14276814670E+03  0.27569039091E+03  0.00000000000E+00 0.  1.
         13    1    5    5    0    0  0.71029101922E+02 -0.10680975480E+02 -0.69417980510E+02  0.99890302708E+02  0.00000000000E+00 0. -1.
        -13    1    5    5    0    0  0.26574807294E+03  0.30016047699E+02 -0.49688408207E+03  0.56428431877E+03  0.00000000000E+00 0.  1.
          2    1    6    6  503    0  0.20421855141E+02  0.64036690268E+01  0.33709555188E+02  0.39929854187E+02  0.00000000000E+00 0. -1.
         -2    1    6    6    0  503  0.15840873182E+03  0.18998227785E+03  0.42767523728E+02  0.25102918814E+03  0.00000000000E+00 0.  1.
<mgrwt>
<rscale>  0 0.58347369E+03</rscale>
<asrwt>0</asrwt>
<pdfrwt beam="1">  1        1 0.13007795E+00 0.58347369E+03</pdfrwt>
<pdfrwt beam="2">  1       -1 0.13132173E+00 0.58347369E+03</pdfrwt>
<totfact> 0.10562338E+01</totfact>
</mgrwt>
</event>
<event>
12    1  0.1335216E-007  0.8782572E+03  0.7818608E-02  0.9453177E-01
         -2   -1    0    0    0  501 -0.00000000000E+00  0.00000000000E+00  0.65938771471E+03  0.65938771471E+03  0.00000000000E+00 0.  1.
          2   -1    0    0  501    0  0.00000000000E+00 -0.00000000000E+00 -0.35673023844E+04  0.35673023844E+04  0.00000000000E+00 0. -1.
         23    2    1    2    0    0  0.50538594316E+03 -0.59248823886E+03 -0.31232884945E+04  0.32202035339E+04  0.91227820079E+02 0.  0.
    5000000    2    1    2    0    0 -0.50538594316E+03  0.59248823886E+03  0.21537382480E+03  0.10064865652E+04  0.60014336353E+03 0.  0.
         23    2    4    4    0    0 -0.59863652036E+03  0.33171586195E+03  0.17434984484E+03  0.71211971140E+03  0.91189464241E+02 0.  0.
         23    2    4    4    0    0  0.93250577199E+02  0.26077237691E+03  0.41023979959E+02  0.29436685380E+03  0.90944900783E+02 0.  0.
          1    1    3    3  502    0  0.31868781436E+03 -0.42713280228E+03 -0.22256455618E+04  0.22885590489E+04  0.00000000000E+00 0. -1.
         -1    1    3    3    0  502  0.18669812880E+03 -0.16535543658E+03 -0.89764293270E+03  0.93164448495E+03  0.00000000000E+00 0.  1.
         11    1    5    5    0    0 -0.51749357546E+03  0.30212923597E+03  0.17966207847E+03  0.62558783420E+03  0.00000000000E+00 0. -1.
        -11    1    5    5    0    0 -0.81142944908E+02  0.29586625977E+02 -0.53122336238E+01  0.86531877197E+02  0.00000000000E+00 0.  1.
          2    1    6    6  503    0  0.55595929172E+02  0.50920746311E+02  0.29159591849E+02  0.80833851462E+02  0.00000000000E+00 0. -1.
         -2    1    6    6    0  503  0.37654648027E+02  0.20985163060E+03  0.11864388110E+02  0.21353300234E+03  0.00000000000E+00 0.  1.
<mgrwt>
<rscale>  0 0.87825715E+03</rscale>
<asrwt>0</asrwt>
<pdfrwt beam="1">  1        2 0.54881575E+00 0.87825715E+03</pdfrwt>
<pdfrwt beam="2">  1       -2 0.10144426E+00 0.87825715E+03</pdfrwt>
<totfact> 0.61679168E-01</totfact>
</mgrwt>
</event>
<event>
12    1  0.1335216E-007  0.2613030E+04  0.7818608E-02  0.8363789E-01
         -1   -1    0    0    0  501 -0.00000000000E+00  0.00000000000E+00  0.19909629100E+04  0.19909629100E+04  0.00000000000E+00 0.  1.
          1   -1    0    0  501    0  0.00000000000E+00 -0.00000000000E+00 -0.34802766539E+04  0.34802766539E+04  0.00000000000E+00 0. -1.
         23    2    1    2    0    0 -0.46711790908E+02 -0.25808739994E+04 -0.43825995127E+03  0.26203066890E+04  0.10412860982E+03 0.  0.
    5000000    2    1    2    0    0  0.46711790908E+02  0.25808739994E+04 -0.10510537926E+04  0.28509328750E+04  0.60000965864E+03 0.  0.
         23    2    4    4    0    0  0.25103342772E+03  0.60708234460E+03 -0.23984718187E+03  0.70520223816E+03  0.90646406939E+02 0.  0.
         23    2    4    4    0    0 -0.20432163682E+03  0.19737916548E+04 -0.81120661077E+03  0.21457306368E+04  0.92211564543E+02 0.  0.
          2    1    3    3  502    0 -0.14265726090E+01 -0.29342375024E+03 -0.16758281176E+02  0.29390537985E+03  0.00000000000E+00 0.  1.
         -2    1    3    3    0  502 -0.45285218299E+02 -0.22874502491E+04 -0.42150167009E+03  0.23264013091E+04  0.00000000000E+00 0. -1.
         11    1    5    5    0    0  0.14920685852E+03  0.28153474598E+03 -0.15168475641E+03  0.35289200210E+03  0.00000000000E+00 0. -1.
        -11    1    5    5    0    0  0.10182656920E+03  0.32554759862E+03 -0.88162425464E+02  0.35231023605E+03  0.00000000000E+00 0.  1.
          2    1    6    6  503    0 -0.13264500399E+03  0.14956702920E+04 -0.64882230418E+03  0.16357245189E+04  0.00000000000E+00 0. -1.
         -2    1    6    6    0  503 -0.71676632823E+02  0.47812136277E+03 -0.16238430659E+03  0.51000611786E+03  0.00000000000E+00 0.  1.
<mgrwt>
<rscale>  0 0.26130303E+04</rscale>
<asrwt>0</asrwt>
<pdfrwt beam="1">  1        1 0.53542717E+00 0.26130303E+04</pdfrwt>
<pdfrwt beam="2">  1       -1 0.30630199E+00 0.26130303E+04</pdfrwt>
<totfact> 0.64604170E-03</totfact>
</mgrwt>
</event>
<event>
12    1  0.1335216E-007  0.3564555E+03  0.7818608E-02  0.1059996E+00
          1   -1    0    0  501    0  0.00000000000E+00  0.00000000000E+00  0.29563460725E+03  0.29563460725E+03  0.00000000000E+00 0. -1.
         -1   -1    0    0    0  501 -0.00000000000E+00 -0.00000000000E+00 -0.83013826457E+03  0.83013826457E+03  0.00000000000E+00 0.  1.
         23    2    1    2    0    0 -0.22460117012E+03 -0.20306898093E+03 -0.13529667122E+03  0.34408519631E+03  0.91688256823E+02 0.  0.
    5000000    2    1    2    0    0  0.22460117012E+03  0.20306898093E+03 -0.39920698610E+03  0.78168767551E+03  0.59998892294E+03 0.  0.
         23    2    4    4    0    0  0.27877694363E+03  0.14561254198E+03 -0.51662335909E+03  0.61134790667E+03  0.89033539456E+02 0.  0.
         23    2    4    4    0    0 -0.54175773511E+02  0.57456438950E+02  0.11741637299E+03  0.17033976884E+03  0.94830245121E+02 0.  0.
          4    1    3    3  502    0 -0.69847931446E+02 -0.13970075143E+02 -0.40878670575E+02  0.82127719040E+02  0.00000000000E+00 0. -1.
         -4    1    3    3    0  502 -0.15475323867E+03 -0.18909890579E+03 -0.94418000642E+02  0.26195747727E+03  0.00000000000E+00 0.  1.
         13    1    5    5    0    0  0.21239937985E+03  0.12478959217E+03 -0.45935227908E+03  0.52123934538E+03  0.00000000000E+00 0. -1.
        -13    1    5    5    0    0  0.66377563783E+02  0.20822949808E+02 -0.57271080016E+02  0.90108561295E+02  0.00000000000E+00 0.  1.
          1    1    6    6  503    0 -0.18419277826E+02  0.72838185002E+01  0.10580738225E+03  0.10764537122E+03  0.00000000000E+00 0. -1.
         -1    1    6    6    0  503 -0.35756495684E+02  0.50172620450E+02  0.11608990742E+02  0.62694397616E+02  0.00000000000E+00 0.  1.
<mgrwt>
<rscale>  0 0.35645549E+03</rscale>
<asrwt>0</asrwt>
<pdfrwt beam="1">  1        1 0.45482248E-01 0.35645549E+03</pdfrwt>
<pdfrwt beam="2">  1       -1 0.12771358E+00 0.35645549E+03</pdfrwt>
<totfact> 0.50515371E+01</totfact>
</mgrwt>
</event>
<event>
12    1  0.1335216E-007  0.1204648E+04  0.7818608E-02  0.9108797E-01
          1   -1    0    0  501    0  0.00000000000E+00  0.00000000000E+00  0.75705844010E+03  0.75705844010E+03  0.00000000000E+00 0. -1.
         -1   -1    0    0    0  501 -0.00000000000E+00 -0.00000000000E+00 -0.20580886870E+04  0.20580886870E+04  0.00000000000E+00 0.  1.
         23    2    1    2    0    0  0.78943141260E+03 -0.83477346572E+03 -0.88728363298E+03  0.14545399235E+04  0.91462830332E+02 0.  0.
    5000000    2    1    2    0    0 -0.78943141260E+03  0.83477346572E+03 -0.41374661393E+03  0.13606072036E+04  0.60001417298E+03 0.  0.
         23    2    4    4    0    0 -0.71276674973E+03  0.41664481317E+03 -0.12767531528E+03  0.84023787383E+03  0.89829608847E+02 0.  0.
         23    2    4    4    0    0 -0.76664662869E+02  0.41812865255E+03 -0.28607129865E+03  0.52036932981E+03  0.90765692162E+02 0.  0.
          2    1    3    3  502    0  0.64248963421E+03 -0.62579133658E+03 -0.70201500596E+03  0.11389612792E+04  0.00000000000E+00 0. -1.
         -2    1    3    3    0  502  0.14694177839E+03 -0.20898212914E+03 -0.18526862702E+03  0.31557864423E+03  0.00000000000E+00 0.  1.
         11    1    5    5    0    0 -0.45553820364E+03  0.23242924962E+03 -0.45975226955E+02  0.51347067351E+03  0.00000000000E+00 0.  1.
        -11    1    5    5    0    0 -0.25722854609E+03  0.18421556355E+03 -0.81700088322E+02  0.32676720032E+03  0.00000000000E+00 0. -1.
          2    1    6    6  503    0 -0.76963789964E+02  0.26344711527E+03 -0.14214304821E+03  0.30908324715E+03  0.00000000000E+00 0. -1.
         -2    1    6    6    0  503  0.29912709441E+00  0.15468153728E+03 -0.14392825044E+03  0.21128608266E+03  0.00000000000E+00 0.  1.
<mgrwt>
<rscale>  0 0.12046484E+04</rscale>
<asrwt>0</asrwt>
<pdfrwt beam="1">  1        1 0.11647053E+00 0.12046484E+04</pdfrwt>
<pdfrwt beam="2">  1       -1 0.31662902E+00 0.12046484E+04</pdfrwt>
<totfact> 0.61399605E-01</totfact>
</mgrwt>
</event>
<event>
12    1  0.1335216E-007  0.8570567E+03  0.7818608E-02  0.9480914E-01
          2   -1    0    0  501    0  0.00000000000E+00  0.00000000000E+00  0.98308049255E+03  0.98308049255E+03  0.00000000000E+00 0. -1.
         -2   -1    0    0    0  501 -0.00000000000E+00 -0.00000000000E+00 -0.88666345386E+03  0.88666345386E+03  0.00000000000E+00 0.  1.
         23    2    1    2    0    0 -0.79482013361E+03  0.15391921593E+03  0.24805372756E+03  0.85201654880E+03  0.94717357729E+02 0.  0.
    5000000    2    1    2    0    0  0.79482013361E+03 -0.15391921593E+03 -0.15163668887E+03  0.10177273976E+04  0.59778357339E+03 0.  0.
         23    2    4    4    0    0  0.54784603364E+03 -0.28476731161E+03 -0.29285458117E+03  0.69081517326E+03  0.10116372648E+03 0.  0.
         23    2    4    4    0    0  0.24697409996E+03  0.13084809568E+03  0.14121789230E+03  0.32691222435E+03  0.93870544509E+02 0.  0.
          1    1    3    3  502    0 -0.19176511871E+03  0.15597977697E+01  0.79354834249E+02  0.20754152221E+03  0.00000000000E+00 0. -1.
         -1    1    3    3    0  502 -0.60305501489E+03  0.15235941816E+03  0.16869889331E+03  0.64447502659E+03  0.00000000000E+00 0.  1.
         13    1    5    5    0    0  0.26309810736E+03 -0.16126744530E+03 -0.19643627896E+03  0.36580734643E+03  0.00000000000E+00 0.  1.
        -13    1    5    5    0    0  0.28474792628E+03 -0.12349986630E+03 -0.96418302213E+02  0.32500782683E+03  0.00000000000E+00 0. -1.
          2    1    6    6  503    0  0.24789083144E+03  0.12933445385E+03  0.11776162071E+03  0.30338929542E+03  0.00000000000E+00 0. -1.
         -2    1    6    6    0  503 -0.91673147694E+00  0.15136418303E+01  0.23456271594E+02  0.23522928926E+02  0.00000000000E+00 0.  1.
<mgrwt>
<rscale>  0 0.85705671E+03</rscale>
<asrwt>0</asrwt>
<pdfrwt beam="1">  1        2 0.15124315E+00 0.85705671E+03</pdfrwt>
<pdfrwt beam="2">  1       -2 0.13640976E+00 0.85705671E+03</pdfrwt>
<totfact> 0.99763002E+00</totfact>
</mgrwt>
</event>
<event>
12    1  0.1335216E-007  0.4948142E+03  0.7818608E-02  0.1015141E+00
          1   -1    0    0  501    0  0.00000000000E+00  0.00000000000E+00  0.23006011360E+04  0.23006011360E+04  0.00000000000E+00 0. -1.
         -1   -1    0    0    0  501 -0.00000000000E+00 -0.00000000000E+00 -0.17116555079E+03  0.17116555079E+03  0.00000000000E+00 0.  1.
         23    2    1    2    0    0 -0.15676319125E+03 -0.38759831697E+03  0.12864696071E+04  0.13557933487E+04  0.91457098195E+02 0.  0.
    5000000    2    1    2    0    0  0.15676319125E+03  0.38759831697E+03  0.84296597805E+03  0.11159733381E+04  0.59999808142E+03 0.  0.
         23    2    4    4    0    0  0.11850670688E+02  0.42123418981E+03  0.25218519482E+03  0.49935973033E+03  0.90465942379E+02 0.  0.
         23    2    4    4    0    0  0.14491252056E+03 -0.33635872834E+02  0.59078078323E+03  0.61661360775E+03  0.95180864013E+02 0.  0.
          2    1    3    3  502    0 -0.11811964548E+03 -0.30314274275E+03  0.86374442708E+03  0.92298548659E+03  0.00000000000E+00 0. -1.
         -2    1    3    3    0  502 -0.38643545772E+02 -0.84455574225E+02  0.42272518006E+03  0.43280786211E+03  0.00000000000E+00 0.  1.
         11    1    5    5    0    0  0.10402970731E+01  0.34259398247E+03  0.16123364838E+03  0.37863968151E+03  0.00000000000E+00 0. -1.
        -11    1    5    5    0    0  0.10810373615E+02  0.78640207338E+02  0.90951546440E+02  0.12072004882E+03  0.00000000000E+00 0.  1.
          4    1    6    6  503    0  0.67784325385E+02 -0.22976379154E+02  0.12227560853E+03  0.14168257906E+03  0.00000000000E+00 0. -1.
         -4    1    6    6    0  503  0.77128195176E+02 -0.10659493679E+02  0.46850517470E+03  0.47493102869E+03  0.00000000000E+00 0.  1.
<mgrwt>
<rscale>  0 0.49481417E+03</rscale>
<asrwt>0</asrwt>
<pdfrwt beam="1">  1        1 0.35393862E+00 0.49481417E+03</pdfrwt>
<pdfrwt beam="2">  1       -1 0.26333163E-01 0.49481417E+03</pdfrwt>
<totfact> 0.25943217E+01</totfact>
</mgrwt>
</event>
<event>
12    1  0.1335216E-007  0.1271149E+04  0.7818608E-02  0.9052762E-01
          2   -1    0    0  501    0  0.00000000000E+00  0.00000000000E+00  0.22039506854E+04  0.22039506854E+04  0.00000000000E+00 0. -1.
         -2   -1    0    0    0  501 -0.00000000000E+00 -0.00000000000E+00 -0.80737674609E+03  0.80737674609E+03  0.00000000000E+00 0.  1.
         23    2    1    2    0    0  0.11800857829E+04 -0.30893673988E+03  0.28772086606E+03  0.12570233866E+04  0.96333449048E+02 0.  0.
    5000000    2    1    2    0    0 -0.11800857829E+04  0.30893673988E+03  0.11088530733E+04  0.17543040449E+04  0.59998598292E+03 0.  0.
         23    2    4    4    0    0 -0.19211592274E+03 -0.12597662601E+03  0.36240912355E+03  0.43873575918E+03  0.91488007317E+02 0.  0.
         23    2    4    4    0    0 -0.98796986015E+03  0.43491336589E+03  0.74644394971E+03  0.13155682857E+04  0.91144193334E+02 0.  0.
          1    1    3    3  502    0  0.73099970516E+03 -0.14281736918E+03  0.17707873604E+03  0.76558098764E+03  0.00000000000E+00 0. -1.
         -1    1    3    3    0  502  0.44908607773E+03 -0.16611937070E+03  0.11064213003E+03  0.49144239894E+03  0.00000000000E+00 0.  1.
         13    1    5    5    0    0 -0.48809792187E+02 -0.61489815707E+02  0.18931595806E+03  0.20494859166E+03  0.00000000000E+00 0.  1.
        -13    1    5    5    0    0 -0.14330613056E+03 -0.64486810298E+02  0.17309316549E+03  0.23378716752E+03  0.00000000000E+00 0. -1.
          2    1    6    6  503    0 -0.80941576357E+03  0.39208309379E+03  0.63142064848E+03  0.10988972045E+04  0.00000000000E+00 0.  1.
         -2    1    6    6    0  503 -0.17855409658E+03  0.42830272098E+02  0.11502330123E+03  0.21667108122E+03  0.00000000000E+00 0. -1.
<mgrwt>
<rscale>  0 0.12711494E+04</rscale>
<asrwt>0</asrwt>
<pdfrwt beam="1">  1        2 0.33906933E+00 0.12711494E+04</pdfrwt>
<pdfrwt beam="2">  1       -2 0.12421181E+00 0.12711494E+04</pdfrwt>
<totfact> 0.24268433E+00</totfact>
</mgrwt>
</event>
<event>
12    1  0.1335216E-007  0.1646462E+04  0.7818608E-02  0.8792502E-01
         -1   -1    0    0    0  501 -0.00000000000E+00  0.00000000000E+00  0.10204819343E+04  0.10204819343E+04  0.00000000000E+00 0.  1.
          1   -1    0    0  501    0  0.00000000000E+00 -0.00000000000E+00 -0.30373530271E+04  0.30373530271E+04  0.00000000000E+00 0. -1.
         23    2    1    2    0    0  0.35438458559E+03 -0.15819514025E+04 -0.35981199381E+03  0.16632340811E+04  0.93403763595E+02 0.  0.
    5000000    2    1    2    0    0 -0.35438458559E+03  0.15819514025E+04 -0.16570590989E+04  0.23946008803E+04  0.60009153001E+03 0.  0.
         23    2    4    4    0    0  0.38331445492E+02  0.38612420191E+01 -0.90493076912E+02  0.13463058238E+03  0.91935781065E+02 0.  0.
         23    2    4    4    0    0 -0.39271603108E+03  0.15780901605E+04 -0.15665660220E+04  0.22599702980E+04  0.93499789418E+02 0.  0.
          1    1    3    3  502    0  0.40199690647E+02 -0.87344141645E+02 -0.12412752171E+02  0.96948907288E+02  0.00000000000E+00 0. -1.
         -1    1    3    3    0  502  0.31418489494E+03 -0.14946072609E+04 -0.34739924164E+03  0.15662851738E+04  0.00000000000E+00 0.  1.
         13    1    5    5    0    0  0.59349957009E+01 -0.42843156328E+01 -0.99709404220E+02  0.99977721640E+02  0.00000000000E+00 0. -1.
        -13    1    5    5    0    0  0.32396449791E+02  0.81455576519E+01  0.92163273081E+01  0.34652860742E+02  0.00000000000E+00 0.  1.
          4    1    6    6  503    0 -0.65155050491E+02  0.14894040765E+03 -0.14788045462E+03  0.21976590840E+03  0.00000000000E+00 0.  1.
         -4    1    6    6    0  503 -0.32756098059E+03  0.14291497529E+04 -0.14186855674E+04  0.20402043896E+04  0.00000000000E+00 0. -1.
<mgrwt>
<rscale>  0 0.16464623E+04</rscale>
<asrwt>0</asrwt>
<pdfrwt beam="1">  1        1 0.46728508E+00 0.16464623E+04</pdfrwt>
<pdfrwt beam="2">  1       -1 0.15699722E+00 0.16464623E+04</pdfrwt>
<totfact> 0.16165697E-01</totfact>
</mgrwt>
</event>
<event>
12    1  0.1335216E-007  0.7872115E+03  0.7818608E-02  0.9578715E-01
          2   -1    0    0  501    0  0.00000000000E+00  0.00000000000E+00  0.21975910707E+04  0.21975910707E+04  0.00000000000E+00 0. -1.
         -2   -1    0    0    0  501 -0.00000000000E+00 -0.00000000000E+00 -0.33157345936E+03  0.33157345936E+03  0.00000000000E+00 0.  1.
         23    2    1    2    0    0 -0.38940127037E+03 -0.63235172894E+03  0.90983881727E+03  0.11779272238E+04  0.90574900429E+02 0.  0.
    5000000    2    1    2    0    0  0.38940127037E+03  0.63235172894E+03  0.95617879411E+03  0.13512373064E+04  0.60005192550E+03 0.  0.
         23    2    4    4    0    0  0.62000604246E+02 -0.42361762353E+02  0.38799169142E+03  0.40598165281E+03  0.92978255373E+02 0.  0.
         23    2    4    4    0    0  0.32740066613E+03  0.67471349129E+03  0.56818710269E+03  0.94525565354E+03  0.90786427228E+02 0.  0.
          4    1    3    3  502    0 -0.23913439862E+03 -0.46593875933E+03  0.62463436504E+03  0.81513942245E+03  0.00000000000E+00 0.  1.
         -4    1    3    3    0  502 -0.15026687175E+03 -0.16641296961E+03  0.28520445224E+03  0.36278780130E+03  0.00000000000E+00 0. -1.
         11    1    5    5    0    0  0.55978151386E+02 -0.40938869732E+02  0.39233760585E+03  0.39841980554E+03  0.00000000000E+00 0.  1.
        -11    1    5    5    0    0  0.60224528599E+01 -0.14228926214E+01 -0.43459144287E+01  0.75618472666E+01  0.00000000000E+00 0. -1.
          1    1    6    6  503    0  0.57320818179E+02  0.15470406407E+03  0.84024770199E+02  0.18514638977E+03  0.00000000000E+00 0. -1.
         -1    1    6    6    0  503  0.27007984795E+03  0.52000942723E+03  0.48416233249E+03  0.76010926378E+03  0.00000000000E+00 0.  1.
<mgrwt>
<rscale>  0 0.78721154E+03</rscale>
<asrwt>0</asrwt>
<pdfrwt beam="1">  1        2 0.33809092E+00 0.78721154E+03</pdfrwt>
<pdfrwt beam="2">  1       -2 0.51011303E-01 0.78721154E+03</pdfrwt>
<totfact> 0.19438788E+01</totfact>
</mgrwt>
</event>
<event>
12    1  0.1335216E-007  0.7113135E+03  0.7818608E-02  0.9698078E-01
          1   -1    0    0  501    0  0.00000000000E+00  0.00000000000E+00  0.23970703561E+04  0.23970703561E+04  0.00000000000E+00 0. -1.
         -1   -1    0    0    0  501 -0.00000000000E+00 -0.00000000000E+00 -0.27008877008E+03  0.27008877008E+03  0.00000000000E+00 0.  1.
         23    2    1    2    0    0 -0.48244999529E+03 -0.34881052251E+03  0.33976527333E+03  0.69014297967E+03  0.80187984503E+02 0.  0.
    5000000    2    1    2    0    0  0.48244999529E+03  0.34881052251E+03  0.17872163127E+04  0.19770161465E+04  0.60001993019E+03 0.  0.
         23    2    4    4    0    0  0.71641747722E+02 -0.15086923751E+03  0.35099857767E+03  0.39923138149E+03  0.91058374647E+02 0.  0.
         23    2    4    4    0    0  0.41080824757E+03  0.49967976002E+03  0.14362177350E+04  0.15777847650E+04  0.90775015772E+02 0.  0.
          3    1    3    3  502    0 -0.29728532110E+03 -0.18827017050E+03  0.16198147543E+03  0.38737864890E+03  0.00000000000E+00 0. -1.
         -3    1    3    3    0  502 -0.18516467419E+03 -0.16054035201E+03  0.17778379790E+03  0.30276433077E+03  0.00000000000E+00 0.  1.
         11    1    5    5    0    0  0.46205028987E+02 -0.29598821412E+02  0.52097415501E+02  0.75664626045E+02  0.00000000000E+00 0.  1.
        -11    1    5    5    0    0  0.25436718735E+02 -0.12127041610E+03  0.29890116217E+03  0.32356675544E+03  0.00000000000E+00 0. -1.
          2    1    6    6  503    0  0.10976201894E+03  0.13677813415E+03  0.49328236085E+03  0.52352979505E+03  0.00000000000E+00 0. -1.
         -2    1    6    6    0  503  0.30104622862E+03  0.36290162587E+03  0.94293537416E+03  0.10542549700E+04  0.00000000000E+00 0.  1.
<mgrwt>
<rscale>  0 0.71131355E+03</rscale>
<asrwt>0</asrwt>
<pdfrwt beam="1">  1        1 0.36878004E+00 0.71131355E+03</pdfrwt>
<pdfrwt beam="2">  1       -1 0.41552120E-01 0.71131355E+03</pdfrwt>
<totfact> 0.96002475E+00</totfact>
</mgrwt>
</event>
<event>
12    1  0.1335216E-007  0.3509991E+03  0.7818608E-02  0.1062206E+00
         -2   -1    0    0    0  501 -0.00000000000E+00  0.00000000000E+00  0.14430887603E+03  0.14430887603E+03  0.00000000000E+00 0.  1.
          2   -1    0    0  501    0  0.00000000000E+00 -0.00000000000E+00 -0.12579248038E+04  0.12579248038E+04  0.00000000000E+00 0. -1.
         23    2    1    2    0    0  0.19484029121E+03  0.15453845671E+02 -0.21939769534E+03  0.30783656053E+03  0.91795636343E+02 0.  0.
    5000000    2    1    2    0    0 -0.19484029121E+03 -0.15453845671E+02 -0.89421823240E+03  0.10943971193E+04  0.59989769721E+03 0.  0.
         23    2    4    4    0    0 -0.27864620130E+03 -0.16896303637E+03 -0.81714043922E+03  0.88443471793E+03  0.91181465882E+02 0.  0.
         23    2    4    4    0    0  0.83805910094E+02  0.15350919070E+03 -0.77077793185E+02  0.20996240135E+03  0.86917901398E+02 0.  0.
          2    1    3    3  502    0  0.83681748503E+02 -0.12442593058E+01 -0.16032364564E+03  0.18085312982E+03  0.00000000000E+00 0. -1.
         -2    1    3    3    0  502  0.11115854270E+03  0.16698104977E+02 -0.59074049700E+02  0.12698343071E+03  0.00000000000E+00 0.  1.
         11    1    5    5    0    0 -0.15389268326E+03 -0.11957882395E+03 -0.37843179133E+03  0.42566732760E+03  0.00000000000E+00 0.  1.
        -11    1    5    5    0    0 -0.12475351804E+03 -0.49384212424E+02 -0.43870864788E+03  0.45876739033E+03  0.00000000000E+00 0. -1.
          3    1    6    6  503    0  0.73406999527E+02  0.11100582101E+03 -0.94122555183E+02  0.16300286891E+03  0.00000000000E+00 0. -1.
         -3    1    6    6    0  503  0.10398910567E+02  0.42503369686E+02  0.17044761999E+02  0.46959532443E+02  0.00000000000E+00 0.  1.
<mgrwt>
<rscale>  0 0.35099911E+03</rscale>
<asrwt>0</asrwt>
<pdfrwt beam="1">  1        2 0.19352688E+00 0.35099911E+03</pdfrwt>
<pdfrwt beam="2">  1       -2 0.22201367E-01 0.35099911E+03</pdfrwt>
<totfact> 0.32369576E+02</totfact>
</mgrwt>
</event>
<event>
12    1  0.1335216E-007  0.3218496E+03  0.7818608E-02  0.1074801E+00
          2   -1    0    0  501    0  0.00000000000E+00  0.00000000000E+00  0.56704262769E+03  0.56704262769E+03  0.00000000000E+00 0. -1.
         -2   -1    0    0    0  501 -0.00000000000E+00 -0.00000000000E+00 -0.51977991528E+03  0.51977991528E+03  0.00000000000E+00 0.  1.
         23    2    1    2    0    0 -0.10253787570E+02 -0.17959291999E+03  0.33694670226E+03  0.39678570915E+03  0.10745725544E+03 0.  0.
    5000000    2    1    2    0    0  0.10253787570E+02  0.17959291999E+03 -0.28968398985E+03  0.69003683383E+03  0.59989604182E+03 0.  0.
         23    2    4    4    0    0 -0.17459068313E+03  0.17044002817E+03  0.74339405485E+02  0.27076175391E+03  0.90850813628E+02 0.  0.
         23    2    4    4    0    0  0.18484447070E+03  0.91528918261E+01 -0.36402339533E+03  0.41927507992E+03  0.95012138756E+02 0.  0.
          3    1    3    3  502    0 -0.15416316640E+02 -0.60377853286E+02  0.33562926365E+02  0.70778655062E+02  0.00000000000E+00 0. -1.
         -3    1    3    3    0  502  0.51625290701E+01 -0.11921506671E+03  0.30338377590E+03  0.32600705408E+03  0.00000000000E+00 0.  1.
         13    1    5    5    0    0 -0.15264266432E+03  0.95780606861E+02  0.68283075139E+02  0.19270777351E+03  0.00000000000E+00 0. -1.
        -13    1    5    5    0    0 -0.21948018812E+02  0.74659421306E+02  0.60563303461E+01  0.78053980403E+02  0.00000000000E+00 0.  1.
          4    1    6    6  503    0  0.15435782575E+03  0.41241538368E+02 -0.24710042434E+03  0.29425468997E+03  0.00000000000E+00 0.  1.
         -4    1    6    6    0  503  0.30486644945E+02 -0.32088646542E+02 -0.11692297099E+03  0.12502038995E+03  0.00000000000E+00 0. -1.
<mgrwt>
<rscale>  0 0.32184963E+03</rscale>
<asrwt>0</asrwt>
<pdfrwt beam="1">  1        2 0.87237327E-01 0.32184963E+03</pdfrwt>
<pdfrwt beam="2">  1       -2 0.79966141E-01 0.32184963E+03</pdfrwt>
<totfact> 0.77209065E+01</totfact>
</mgrwt>
</event>
<event>
12    1  0.1335216E-007  0.9259920E+03  0.7818608E-02  0.9393661E-01
          2   -1    0    0  501    0  0.00000000000E+00  0.00000000000E+00  0.15248999642E+04  0.15248999642E+04  0.00000000000E+00 0. -1.
         -2   -1    0    0    0  501 -0.00000000000E+00 -0.00000000000E+00 -0.65138442633E+03  0.65138442633E+03  0.00000000000E+00 0.  1.
         23    2    1    2    0    0 -0.75768778043E+03 -0.49248126613E+03  0.38975152421E+03  0.98865319551E+03  0.94341508711E+02 0.  0.
    5000000    2    1    2    0    0  0.75768778043E+03  0.49248126613E+03  0.48376401362E+03  0.11876311950E+04  0.59984303308E+03 0.  0.
         23    2    4    4    0    0  0.46667676503E+03  0.43501472790E+03  0.57675044683E+03  0.86460541408E+03  0.88749240131E+02 0.  0.
         23    2    4    4    0    0  0.29101101540E+03  0.57466538227E+02 -0.92986433207E+02  0.32302578091E+03  0.87802985567E+02 0.  0.
          2    1    3    3  502    0 -0.65902089645E+03 -0.40299474005E+03  0.30345128808E+03  0.82993733903E+03  0.00000000000E+00 0. -1.
         -2    1    3    3    0  502 -0.98666883973E+02 -0.89486526078E+02  0.86300236130E+02  0.15871585648E+03  0.00000000000E+00 0.  1.
         11    1    5    5    0    0  0.10080574155E+03  0.11457719857E+03  0.18687678157E+03  0.24127300605E+03  0.00000000000E+00 0. -1.
        -11    1    5    5    0    0  0.36587102348E+03  0.32043752934E+03  0.38987366526E+03  0.62333240802E+03  0.00000000000E+00 0.  1.
          4    1    6    6  503    0  0.23093253977E+03  0.78160703446E+02 -0.58473107064E+02  0.25071505288E+03  0.00000000000E+00 0.  1.
         -4    1    6    6    0  503  0.60078475624E+02 -0.20694165219E+02 -0.34513326143E+02  0.72310728034E+02  0.00000000000E+00 0. -1.
<mgrwt>
<rscale>  0 0.92599205E+03</rscale>
<asrwt>0</asrwt>
<pdfrwt beam="1">  1        2 0.23459999E+00 0.92599205E+03</pdfrwt>
<pdfrwt beam="2">  1       -2 0.10021299E+00 0.92599205E+03</pdfrwt>
<totfact> 0.10134487E+01</totfact>
</mgrwt>
</event>
<event>
12    1  0.1335216E-007  0.7318050E+03  0.7818608E-02  0.9664336E-01
         -1   -1    0    0    0  501 -0.00000000000E+00  0.00000000000E+00  0.19452517545E+03  0.19452517545E+03  0.00000000000E+00 0.  1.
          1   -1    0    0  501    0  0.00000000000E+00 -0.00000000000E+00 -0.31593795551E+04  0.31593795551E+04  0.00000000000E+00 0. -1.
         23    2    1    2    0    0 -0.41349608647E+03  0.52176736676E+03 -0.12591554770E+04  0.14270899641E+04  0.88842848911E+02 0.  0.
    5000000    2    1    2    0    0  0.41349608647E+03 -0.52176736676E+03 -0.17056989026E+04  0.19268147664E+04  0.59998849922E+03 0.  0.
         23    2    4    4    0    0  0.25982629092E+03 -0.20078486506E+02 -0.23550116499E+03  0.36305148353E+03  0.91829918353E+02 0.  0.
         23    2    4    4    0    0  0.15366979555E+03 -0.50168888026E+03 -0.14701977376E+04  0.15637632829E+04  0.92563916307E+02 0.  0.
          1    1    3    3  502    0 -0.27023750167E+03  0.33081726337E+03 -0.89429364683E+03  0.99107491937E+03  0.00000000000E+00 0. -1.
         -1    1    3    3    0  502 -0.14325858479E+03  0.19095010340E+03 -0.36486183020E+03  0.43601504474E+03  0.00000000000E+00 0.  1.
         11    1    5    5    0    0  0.13906113781E+03 -0.41966518182E+02 -0.17112005044E+03  0.22445770283E+03  0.00000000000E+00 0. -1.
        -11    1    5    5    0    0  0.12076515311E+03  0.21888031676E+02 -0.64381114549E+02  0.13859378069E+03  0.00000000000E+00 0.  1.
          2    1    6    6  503    0  0.89257584877E+02 -0.17156811253E+03 -0.61954983959E+03  0.64903354106E+03  0.00000000000E+00 0. -1.
         -2    1    6    6    0  503  0.64412210673E+02 -0.33012076772E+03 -0.85064789806E+03  0.91472974185E+03  0.00000000000E+00 0.  1.
<mgrwt>
<rscale>  0 0.73180502E+03</rscale>
<asrwt>0</asrwt>
<pdfrwt beam="1">  1        1 0.48605836E+00 0.73180502E+03</pdfrwt>
<pdfrwt beam="2">  1       -1 0.29926952E-01 0.73180502E+03</pdfrwt>
<totfact> 0.50192409E+00</totfact>
</mgrwt>
</event>
<event>
12    1  0.1335216E-007  0.5295985E+03  0.7818608E-02  0.1006330E+00
          2   -1    0    0  501    0  0.00000000000E+00  0.00000000000E+00  0.84425156865E+03  0.84425156865E+03  0.00000000000E+00 0. -1.
         -2   -1    0    0    0  501 -0.00000000000E+00 -0.00000000000E+00 -0.55039042963E+03  0.55039042963E+03  0.00000000000E+00 0.  1.
         23    2    1    2    0    0  0.12797048857E+03 -0.44858533011E+03 -0.16945763132E+03  0.50460164359E+03  0.91113586104E+02 0.  0.
    5000000    2    1    2    0    0 -0.12797048857E+03  0.44858533011E+03  0.46331877034E+03  0.89004035468E+03  0.59991858254E+03 0.  0.
         23    2    4    4    0    0 -0.19254673097E+03  0.43227571477E+03  0.77397340844E+02  0.48831568029E+03  0.92332648936E+02 0.  0.
         23    2    4    4    0    0  0.64576242399E+02  0.16309615332E+02  0.38592142950E+03  0.40172467439E+03  0.89505696090E+02 0.  0.
          3    1    3    3  502    0  0.13147808167E+03 -0.31750745532E+03 -0.11203304018E+03  0.36145383140E+03  0.00000000000E+00 0. -1.
         -3    1    3    3    0  502 -0.35075930950E+01 -0.13107787479E+03 -0.57424591142E+02  0.14314781219E+03  0.00000000000E+00 0.  1.
         11    1    5    5    0    0 -0.40587567363E+02  0.13393330032E+03 -0.15632286581E+02  0.14081849290E+03  0.00000000000E+00 0.  1.
        -11    1    5    5    0    0 -0.15195916361E+03  0.29834241445E+03  0.93029627425E+02  0.34749718739E+03  0.00000000000E+00 0. -1.
          2    1    6    6  503    0  0.37182424473E+02  0.52460009142E+02  0.26163260550E+03  0.26941827241E+03  0.00000000000E+00 0. -1.
         -2    1    6    6    0  503  0.27393817926E+02 -0.36150393810E+02  0.12428882399E+03  0.13230640197E+03  0.00000000000E+00 0.  1.
<mgrwt>
<rscale>  0 0.52959851E+03</rscale>
<asrwt>0</asrwt>
<pdfrwt beam="1">  1        2 0.12988486E+00 0.52959851E+03</pdfrwt>
<pdfrwt beam="2">  1       -2 0.84675451E-01 0.52959851E+03</pdfrwt>
<totfact> 0.40381694E+01</totfact>
</mgrwt>
</event>
<event>
12    1  0.1335216E-007  0.6067602E+03  0.7818608E-02  0.9891479E-01
          1   -1    0    0  501    0  0.00000000000E+00  0.00000000000E+00  0.12741375362E+04  0.12741375362E+04  0.00000000000E+00 0. -1.
         -1   -1    0    0    0  501 -0.00000000000E+00 -0.00000000000E+00 -0.49585482019E+03  0.49585482019E+03  0.00000000000E+00 0.  1.
         23    2    1    2    0    0 -0.78599214718E+02  0.57136123766E+03  0.73252023673E+03  0.93650904543E+03  0.88497426487E+02 0.  0.
    5000000    2    1    2    0    0  0.78599214718E+02 -0.57136123766E+03  0.45762479274E+02  0.83348331095E+03  0.59997393665E+03 0.  0.
         23    2    4    4    0    0  0.15023969581E+03 -0.41710965645E+03 -0.22173981070E+03  0.50353246413E+03  0.88453191504E+02 0.  0.
         23    2    4    4    0    0 -0.71640481094E+02 -0.15425158122E+03  0.26750228998E+03  0.32995084681E+03  0.91565153477E+02 0.  0.
          2    1    3    3  502    0  0.12862366519E+01  0.18858261150E+03  0.18947466626E+03  0.26733070329E+03  0.00000000000E+00 0. -1.
         -2    1    3    3    0  502 -0.79885451370E+02  0.38277862616E+03  0.54304557047E+03  0.66917834214E+03  0.00000000000E+00 0.  1.
         13    1    5    5    0    0  0.12279529117E+03 -0.35502181383E+03 -0.22059677938E+03  0.43563988672E+03  0.00000000000E+00 0. -1.
        -13    1    5    5    0    0  0.27444404647E+02 -0.62087842615E+02 -0.11430313190E+01  0.67892577412E+02  0.00000000000E+00 0.  1.
          4    1    6    6  503    0 -0.30323234774E+02  0.36393200200E+00  0.65937320092E+02  0.72576588475E+02  0.00000000000E+00 0. -1.
         -4    1    6    6    0  503 -0.41317246321E+02 -0.15461551322E+03  0.20156496988E+03  0.25737425834E+03  0.00000000000E+00 0.  1.
<mgrwt>
<rscale>  0 0.60676016E+03</rscale>
<asrwt>0</asrwt>
<pdfrwt beam="1">  1        1 0.19602116E+00 0.60676016E+03</pdfrwt>
<pdfrwt beam="2">  1       -1 0.76285357E-01 0.60676016E+03</pdfrwt>
<totfact> 0.17179541E+01</totfact>
</mgrwt>
</event>
<event>
12    1  0.1335216E-007  0.1577552E+04  0.7818608E-02  0.8834458E-01
          1   -1    0    0  501    0  0.00000000000E+00  0.00000000000E+00  0.31195835625E+04  0.31195835625E+04  0.00000000000E+00 0. -1.
         -1   -1    0    0    0  501 -0.00000000000E+00 -0.00000000000E+00 -0.82164519022E+03  0.82164519022E+03  0.00000000000E+00 0.  1.
         23    2    1    2    0    0  0.14545819368E+04 -0.45464731909E+03  0.14107130766E+04  0.20784065230E+04  0.84554687026E+02 0.  0.
    5000000    2    1    2    0    0 -0.14545819368E+04  0.45464731909E+03  0.88722529576E+03  0.18628222297E+04  0.60035417767E+03 0.  0.
         23    2    4    4    0    0 -0.10589535902E+04  0.49672982278E+02  0.60002216091E+03  0.12213419584E+04  0.88314632473E+02 0.  0.
         23    2    4    4    0    0 -0.39562834656E+03  0.40497433681E+03  0.28720313485E+03  0.64148027137E+03  0.92115665394E+02 0.  0.
          2    1    3    3  502    0  0.37526880540E+03 -0.15394202840E+03  0.35729087522E+03  0.54053824466E+03  0.00000000000E+00 0. -1.
         -2    1    3    3    0  502  0.10793131314E+04 -0.30070529069E+03  0.10534222013E+04  0.15378682784E+04  0.00000000000E+00 0.  1.
         13    1    5    5    0    0 -0.39254707947E+03  0.54970869991E+02  0.24933783738E+03  0.46827808330E+03  0.00000000000E+00 0. -1.
        -13    1    5    5    0    0 -0.66640651073E+03 -0.52978877133E+01  0.35068432353E+03  0.75306387506E+03  0.00000000000E+00 0.  1.
          4    1    6    6  503    0 -0.26926255557E+03  0.26801950119E+03  0.14332284540E+03  0.40605198542E+03  0.00000000000E+00 0. -1.
         -4    1    6    6    0  503 -0.12636579099E+03  0.13695483562E+03  0.14388028945E+03  0.23542828595E+03  0.00000000000E+00 0.  1.
<mgrwt>
<rscale>  0 0.15775522E+04</rscale>
<asrwt>0</asrwt>
<pdfrwt beam="1">  1        1 0.47993593E+00 0.15775522E+04</pdfrwt>
<pdfrwt beam="2">  1       -1 0.12640695E+00 0.15775522E+04</pdfrwt>
<totfact> 0.25155713E-01</totfact>
</mgrwt>
</event>
<event>
12    1  0.1335216E-007  0.5328567E+03  0.7818608E-02  0.1005542E+00
          2   -1    0    0  501    0  0.00000000000E+00  0.00000000000E+00  0.71369241682E+03  0.71369241682E+03  0.00000000000E+00 0. -1.
         -2   -1    0    0    0  501 -0.00000000000E+00 -0.00000000000E+00 -0.44641000741E+03  0.44641000741E+03  0.00000000000E+00 0.  1.
         23    2    1    2    0    0  0.33999638017E+03  0.18004401995E+03  0.20255445151E+03  0.44430991680E+03  0.91485565449E+02 0.  0.
    5000000    2    1    2    0    0 -0.33999638017E+03 -0.18004401995E+03  0.64727957895E+02  0.71579250743E+03  0.60012983387E+03 0.  0.
         23    2    4    4    0    0 -0.22240578213E+03 -0.37150874454E+03  0.13571326880E+03  0.46307801968E+03  0.92412562910E+02 0.  0.
         23    2    4    4    0    0 -0.11759059804E+03  0.19146472459E+03 -0.70985310901E+02  0.25271448775E+03  0.91320361609E+02 0.  0.
          4    1    3    3  502    0  0.17141571752E+03  0.54437016394E+02  0.12998545170E+03  0.22190753619E+03  0.00000000000E+00 0. -1.
         -4    1    3    3    0  502  0.16858066265E+03  0.12560700356E+03  0.72568999814E+02  0.22240238060E+03  0.00000000000E+00 0.  1.
         11    1    5    5    0    0 -0.13242383901E+03 -0.19765315632E+03  0.27769899442E+02  0.23952872616E+03  0.00000000000E+00 0.  1.
        -11    1    5    5    0    0 -0.89981943124E+02 -0.17385558822E+03  0.10794336935E+03  0.22354929352E+03  0.00000000000E+00 0. -1.
          3    1    6    6  503    0  0.16093532506E+01  0.75953115464E+02 -0.30484142427E+02  0.81858101042E+02  0.00000000000E+00 0. -1.
         -3    1    6    6    0  503 -0.11919995129E+03  0.11551160912E+03 -0.40501168474E+02  0.17085638671E+03  0.00000000000E+00 0.  1.
<mgrwt>
<rscale>  0 0.53285672E+03</rscale>
<asrwt>0</asrwt>
<pdfrwt beam="1">  1        2 0.10979883E+00 0.53285672E+03</pdfrwt>
<pdfrwt beam="2">  1       -2 0.68678463E-01 0.53285672E+03</pdfrwt>
<totfact> 0.79778826E+01</totfact>
</mgrwt>
</event>
<event>
12    1  0.1335216E-007  0.1872617E+04  0.7818608E-02  0.8668608E-01
         -2   -1    0    0    0  501 -0.00000000000E+00  0.00000000000E+00  0.13372072142E+04  0.13372072142E+04  0.00000000000E+00 0.  1.
          2   -1    0    0  501    0  0.00000000000E+00 -0.00000000000E+00 -0.26506238520E+04  0.26506238520E+04  0.00000000000E+00 0. -1.
         23    2    1    2    0    0 -0.12208167390E+04  0.13656481689E+04 -0.55627479026E+03  0.19169196249E+04  0.98746010880E+02 0.  0.
    5000000    2    1    2    0    0  0.12208167390E+04 -0.13656481689E+04 -0.75714184754E+03  0.20709114412E+04  0.60001832344E+03 0.  0.
         23    2    4    4    0    0  0.50294856818E+03 -0.96043978261E+03 -0.32367158114E+03  0.11351627417E+04  0.91811325095E+02 0.  0.
         23    2    4    4    0    0  0.71786817086E+03 -0.40520838630E+03 -0.43347026640E+03  0.93574869952E+03  0.90557218096E+02 0.  0.
          3    1    3    3  502    0 -0.31398664099E+03  0.31169990310E+03 -0.10000990762E+03  0.45359279308E+03  0.00000000000E+00 0. -1.
         -3    1    3    3    0  502 -0.90683009805E+03  0.10539482658E+04 -0.45626488264E+03  0.14633268319E+04  0.00000000000E+00 0.  1.
         13    1    5    5    0    0  0.82699343172E+02 -0.23957607422E+03 -0.84012374255E+02  0.26700928023E+03  0.00000000000E+00 0. -1.
        -13    1    5    5    0    0  0.42024922501E+03 -0.72086370838E+03 -0.23965920689E+03  0.86815346145E+03  0.00000000000E+00 0.  1.
          1    1    6    6  503    0  0.65754077656E+03 -0.36489965136E+03 -0.42191877816E+03  0.86228016547E+03  0.00000000000E+00 0. -1.
         -1    1    6    6    0  503  0.60327394295E+02 -0.40308734932E+02 -0.11551488236E+02  0.73468534045E+02  0.00000000000E+00 0.  1.
<mgrwt>
<rscale>  0 0.18726165E+04</rscale>
<asrwt>0</asrwt>
<pdfrwt beam="1">  1        2 0.40778828E+00 0.18726165E+04</pdfrwt>
<pdfrwt beam="2">  1       -2 0.20572419E+00 0.18726165E+04</pdfrwt>
<totfact> 0.31354041E-01</totfact>
</mgrwt>
</event>
<event>
12    1  0.1335216E-007  0.6735864E+03  0.7818608E-02  0.9763501E-01
          2   -1    0    0  501    0  0.00000000000E+00  0.00000000000E+00  0.14157058814E+04  0.14157058814E+04  0.00000000000E+00 0.  1.
         -2   -1    0    0    0  501 -0.00000000000E+00 -0.00000000000E+00 -0.33394944573E+03  0.33394944573E+03  0.00000000000E+00 0. -1.
         23    2    1    2    0    0  0.23067751768E+03  0.49101610897E+03  0.30897551393E+03  0.63095914118E+03  0.91294212332E+02 0.  0.
    5000000    2    1    2    0    0 -0.23067751768E+03 -0.49101610897E+03  0.77278092170E+03  0.11186961859E+04  0.59998488898E+03 0.  0.
         23    2    4    4    0    0  0.84519570847E+02  0.75057143106E+02  0.21346019546E+03  0.25807226707E+03  0.90878531000E+02 0.  0.
         23    2    4    4    0    0 -0.31519708852E+03 -0.56607325207E+03  0.55932072624E+03  0.86062391884E+03  0.89697957365E+02 0.  0.
          3    1    3    3  502    0  0.17901875058E+03  0.27590548440E+03  0.18290760743E+03  0.37633328611E+03  0.00000000000E+00 0. -1.
         -3    1    3    3    0  502  0.51658767097E+02  0.21511062457E+03  0.12606790651E+03  0.25462585507E+03  0.00000000000E+00 0.  1.
         13    1    5    5    0    0 -0.87962232047E+01  0.44634294057E+02  0.51715747283E+02  0.68877516402E+02  0.00000000000E+00 0.  1.
        -13    1    5    5    0    0  0.93315794052E+02  0.30422849049E+02  0.16174444817E+03  0.18919475066E+03  0.00000000000E+00 0. -1.
          1    1    6    6  503    0  0.36388378171E+01  0.92390792113E-01  0.67448438094E+01  0.76643717766E+01  0.00000000000E+00 0. -1.
         -1    1    6    6    0  503 -0.31883592634E+03 -0.56616564286E+03  0.55257588243E+03  0.85295954706E+03  0.00000000000E+00 0.  1.
<mgrwt>
<rscale>  0 0.67358638E+03</rscale>
<asrwt>0</asrwt>
<pdfrwt beam="1">  1        2 0.21780090E+00 0.67358638E+03</pdfrwt>
<pdfrwt beam="2">  1       -2 0.51376839E-01 0.67358638E+03</pdfrwt>
<totfact> 0.52193690E+01</totfact>
</mgrwt>
</event>
<event>
12    1  0.1335216E-007  0.1726239E+04  0.7818608E-02  0.8746539E-01
         -2   -1    0    0    0  501 -0.00000000000E+00  0.00000000000E+00  0.22577554841E+04  0.22577554841E+04  0.00000000000E+00 0.  1.
          2   -1    0    0  501    0  0.00000000000E+00 -0.00000000000E+00 -0.14174508820E+04  0.14174508820E+04  0.00000000000E+00 0. -1.
         23    2    1    2    0    0  0.17131187022E+04 -0.39410312529E+02  0.11286939305E+03  0.17196887082E+04  0.90889452360E+02 0.  0.
    5000000    2    1    2    0    0 -0.17131187022E+04  0.39410312529E+02  0.72743520907E+03  0.19555176580E+04  0.59879751723E+03 0.  0.
         23    2    4    4    0    0 -0.16961611235E+03  0.19854044339E+02 -0.82343739915E+02  0.21000194240E+03  0.90313430142E+02 0.  0.
         23    2    4    4    0    0 -0.15435025898E+04  0.19556268190E+02  0.80977894899E+03  0.17455157156E+04  0.91106940164E+02 0.  0.
          3    1    3    3  502    0  0.29567887338E+03  0.22672394974E+02  0.18446639920E+01  0.29655258630E+03  0.00000000000E+00 0. -1.
         -3    1    3    3    0  502  0.14174398288E+04 -0.62082707503E+02  0.11102472906E+03  0.14231361219E+04  0.00000000000E+00 0.  1.
         11    1    5    5    0    0 -0.67019188250E+02 -0.34963506641E+02 -0.44299516268E+02  0.87615441172E+02  0.00000000000E+00 0. -1.
        -11    1    5    5    0    0 -0.10259692410E+03  0.54817550980E+02 -0.38044223648E+02  0.12238650123E+03  0.00000000000E+00 0.  1.
          3    1    6    6  503    0 -0.32542920266E+03 -0.24488006346E+02  0.19816120761E+03  0.38180059272E+03  0.00000000000E+00 0. -1.
         -3    1    6    6    0  503 -0.12180733872E+04  0.44044274537E+02  0.61161774138E+03  0.13637151228E+04  0.00000000000E+00 0.  1.
<mgrwt>
<rscale>  0 0.17262393E+04</rscale>
<asrwt>0</asrwt>
<pdfrwt beam="1">  1        2 0.21806937E+00 0.17262393E+04</pdfrwt>
<pdfrwt beam="2">  1       -2 0.34734700E+00 0.17262393E+04</pdfrwt>
<totfact> 0.21052546E-01</totfact>
</mgrwt>
</event>
<event>
12    1  0.1335216E-007  0.1086434E+04  0.7818608E-02  0.9218516E-01
         -1   -1    0    0    0  501 -0.00000000000E+00  0.00000000000E+00  0.76622233553E+03  0.76622233553E+03  0.00000000000E+00 0.  1.
          1   -1    0    0  501    0  0.00000000000E+00 -0.00000000000E+00 -0.16278899483E+04  0.16278899483E+04  0.00000000000E+00 0. -1.
         23    2    1    2    0    0 -0.68127664989E+03 -0.76908767614E+03 -0.52734839534E+03  0.11581754985E+04  0.87409542189E+02 0.  0.
    5000000    2    1    2    0    0  0.68127664989E+03  0.76908767614E+03 -0.33431921741E+03  0.12359367853E+04  0.60011388150E+03 0.  0.
         23    2    4    4    0    0  0.40571125587E+03  0.10821010372E+03  0.23570903065E+02  0.43017214033E+03  0.90451275031E+02 0.  0.
         23    2    4    4    0    0  0.27556539402E+03  0.66087757242E+03 -0.35789012047E+03  0.80576464494E+03  0.92064502363E+02 0.  0.
          1    1    3    3  502    0 -0.50513175921E+03 -0.51179231028E+03 -0.37947414054E+03  0.81307446545E+03  0.00000000000E+00 0. -1.
         -1    1    3    3    0  502 -0.17614489068E+03 -0.25729536587E+03 -0.14787425480E+03  0.34510103309E+03  0.00000000000E+00 0.  1.
         13    1    5    5    0    0  0.20796113595E+03  0.47454157159E+02 -0.32661788131E+02  0.21579277907E+03  0.00000000000E+00 0.  1.
        -13    1    5    5    0    0  0.19775011992E+03  0.60755946562E+02  0.56232691197E+02  0.21437936125E+03  0.00000000000E+00 0. -1.
          3    1    6    6  503    0  0.16776711972E+03  0.50598572020E+03 -0.27118929281E+03  0.59808944819E+03  0.00000000000E+00 0. -1.
         -3    1    6    6    0  503  0.10779827431E+03  0.15489185222E+03 -0.86700827668E+02  0.20767519675E+03  0.00000000000E+00 0.  1.
<mgrwt>
<rscale>  0 0.10864338E+04</rscale>
<asrwt>0</asrwt>
<pdfrwt beam="1">  1        1 0.25044461E+00 0.10864338E+04</pdfrwt>
<pdfrwt beam="2">  1       -1 0.11788036E+00 0.10864338E+04</pdfrwt>
<totfact> 0.34383316E+00</totfact>
</mgrwt>
</event>
<event>
12    1  0.1335216E-007  0.3447021E+03  0.7818608E-02  0.1064811E+00
         -2   -1    0    0    0  501 -0.00000000000E+00  0.00000000000E+00  0.75535061462E+03  0.75535061462E+03  0.00000000000E+00 0. -1.
          2   -1    0    0  501    0  0.00000000000E+00 -0.00000000000E+00 -0.34281301991E+03  0.34281301991E+03  0.00000000000E+00 0.  1.
         23    2    1    2    0    0  0.31447686298E+03 -0.76780695813E+02  0.14122739637E+03  0.36469030207E+03  0.90900309893E+02 0.  0.
    5000000    2    1    2    0    0 -0.31447686298E+03  0.76780695813E+02  0.27131019834E+03  0.73347333246E+03  0.59965234353E+03 0.  0.
         23    2    4    4    0    0 -0.13936658163E+03  0.82904907224E+02  0.43773724607E+03  0.47513374771E+03  0.88554581495E+02 0.  0.
         23    2    4    4    0    0 -0.17511028135E+03 -0.61242114109E+01 -0.16642704773E+03  0.25833958474E+03  0.91325036146E+02 0.  0.
          1    1    3    3  502    0  0.56614937772E+02 -0.24703485467E+02 -0.79331877977E+01  0.62277193593E+02  0.00000000000E+00 0. -1.
         -1    1    3    3    0  502  0.25786192521E+03 -0.52077210347E+02  0.14916058417E+03  0.30241310848E+03  0.00000000000E+00 0.  1.
         11    1    5    5    0    0 -0.11090148699E+03  0.18658977014E+02  0.23405884477E+03  0.25967448865E+03  0.00000000000E+00 0. -1.
        -11    1    5    5    0    0 -0.28465094639E+02  0.64245930211E+02  0.20367840130E+03  0.21545925907E+03  0.00000000000E+00 0.  1.
          3    1    6    6  503    0 -0.57527841958E+01 -0.10995113975E+02 -0.53037475176E+02  0.54469815773E+02  0.00000000000E+00 0.  1.
         -3    1    6    6    0  503 -0.16935749716E+03  0.48709025638E+01 -0.11338957256E+03  0.20386976897E+03  0.00000000000E+00 0. -1.
<mgrwt>
<rscale>  0 0.34470214E+03</rscale>
<asrwt>0</asrwt>
<pdfrwt beam="1">  1        2 0.52740465E-01 0.34470214E+03</pdfrwt>
<pdfrwt beam="2">  1       -2 0.11620779E+00 0.34470214E+03</pdfrwt>
<totfact> 0.56783857E+01</totfact>
</mgrwt>
</event>
<event>
12    1  0.1335216E-007  0.2874785E+03  0.7818608E-02  0.1091673E+00
         -1   -1    0    0    0  501 -0.00000000000E+00  0.00000000000E+00  0.12798662544E+04  0.12798662544E+04  0.00000000000E+00 0.  1.
          1   -1    0    0  501    0  0.00000000000E+00 -0.00000000000E+00 -0.22140419003E+03  0.22140419003E+03  0.00000000000E+00 0. -1.
         23    2    1    2    0    0  0.12476786893E+03 -0.13090338931E+03 -0.69702994667E+02  0.21072962143E+03  0.82739032094E+02 0.  0.
    5000000    2    1    2    0    0 -0.12476786893E+03  0.13090338931E+03  0.11281650590E+04  0.12905408230E+04  0.60003041335E+03 0.  0.
         23    2    4    4    0    0 -0.17448166616E+03  0.22407393804E+03  0.11091423852E+04  0.11484684671E+04  0.90166555442E+02 0.  0.
         23    2    4    4    0    0  0.49713797220E+02 -0.93170548731E+02  0.19022673819E+02  0.14207235589E+03  0.93115409060E+02 0.  0.
          1    1    3    3  502    0  0.83432468828E+02 -0.89439978622E+02 -0.86513014335E+02  0.14981651538E+03  0.00000000000E+00 0. -1.
         -1    1    3    3    0  502  0.41335400107E+02 -0.41463410685E+02  0.16810019669E+02  0.60913106053E+02  0.00000000000E+00 0.  1.
         11    1    5    5    0    0 -0.17525851053E+03  0.21065847158E+03  0.94924460661E+03  0.98800701432E+03  0.00000000000E+00 0.  1.
        -11    1    5    5    0    0  0.77684437866E+00  0.13415466456E+02  0.15989777860E+03  0.16046145279E+03  0.00000000000E+00 0. -1.
          3    1    6    6  503    0  0.45618917244E+01 -0.21057679320E+02  0.47656803865E+02  0.52301124932E+02  0.00000000000E+00 0. -1.
         -3    1    6    6    0  503  0.45151905496E+02 -0.72112869410E+02 -0.28634130046E+02  0.89771230960E+02  0.00000000000E+00 0.  1.
<mgrwt>
<rscale>  0 0.28747854E+03</rscale>
<asrwt>0</asrwt>
<pdfrwt beam="1">  1        1 0.34062184E-01 0.28747854E+03</pdfrwt>
<pdfrwt beam="2">  1       -1 0.19690250E+00 0.28747854E+03</pdfrwt>
<totfact> 0.22689573E+01</totfact>
</mgrwt>
</event>
<event>
12    1  0.1335216E-007  0.1034169E+04  0.7818608E-02  0.9271843E-01
         -2   -1    0    0    0  501 -0.00000000000E+00  0.00000000000E+00  0.13714429421E+04  0.13714429421E+04  0.00000000000E+00 0.  1.
          2   -1    0    0  501    0  0.00000000000E+00 -0.00000000000E+00 -0.91080052640E+03  0.91080052640E+03  0.00000000000E+00 0. -1.
         23    2    1    2    0    0 -0.93370307159E+03 -0.30685884375E+03  0.54556462783E+03  0.11275454461E+04  0.88057901911E+02 0.  0.
    5000000    2    1    2    0    0  0.93370307159E+03  0.30685884375E+03 -0.84922212166E+02  0.11546980223E+04  0.60012662396E+03 0.  0.
         23    2    4    4    0    0  0.16633515015E+03 -0.94946023039E+02 -0.18045182319E+03  0.27852535644E+03  0.91276416555E+02 0.  0.
         23    2    4    4    0    0  0.76736792143E+03  0.40180486679E+03  0.95529611020E+02  0.87617266590E+03  0.90840277755E+02 0.  0.
          1    1    3    3  502    0 -0.58694136397E+03 -0.14947438997E+03  0.34822476010E+03  0.69864385887E+03  0.00000000000E+00 0. -1.
         -1    1    3    3    0  502 -0.34676170762E+03 -0.15738445379E+03  0.19733986772E+03  0.42890158726E+03  0.00000000000E+00 0.  1.
         11    1    5    5    0    0  0.15618051925E+03 -0.11208306470E+03 -0.16418359208E+03  0.25280668483E+03  0.00000000000E+00 0.  1.
        -11    1    5    5    0    0  0.10154630901E+02  0.17137041665E+02 -0.16268231110E+02  0.25718671607E+02  0.00000000000E+00 0. -1.
          3    1    6    6  503    0  0.90507678911E+02  0.77514445910E+02  0.29344758034E+02  0.12272426040E+03  0.00000000000E+00 0. -1.
         -3    1    6    6    0  503  0.67686024252E+03  0.32429042088E+03  0.66184852986E+02  0.75344840550E+03  0.00000000000E+00 0.  1.
<mgrwt>
<rscale>  0 0.10341693E+04</rscale>
<asrwt>0</asrwt>
<pdfrwt beam="1">  1        2 0.14012316E+00 0.10341693E+04</pdfrwt>
<pdfrwt beam="2">  1       -2 0.21099122E+00 0.10341693E+04</pdfrwt>
<totfact> 0.32192068E+00</totfact>
</mgrwt>
</event>
<event>
12    1  0.1335216E-007  0.1928831E+04  0.7818608E-02  0.8640637E-01
         -1   -1    0    0    0  501 -0.00000000000E+00  0.00000000000E+00  0.11800233249E+04  0.11800233249E+04  0.00000000000E+00 0.  1.
          1   -1    0    0  501    0  0.00000000000E+00 -0.00000000000E+00 -0.36674300585E+04  0.36674300585E+04  0.00000000000E+00 0. -1.
         23    2    1    2    0    0 -0.77843021233E+03 -0.17520291208E+04 -0.41994519291E+03  0.19647497284E+04  0.91257299190E+02 0.  0.
    5000000    2    1    2    0    0  0.77843021233E+03  0.17520291208E+04 -0.20674615407E+04  0.28827036550E+04  0.60001958707E+03 0.  0.
         23    2    4    4    0    0  0.69666104807E+03  0.12642774938E+04 -0.11990438882E+04  0.18791226481E+04  0.98292846484E+02 0.  0.
         23    2    4    4    0    0  0.81769164265E+02  0.48775162697E+03 -0.86841765253E+03  0.10035810069E+04  0.91857347886E+02 0.  0.
          1    1    3    3  502    0 -0.35340377289E+03 -0.69327239943E+03 -0.18765467875E+03  0.80045932125E+03  0.00000000000E+00 0. -1.
         -1    1    3    3    0  502 -0.42502643944E+03 -0.10587567213E+04 -0.23229051417E+03  0.11642904071E+04  0.00000000000E+00 0.  1.
         13    1    5    5    0    0  0.64651457395E+03  0.11653566633E+04 -0.11384585555E+04  0.17527478796E+04  0.00000000000E+00 0.  1.
        -13    1    5    5    0    0  0.50146474122E+02  0.98920830486E+02 -0.60585332755E+02  0.12637476851E+03  0.00000000000E+00 0. -1.
          3    1    6    6  503    0  0.23575881178E+02  0.20591823692E+03 -0.27796096504E+03  0.34672819406E+03  0.00000000000E+00 0. -1.
         -3    1    6    6    0  503  0.58193283087E+02  0.28183339004E+03 -0.59045668749E+03  0.65685281284E+03  0.00000000000E+00 0.  1.
<mgrwt>
<rscale>  0 0.19288314E+04</rscale>
<asrwt>0</asrwt>
<pdfrwt beam="1">  1        1 0.56422000E+00 0.19288314E+04</pdfrwt>
<pdfrwt beam="2">  1       -1 0.18154205E+00 0.19288314E+04</pdfrwt>
<totfact> 0.33657558E-02</totfact>
</mgrwt>
</event>
<event>
12    1  0.1335216E-007  0.3629933E+03  0.7818608E-02  0.1057405E+00
         -1   -1    0    0    0  501 -0.00000000000E+00  0.00000000000E+00  0.86146883789E+03  0.86146883789E+03  0.00000000000E+00 0.  1.
          1   -1    0    0  501    0  0.00000000000E+00 -0.00000000000E+00 -0.39514896347E+03  0.39514896347E+03  0.00000000000E+00 0. -1.
         23    2    1    2    0    0 -0.68725148796E+02  0.12574128093E+03  0.60151087063E+03  0.62511549714E+03  0.91760783979E+02 0.  0.
    5000000    2    1    2    0    0  0.68725148796E+02 -0.12574128093E+03 -0.13519099620E+03  0.63150230422E+03  0.59998711567E+03 0.  0.
         23    2    4    4    0    0 -0.31464563912E+02 -0.32519143856E+03  0.27240073606E+02  0.34025547346E+03  0.91061930114E+02 0.  0.
         23    2    4    4    0    0  0.10018971271E+03  0.19945015763E+03 -0.16243106981E+03  0.29124683075E+03  0.92857525663E+02 0.  0.
          4    1    3    3  502    0 -0.75235867984E+02  0.44177559140E+02  0.34555936247E+03  0.35640337478E+03  0.00000000000E+00 0. -1.
         -4    1    3    3    0  502  0.65107191880E+01  0.81563721791E+02  0.25595150816E+03  0.26871212236E+03  0.00000000000E+00 0.  1.
         11    1    5    5    0    0  0.17841774704E+02 -0.38743692140E+02  0.25290859457E+02  0.49588609350E+02  0.00000000000E+00 0. -1.
        -11    1    5    5    0    0 -0.49306338617E+02 -0.28644774642E+03  0.19492141495E+01  0.29066686411E+03  0.00000000000E+00 0.  1.
          3    1    6    6  503    0  0.81137439803E+02  0.17212352407E+03 -0.87899797139E+02  0.20960955611E+03  0.00000000000E+00 0. -1.
         -3    1    6    6    0  503  0.19052272905E+02  0.27326633556E+02 -0.74531272670E+02  0.81637274637E+02  0.00000000000E+00 0.  1.
<mgrwt>
<rscale>  0 0.36299332E+03</rscale>
<asrwt>0</asrwt>
<pdfrwt beam="1">  1        1 0.60792149E-01 0.36299332E+03</pdfrwt>
<pdfrwt beam="2">  1       -1 0.13253367E+00 0.36299332E+03</pdfrwt>
<totfact> 0.31714932E+01</totfact>
</mgrwt>
</event>
<event>
12    1  0.1335216E-007  0.1496620E+04  0.7818608E-02  0.8886704E-01
         -1   -1    0    0    0  501 -0.00000000000E+00  0.00000000000E+00  0.67152909923E+03  0.67152909923E+03  0.00000000000E+00 0.  1.
          1   -1    0    0  501    0  0.00000000000E+00 -0.00000000000E+00 -0.39171103909E+04  0.39171103909E+04  0.00000000000E+00 0. -1.
         23    2    1    2    0    0  0.12507040363E+04 -0.70931287579E+03 -0.24426491831E+04  0.28358975370E+04  0.91621322422E+02 0.  0.
    5000000    2    1    2    0    0 -0.12507040363E+04  0.70931287579E+03 -0.80293210856E+03  0.17527419531E+04  0.60001586743E+03 0.  0.
         23    2    4    4    0    0 -0.11648958860E+04  0.41812780628E+03 -0.65026045017E+03  0.14009478620E+04  0.89459328169E+02 0.  0.
         23    2    4    4    0    0 -0.85808150209E+02  0.29118506951E+03 -0.15267165840E+03  0.35179409107E+03  0.91097002619E+02 0.  0.
          3    1    3    3  502    0  0.65106647012E+03 -0.34158156916E+03 -0.11715474801E+04  0.13831446110E+04  0.00000000000E+00 0. -1.
         -3    1    3    3    0  502  0.59963756614E+03 -0.36773130663E+03 -0.12711017030E+04  0.14527529260E+04  0.00000000000E+00 0.  1.
         13    1    5    5    0    0 -0.94132396988E+03  0.34540025740E+03 -0.48688414839E+03  0.11146516622E+04  0.00000000000E+00 0. -1.
        -13    1    5    5    0    0 -0.22357191616E+03  0.72727548883E+02 -0.16337630177E+03  0.28629619984E+03  0.00000000000E+00 0.  1.
          1    1    6    6  503    0  0.18929177416E+02  0.61772325583E+02 -0.26947027908E+02  0.70001973391E+02  0.00000000000E+00 0. -1.
         -1    1    6    6    0  503 -0.10473732762E+03  0.22941274392E+03 -0.12572463049E+03  0.28179211768E+03  0.00000000000E+00 0.  1.
<mgrwt>
<rscale>  0 0.14966200E+04</rscale>
<asrwt>0</asrwt>
<pdfrwt beam="1">  1        1 0.60263238E+00 0.14966200E+04</pdfrwt>
<pdfrwt beam="2">  1       -1 0.10331217E+00 0.14966200E+04</pdfrwt>
<totfact> 0.96987242E-02</totfact>
</mgrwt>
</event>
<event>
12    1  0.1335216E-007  0.1500870E+04  0.7818608E-02  0.8883874E-01
          2   -1    0    0  501    0  0.00000000000E+00  0.00000000000E+00  0.33799766873E+04  0.33799766873E+04  0.00000000000E+00 0. -1.
         -2   -1    0    0    0  501 -0.00000000000E+00 -0.00000000000E+00 -0.16805453648E+04  0.16805453648E+04  0.00000000000E+00 0.  1.
         23    2    1    2    0    0 -0.13486693097E+04  0.52044520202E+03  0.27962415426E+04  0.31491435316E+04  0.91466405212E+02 0.  0.
    5000000    2    1    2    0    0  0.13486693097E+04 -0.52044520202E+03 -0.10968102201E+04  0.19113785204E+04  0.60050235135E+03 0.  0.
         23    2    4    4    0    0  0.64499876527E+03 -0.54287309881E+03 -0.50593044406E+03  0.98731445366E+03  0.89942245757E+02 0.  0.
         23    2    4    4    0    0  0.70367054446E+03  0.22427896787E+02 -0.59087977602E+03  0.92406406671E+03  0.95395198998E+02 0.  0.
          3    1    3    3  502    0 -0.55017043087E+03  0.17842049749E+03  0.11872274260E+04  0.13206174079E+04  0.00000000000E+00 0. -1.
         -3    1    3    3    0  502 -0.79849887886E+03  0.34202470453E+03  0.16090141166E+04  0.18285261238E+04  0.00000000000E+00 0.  1.
         11    1    5    5    0    0  0.45527717012E+03 -0.43140513764E+03 -0.35828648383E+03  0.72232741808E+03  0.00000000000E+00 0. -1.
        -11    1    5    5    0    0  0.18972159515E+03 -0.11146796117E+03 -0.14764396023E+03  0.26498703558E+03  0.00000000000E+00 0.  1.
          1    1    6    6  503    0  0.48454900802E+03  0.47609234713E+02 -0.36629325109E+03  0.60928246831E+03  0.00000000000E+00 0. -1.
         -1    1    6    6    0  503  0.21912153644E+03 -0.25181337926E+02 -0.22458652493E+03  0.31478159840E+03  0.00000000000E+00 0.  1.
<mgrwt>
<rscale>  0 0.15008705E+04</rscale>
<asrwt>0</asrwt>
<pdfrwt beam="1">  1        2 0.51999641E+00 0.15008705E+04</pdfrwt>
<pdfrwt beam="2">  1       -2 0.25854544E+00 0.15008705E+04</pdfrwt>
<totfact> 0.52909890E-02</totfact>
</mgrwt>
</event>
<event>
12    1  0.1335216E-007  0.2162471E+04  0.7818608E-02  0.8534213E-01
         -2   -1    0    0    0  501 -0.00000000000E+00  0.00000000000E+00  0.14488813439E+04  0.14488813439E+04  0.00000000000E+00 0.  1.
          2   -1    0    0  501    0  0.00000000000E+00 -0.00000000000E+00 -0.32546100796E+04  0.32546100796E+04  0.00000000000E+00 0. -1.
         23    2    1    2    0    0  0.20411197310E+04  0.59928698853E+03 -0.79173179512E+03  0.22717178911E+04  0.92456966581E+02 0.  0.
    5000000    2    1    2    0    0 -0.20411197310E+04 -0.59928698853E+03 -0.10139969405E+04  0.24317735323E+04  0.60001505498E+03 0.  0.
         23    2    4    4    0    0 -0.12897896961E+04 -0.64684210362E+03 -0.74895976247E+03  0.16282843759E+04  0.91690324910E+02 0.  0.
         23    2    4    4    0    0 -0.75133003489E+03  0.47555115091E+02 -0.26503717808E+03  0.80348915646E+03  0.92692008774E+02 0.  0.
          3    1    3    3  502    0  0.13728995444E+04  0.40971995864E+03 -0.57873325138E+03  0.15452041224E+04  0.00000000000E+00 0. -1.
         -3    1    3    3    0  502  0.66822018656E+03  0.18956702989E+03 -0.21299854374E+03  0.72651376875E+03  0.00000000000E+00 0.  1.
         11    1    5    5    0    0 -0.39088113744E+03 -0.15910463239E+03 -0.19033261059E+03  0.46295663977E+03  0.00000000000E+00 0. -1.
        -11    1    5    5    0    0 -0.89890855866E+03 -0.48773747123E+03 -0.55862715188E+03  0.11653277361E+04  0.00000000000E+00 0.  1.
          1    1    6    6  503    0 -0.33159703266E+03  0.16259863017E+02 -0.68603448344E+02  0.33900945170E+03  0.00000000000E+00 0. -1.
         -1    1    6    6    0  503 -0.41973300223E+03  0.31295252074E+02 -0.19643372973E+03  0.46447970476E+03  0.00000000000E+00 0.  1.
<mgrwt>
<rscale>  0 0.21624708E+04</rscale>
<asrwt>0</asrwt>
<pdfrwt beam="1">  1        2 0.50070924E+00 0.21624708E+04</pdfrwt>
<pdfrwt beam="2">  1       -2 0.22290482E+00 0.21624708E+04</pdfrwt>
<totfact> 0.99200737E-02</totfact>
</mgrwt>
</event>
<event>
12    1  0.1335216E-007  0.4364218E+03  0.7818608E-02  0.1031850E+00
          2   -1    0    0  501    0  0.00000000000E+00  0.00000000000E+00  0.18618097402E+04  0.18618097402E+04  0.00000000000E+00 0. -1.
         -2   -1    0    0    0  501 -0.00000000000E+00 -0.00000000000E+00 -0.13988730962E+03  0.13988730962E+03  0.00000000000E+00 0.  1.
         23    2    1    2    0    0 -0.99995310289E+02  0.26294177119E+03  0.24580258368E+03  0.38383951608E+03  0.88184050968E+02 0.  0.
    5000000    2    1    2    0    0  0.99995310289E+02 -0.26294177119E+03  0.14761198469E+04  0.16178575337E+04  0.59949625514E+03 0.  0.
         23    2    4    4    0    0 -0.17093165720E+03 -0.25421124480E+03  0.44524135796E+03  0.54808219918E+03  0.91176980685E+02 0.  0.
         23    2    4    4    0    0  0.27092696749E+03 -0.87305263965E+01  0.10308784890E+04  0.10697753346E+04  0.90725760629E+02 0.  0.
          2    1    3    3  502    0 -0.68788942948E+02  0.21142420464E+03  0.23339365339E+03  0.32234253586E+03  0.00000000000E+00 0.  1.
         -2    1    3    3    0  502 -0.31206367341E+02  0.51517566549E+02  0.12408930290E+02  0.61496980224E+02  0.00000000000E+00 0. -1.
         13    1    5    5    0    0 -0.64682258506E+02 -0.17519490141E+03  0.27476578839E+03  0.33222475302E+03  0.00000000000E+00 0. -1.
        -13    1    5    5    0    0 -0.10624939870E+03 -0.79016343384E+02  0.17047556957E+03  0.21585744616E+03  0.00000000000E+00 0.  1.
          3    1    6    6  503    0  0.38770598624E+02 -0.30041606900E+01  0.30963305626E+03  0.31206539992E+03  0.00000000000E+00 0. -1.
         -3    1    6    6    0  503  0.23215636887E+03 -0.57263657064E+01  0.72124543270E+03  0.75770993464E+03  0.00000000000E+00 0.  1.
<mgrwt>
<rscale>  0 0.43642177E+03</rscale>
<asrwt>0</asrwt>
<pdfrwt beam="1">  1        2 0.28643225E+00 0.43642177E+03</pdfrwt>
<pdfrwt beam="2">  1       -2 0.21521126E-01 0.43642177E+03</pdfrwt>
<totfact> 0.15855489E+02</totfact>
</mgrwt>
</event>
<event>
12    1  0.1335216E-007  0.7691884E+03  0.7818608E-02  0.9605719E-01
          2   -1    0    0  501    0  0.00000000000E+00  0.00000000000E+00  0.14741335305E+04  0.14741335305E+04  0.00000000000E+00 0. -1.
         -2   -1    0    0    0  501 -0.00000000000E+00 -0.00000000000E+00 -0.58728211637E+03  0.58728211637E+03  0.00000000000E+00 0.  1.
         23    2    1    2    0    0 -0.61830331333E+03  0.22838693303E+03  0.95905114094E+03  0.11672084986E+04  0.90205376390E+02 0.  0.
    5000000    2    1    2    0    0  0.61830331333E+03 -0.22838693303E+03 -0.72199726792E+02  0.89420714823E+03  0.59994503494E+03 0.  0.
         23    2    4    4    0    0  0.41930770266E+03  0.14464907886E+03  0.12537176980E+02  0.45362364859E+03  0.94206837512E+02 0.  0.
         23    2    4    4    0    0  0.19899561067E+03 -0.37303601188E+03 -0.84736903772E+02  0.44058349964E+03  0.90434274834E+02 0.  0.
          1    1    3    3  502    0 -0.36632156043E+03  0.17281988820E+03  0.53885801709E+03  0.67411138692E+03  0.00000000000E+00 0. -1.
         -1    1    3    3    0  502 -0.25198175290E+03  0.55567044826E+02  0.42019312385E+03  0.49309711173E+03  0.00000000000E+00 0.  1.
         13    1    5    5    0    0  0.27540888946E+03  0.11195035148E+03 -0.33176194254E+02  0.29913809094E+03  0.00000000000E+00 0.  1.
        -13    1    5    5    0    0  0.14389881320E+03  0.32698727378E+02  0.45713371234E+02  0.15448555765E+03  0.00000000000E+00 0. -1.
          1    1    6    6  503    0  0.18734335820E+03 -0.28135080687E+03 -0.49270674416E+02  0.34158953401E+03  0.00000000000E+00 0. -1.
         -1    1    6    6    0  503  0.11652252470E+02 -0.91685205010E+02 -0.35466229356E+02  0.98993965625E+02  0.00000000000E+00 0.  1.
<mgrwt>
<rscale>  0 0.76918843E+03</rscale>
<asrwt>0</asrwt>
<pdfrwt beam="1">  1        2 0.22678977E+00 0.76918843E+03</pdfrwt>
<pdfrwt beam="2">  1       -2 0.90351095E-01 0.76918843E+03</pdfrwt>
<totfact> 0.14045148E+01</totfact>
</mgrwt>
</event>
<event>
12    1  0.1335216E-007  0.1067761E+04  0.7818608E-02  0.9237197E-01
         -2   -1    0    0    0  501 -0.00000000000E+00  0.00000000000E+00  0.36372314676E+03  0.36372314676E+03  0.00000000000E+00 0.  1.
          2   -1    0    0  501    0  0.00000000000E+00 -0.00000000000E+00 -0.32126786798E+04  0.32126786798E+04  0.00000000000E+00 0. -1.
         23    2    1    2    0    0 -0.92235707944E+03  0.37378383630E+03 -0.12856925537E+04  0.16285042178E+04  0.92540296334E+02 0.  0.
    5000000    2    1    2    0    0  0.92235707944E+03 -0.37378383630E+03 -0.15632629794E+04  0.19478976088E+04  0.60004750928E+03 0.  0.
         23    2    4    4    0    0  0.55577086769E+03  0.61683535189E+02 -0.60118462709E+03  0.82606625296E+03  0.90974625844E+02 0.  0.
         23    2    4    4    0    0  0.36658621175E+03 -0.43546737149E+03 -0.96207835232E+03  0.11218313559E+04  0.94305634603E+02 0.  0.
          2    1    3    3  502    0 -0.22607240502E+03  0.11182359155E+03 -0.26956979123E+03  0.36916272873E+03  0.00000000000E+00 0. -1.
         -2    1    3    3    0  502 -0.69628467442E+03  0.26196024476E+03 -0.10161227624E+04  0.12593414890E+04  0.00000000000E+00 0.  1.
         11    1    5    5    0    0  0.26771737380E+03  0.62392883881E+02 -0.34006068768E+03  0.43727192398E+03  0.00000000000E+00 0.  1.
        -11    1    5    5    0    0  0.28805349389E+03 -0.70934869198E+00 -0.26112393941E+03  0.38879432898E+03  0.00000000000E+00 0. -1.
          1    1    6    6  503    0  0.26075608983E+03 -0.36764455283E+03 -0.73138539703E+03  0.85911632193E+03  0.00000000000E+00 0. -1.
         -1    1    6    6    0  503  0.10583012192E+03 -0.67822818659E+02 -0.23069295529E+03  0.26271503394E+03  0.00000000000E+00 0.  1.
<mgrwt>
<rscale>  0 0.10677608E+04</rscale>
<asrwt>0</asrwt>
<pdfrwt beam="1">  1        2 0.49425828E+00 0.10677608E+04</pdfrwt>
<pdfrwt beam="2">  1       -2 0.55957405E-01 0.10677608E+04</pdfrwt>
<totfact> 0.38859506E+00</totfact>
</mgrwt>
</event>
<event>
12    1  0.1335216E-007  0.1389426E+04  0.7818608E-02  0.8961508E-01
         -1   -1    0    0    0  501 -0.00000000000E+00  0.00000000000E+00  0.19385375515E+04  0.19385375515E+04  0.00000000000E+00 0.  1.
          1   -1    0    0  501    0  0.00000000000E+00 -0.00000000000E+00 -0.16288956174E+04  0.16288956174E+04  0.00000000000E+00 0. -1.
         23    2    1    2    0    0  0.84967902416E+02 -0.13613753213E+04 -0.90961450459E+03  0.16420223880E+04  0.90976183847E+02 0.  0.
    5000000    2    1    2    0    0 -0.84967902416E+02  0.13613753213E+04  0.12192564387E+04  0.19254107809E+04  0.60004841629E+03 0.  0.
         23    2    4    4    0    0  0.68555176942E+02  0.11256284507E+04  0.70947035622E+03  0.13355785084E+04  0.93180172529E+02 0.  0.
         23    2    4    4    0    0 -0.15352307936E+03  0.23574687062E+03  0.50978608248E+03  0.58983227244E+03  0.94203698557E+02 0.  0.
          3    1    3    3  502    0  0.45746956923E+01 -0.20484678459E+03 -0.10008531508E+03  0.22803553077E+03  0.00000000000E+00 0. -1.
         -3    1    3    3    0  502  0.80393206723E+02 -0.11565285367E+04 -0.80952918951E+03  0.14139868573E+04  0.00000000000E+00 0.  1.
         11    1    5    5    0    0  0.68699243991E+02  0.68164691557E+03  0.38702387770E+03  0.78686058838E+03  0.00000000000E+00 0.  1.
        -11    1    5    5    0    0 -0.14406704889E+00  0.44398153510E+03  0.32244647852E+03  0.54871792004E+03  0.00000000000E+00 0. -1.
          3    1    6    6  503    0 -0.14550953611E+02  0.58706436491E+02  0.18536857861E+03  0.19498637355E+03  0.00000000000E+00 0. -1.
         -3    1    6    6    0  503 -0.13897212575E+03  0.17704043412E+03  0.32441750387E+03  0.39484589889E+03  0.00000000000E+00 0.  1.
<mgrwt>
<rscale>  0 0.13894259E+04</rscale>
<asrwt>0</asrwt>
<pdfrwt beam="1">  1        1 0.25059933E+00 0.13894259E+04</pdfrwt>
<pdfrwt beam="2">  1       -1 0.29823655E+00 0.13894259E+04</pdfrwt>
<totfact> 0.17317804E-01</totfact>
</mgrwt>
</event>
<event>
12    1  0.1335216E-007  0.8824499E+03  0.7818608E-02  0.9447790E-01
         -1   -1    0    0    0  501 -0.00000000000E+00  0.00000000000E+00  0.39965341969E+03  0.39965341969E+03  0.00000000000E+00 0.  1.
          1   -1    0    0  501    0  0.00000000000E+00 -0.00000000000E+00 -0.23346680864E+04  0.23346680864E+04  0.00000000000E+00 0. -1.
         23    2    1    2    0    0 -0.47427640493E+03 -0.70346491627E+03 -0.60353952732E+03  0.10453354398E+04  0.93087184435E+02 0.  0.
    5000000    2    1    2    0    0  0.47427640493E+03  0.70346491627E+03 -0.13314751394E+04  0.16889860663E+04  0.60003907267E+03 0.  0.
         23    2    4    4    0    0  0.35553317979E+02  0.31070186418E+03 -0.88890745500E+03  0.94671096103E+03  0.91134479555E+02 0.  0.
         23    2    4    4    0    0  0.43872308695E+03  0.39276305209E+03 -0.44256768441E+03  0.74227510531E+03  0.91462640265E+02 0.  0.
          4    1    3    3  502    0 -0.46873417869E+03 -0.67354663354E+03 -0.59538510711E+03  0.10138344163E+04  0.00000000000E+00 0. -1.
         -4    1    3    3    0  502 -0.55422262405E+01 -0.29918282730E+02 -0.81544202093E+01  0.31501023510E+02  0.00000000000E+00 0.  1.
         13    1    5    5    0    0 -0.22032979965E+02  0.10952566185E+03 -0.39026052807E+03  0.40593669775E+03  0.00000000000E+00 0. -1.
        -13    1    5    5    0    0  0.57586297944E+02  0.20117620233E+03 -0.49864692692E+03  0.54077426328E+03  0.00000000000E+00 0.  1.
          3    1    6    6  503    0  0.30885038004E+03  0.23226602518E+03 -0.32327496417E+03  0.50382811172E+03  0.00000000000E+00 0. -1.
         -3    1    6    6    0  503  0.12987270691E+03  0.16049702691E+03 -0.11929272024E+03  0.23844699358E+03  0.00000000000E+00 0.  1.
<mgrwt>
<rscale>  0 0.88244994E+03</rscale>
<asrwt>0</asrwt>
<pdfrwt beam="1">  1        1 0.35917972E+00 0.88244994E+03</pdfrwt>
<pdfrwt beam="2">  1       -1 0.61485140E-01 0.88244994E+03</pdfrwt>
<totfact> 0.48833686E+00</totfact>
</mgrwt>
</event>
<event>
12    1  0.1335216E-007  0.1186259E+04  0.7818608E-02  0.9124970E-01
         -1   -1    0    0    0  501 -0.00000000000E+00  0.00000000000E+00  0.11747577694E+04  0.11747577694E+04  0.00000000000E+00 0.  1.
          1   -1    0    0  501    0  0.00000000000E+00 -0.00000000000E+00 -0.19047111645E+04  0.19047111645E+04  0.00000000000E+00 0. -1.
         23    2    1    2    0    0 -0.10791507505E+04 -0.39111130669E+03 -0.12349272582E+04  0.16893747620E+04  0.10680522903E+03 0.  0.
    5000000    2    1    2    0    0  0.10791507505E+04  0.39111130669E+03  0.50497386307E+03  0.13900941718E+04  0.59985732271E+03 0.  0.
         23    2    4    4    0    0  0.67487019229E+03  0.28192901671E+02  0.64700806406E+02  0.68483025631E+03  0.92529289770E+02 0.  0.
         23    2    4    4    0    0  0.40428055825E+03  0.36291840501E+03  0.44027305666E+03  0.70526391554E+03  0.91674901984E+02 0.  0.
          1    1    3    3  502    0 -0.34311023879E+03 -0.14479162112E+03 -0.46966703440E+03  0.59939667393E+03  0.00000000000E+00 0. -1.
         -1    1    3    3    0  502 -0.73604051174E+03 -0.24631968556E+03 -0.76526022382E+03  0.10899780881E+04  0.00000000000E+00 0.  1.
         13    1    5    5    0    0  0.41201097849E+03  0.55782757297E+02  0.63038647007E+02  0.42052185843E+03  0.00000000000E+00 0. -1.
        -13    1    5    5    0    0  0.26285921380E+03 -0.27589855625E+02  0.16621593996E+01  0.26430839787E+03  0.00000000000E+00 0.  1.
          2    1    6    6  503    0  0.36964410166E+03  0.32166136372E+03  0.35769921188E+03  0.60667249895E+03  0.00000000000E+00 0. -1.
         -2    1    6    6    0  503  0.34636456587E+02  0.41257041294E+02  0.82573844787E+02  0.98591416585E+02  0.00000000000E+00 0.  1.
<mgrwt>
<rscale>  0 0.11862589E+04</rscale>
<asrwt>0</asrwt>
<pdfrwt beam="1">  1        1 0.29303249E+00 0.11862589E+04</pdfrwt>
<pdfrwt beam="2">  1       -1 0.18073196E+00 0.11862589E+04</pdfrwt>
<totfact> 0.69912499E-01</totfact>
</mgrwt>
</event>
<event>
12    1  0.1335216E-007  0.1271044E+04  0.7818608E-02  0.9052848E-01
          2   -1    0    0  501    0  0.00000000000E+00  0.00000000000E+00  0.24547728822E+04  0.24547728822E+04  0.00000000000E+00 0. -1.
         -2   -1    0    0    0  501 -0.00000000000E+00 -0.00000000000E+00 -0.73025088751E+03  0.73025088751E+03  0.00000000000E+00 0.  1.
         23    2    1    2    0    0  0.11871607261E+04 -0.39659805447E+03  0.10758165437E+04  0.16528978080E+04  0.89718011185E+02 0.  0.
    5000000    2    1    2    0    0 -0.11871607261E+04  0.39659805447E+03  0.64870545091E+03  0.15321259617E+04  0.59995882681E+03 0.  0.
         23    2    4    4    0    0 -0.93976587550E+03  0.20203370349E+03  0.21795169855E+03  0.99106256238E+03  0.10355936243E+03 0.  0.
         23    2    4    4    0    0 -0.24739485062E+03  0.19456435098E+03  0.43075375236E+03  0.54106339927E+03  0.90229197447E+02 0.  0.
          3    1    3    3  502    0  0.24622104015E+03 -0.11930031724E+03  0.21944447606E+03  0.35073243988E+03  0.00000000000E+00 0. -1.
         -3    1    3    3    0  502  0.94093968597E+03 -0.27729773723E+03  0.85637206768E+03  0.13021653681E+04  0.00000000000E+00 0.  1.
         11    1    5    5    0    0 -0.25119021650E+03  0.95621020468E+02  0.83615022099E+02  0.28148068556E+03  0.00000000000E+00 0.  1.
        -11    1    5    5    0    0 -0.68857565900E+03  0.10641268303E+03  0.13433667645E+03  0.70958187682E+03  0.00000000000E+00 0. -1.
          4    1    6    6  503    0  0.39736241127E+01  0.81417070699E+01  0.36987798409E+02  0.38081154312E+02  0.00000000000E+00 0. -1.
         -4    1    6    6    0  503 -0.25136847473E+03  0.18642264391E+03  0.39376595395E+03  0.50298224496E+03  0.00000000000E+00 0.  1.
<mgrwt>
<rscale>  0 0.12710435E+04</rscale>
<asrwt>0</asrwt>
<pdfrwt beam="1">  1        2 0.37765736E+00 0.12710435E+04</pdfrwt>
<pdfrwt beam="2">  1       -2 0.11234629E+00 0.12710435E+04</pdfrwt>
<totfact> 0.22460747E+00</totfact>
</mgrwt>
</event>
<event>
12    1  0.1344042E-007  0.9742197E+03  0.7818608E-02  0.9337281E-01
          1   -1    0    0  501    0  0.00000000000E+00  0.00000000000E+00  0.16991920423E+04  0.16991920423E+04  0.00000000000E+00 0. -1.
         -1   -1    0    0    0  501 -0.00000000000E+00 -0.00000000000E+00 -0.10709392341E+04  0.10709392341E+04  0.00000000000E+00 0.  1.
         23    2    1    2    0    0 -0.25367412654E+03 -0.89678403077E+03  0.12006095864E+04  0.15225991765E+04  0.90954455322E+02 0.  0.
    5000000    2    1    2    0    0  0.25367412654E+03  0.89678403077E+03 -0.57235677821E+03  0.12475320999E+04  0.60014323157E+03 0.  0.
         23    2    4    4    0    0  0.33157878797E+03  0.80538369695E+03 -0.63947377916E+03  0.10846265324E+04  0.94343036978E+02 0.  0.
         23    2    4    4    0    0 -0.77904661432E+02  0.91400333826E+02  0.67117000949E+02  0.16290556749E+03  0.87237462182E+02 0.  0.
          4    1    3    3  502    0 -0.87294978318E+02 -0.31392926678E+03  0.35094532933E+03  0.47888894533E+03  0.00000000000E+00 0. -1.
         -4    1    3    3    0  502 -0.16637914822E+03 -0.58285476399E+03  0.84966425703E+03  0.10437102311E+04  0.00000000000E+00 0.  1.
         11    1    5    5    0    0  0.25768898343E+03  0.61108296547E+03 -0.43556663176E+03  0.79343827332E+03  0.00000000000E+00 0.  1.
        -11    1    5    5    0    0  0.73889804537E+02  0.19430073147E+03 -0.20390714740E+03  0.29118825908E+03  0.00000000000E+00 0. -1.
          2    1    6    6  503    0 -0.86151824825E+02  0.42985687429E+02  0.28441762403E+02  0.10039342654E+03  0.00000000000E+00 0. -1.
         -2    1    6    6    0  503  0.82471633928E+01  0.48414646397E+02  0.38675238546E+02  0.62512140951E+02  0.00000000000E+00 0.  1.
<mgrwt>
<rscale>  0 0.97421973E+03</rscale>
<asrwt>0</asrwt>
<pdfrwt beam="1">  1        1 0.26141416E+00 0.97421973E+03</pdfrwt>
<pdfrwt beam="2">  1       -1 0.16475988E+00 0.97421973E+03</pdfrwt>
<totfact> 0.12991835E+00</totfact>
</mgrwt>
</event>
<event>
12    1  0.1335216E-007  0.1096675E+04  0.7818608E-02  0.9208439E-01
         -2   -1    0    0    0  501 -0.00000000000E+00  0.00000000000E+00  0.83224268791E+03  0.83224268791E+03  0.00000000000E+00 0.  1.
          2   -1    0    0  501    0  0.00000000000E+00 -0.00000000000E+00 -0.19002386286E+04  0.19002386286E+04  0.00000000000E+00 0. -1.
         23    2    1    2    0    0 -0.10898399222E+04 -0.97286697098E+02 -0.99614626435E+03  0.14825095723E+04  0.91167398316E+02 0.  0.
    5000000    2    1    2    0    0  0.10898399222E+04  0.97286697098E+02 -0.71849676307E+02  0.12499717442E+04  0.60004268849E+03 0.  0.
         23    2    4    4    0    0  0.87832382428E+03  0.10841748571E+03 -0.28683294858E+03  0.93475417285E+03  0.91022699155E+02 0.  0.
         23    2    4    4    0    0  0.21151609787E+03 -0.11130788611E+02  0.21498327228E+03  0.31521757137E+03  0.91001955068E+02 0.  0.
          1    1    3    3  502    0 -0.51292981133E+03 -0.23106143406E+02 -0.52053206828E+03  0.73115287001E+03  0.00000000000E+00 0. -1.
         -1    1    3    3    0  502 -0.57691011082E+03 -0.74180553692E+02 -0.47561419607E+03  0.75135670225E+03  0.00000000000E+00 0.  1.
         11    1    5    5    0    0  0.38304632505E+03  0.47350560428E+02 -0.17271587235E+03  0.42284433929E+03  0.00000000000E+00 0.  1.
        -11    1    5    5    0    0  0.49527749923E+03  0.61066925281E+02 -0.11411707623E+03  0.51190983356E+03  0.00000000000E+00 0. -1.
          3    1    6    6  503    0  0.15593934288E+03  0.27583281832E+01  0.95945020991E+02  0.18311235372E+03  0.00000000000E+00 0. -1.
         -3    1    6    6    0  503  0.55576754994E+02 -0.13889116795E+02  0.11903825128E+03  0.13210521765E+03  0.00000000000E+00 0.  1.
<mgrwt>
<rscale>  0 0.10966747E+04</rscale>
<asrwt>0</asrwt>
<pdfrwt beam="1">  1        2 0.29234440E+00 0.10966747E+04</pdfrwt>
<pdfrwt beam="2">  1       -2 0.12803734E+00 0.10966747E+04</pdfrwt>
<totfact> 0.33777942E+00</totfact>
</mgrwt>
</event>
<event>
12    1  0.1335216E-007  0.8545603E+03  0.7818608E-02  0.9484237E-01
          2   -1    0    0  501    0  0.00000000000E+00  0.00000000000E+00  0.27558442630E+04  0.27558442630E+04  0.00000000000E+00 0. -1.
         -2   -1    0    0    0  501 -0.00000000000E+00 -0.00000000000E+00 -0.44120776662E+03  0.44120776662E+03  0.00000000000E+00 0.  1.
         23    2    1    2    0    0 -0.24753430571E+03 -0.71548443691E+03  0.83715007757E+02  0.76594949783E+03  0.80493594379E+02 0.  0.
    5000000    2    1    2    0    0  0.24753430571E+03  0.71548443691E+03  0.22309214886E+04  0.24311025318E+04  0.60004801455E+03 0.  0.
         23    2    4    4    0    0  0.42072098760E+03  0.41700309631E+03  0.15583148230E+04  0.16696116403E+04  0.91434184217E+02 0.  0.
         23    2    4    4    0    0 -0.17318668189E+03  0.29848134060E+03  0.67260666557E+03  0.76149089147E+03  0.91563714173E+02 0.  0.
          4    1    3    3  502    0 -0.97787693986E+02 -0.29757329319E+03  0.74296587934E+02  0.32191968081E+03  0.00000000000E+00 0. -1.
         -4    1    3    3    0  502 -0.14974661172E+03 -0.41791114372E+03  0.94184198229E+01  0.44402981702E+03  0.00000000000E+00 0.  1.
         13    1    5    5    0    0  0.25112673893E+03  0.21023383212E+03  0.95767522550E+03  0.10121288163E+04  0.00000000000E+00 0. -1.
        -13    1    5    5    0    0  0.16959424867E+03  0.20676926419E+03  0.60063959754E+03  0.65748282406E+03  0.00000000000E+00 0.  1.
          4    1    6    6  503    0 -0.72403447255E+02  0.21268349879E+03  0.42296371121E+03  0.47893092491E+03  0.00000000000E+00 0.  1.
         -4    1    6    6    0  503 -0.10078323464E+03  0.85797841809E+02  0.24964295436E+03  0.28255996656E+03  0.00000000000E+00 0. -1.
<mgrwt>
<rscale>  0 0.85456029E+03</rscale>
<asrwt>0</asrwt>
<pdfrwt beam="1">  1        2 0.42397603E+00 0.85456029E+03</pdfrwt>
<pdfrwt beam="2">  1       -2 0.67878120E-01 0.85456029E+03</pdfrwt>
<totfact> 0.50770817E+00</totfact>
</mgrwt>
</event>
<event>
12    1  0.1335216E-007  0.7598960E+03  0.7818608E-02  0.9619952E-01
         -1   -1    0    0    0  501 -0.00000000000E+00  0.00000000000E+00  0.55860111847E+03  0.55860111847E+03  0.00000000000E+00 0.  1.
          1   -1    0    0  501    0  0.00000000000E+00 -0.00000000000E+00 -0.10816520762E+04  0.10816520762E+04  0.00000000000E+00 0. -1.
         23    2    1    2    0    0  0.13466681105E+03  0.63912676490E+03 -0.14056358980E+03  0.67437912799E+03  0.91711034669E+02 0.  0.
    5000000    2    1    2    0    0 -0.13466681105E+03 -0.63912676490E+03 -0.38248736789E+03  0.96587406664E+03  0.59999829533E+03 0.  0.
         23    2    4    4    0    0  0.20051954118E+03 -0.12169906867E+03 -0.39188628017E+02  0.25486183445E+03  0.91651821505E+02 0.  0.
         23    2    4    4    0    0 -0.33518635223E+03 -0.51742769623E+03 -0.34329873987E+03  0.71101223218E+03  0.87195515789E+02 0.  0.
          3    1    3    3  502    0  0.57901164025E+02  0.10547562846E+03 -0.30195809459E+02  0.12405418132E+03  0.00000000000E+00 0. -1.
         -3    1    3    3    0  502  0.76765647026E+02  0.53365113644E+03 -0.11036778034E+03  0.55032494667E+03  0.00000000000E+00 0.  1.
         11    1    5    5    0    0  0.97284682975E+02 -0.94545236953E+02  0.12550938337E+02  0.13623743034E+03  0.00000000000E+00 0. -1.
        -11    1    5    5    0    0  0.10323485820E+03 -0.27153831719E+02 -0.51739566353E+02  0.11862440411E+03  0.00000000000E+00 0.  1.
          2    1    6    6  503    0 -0.16213521362E+03 -0.28859835280E+03 -0.14012888962E+03  0.35946201808E+03  0.00000000000E+00 0.  1.
         -2    1    6    6    0  503 -0.17305113861E+03 -0.22882934343E+03 -0.20316985025E+03  0.35155021410E+03  0.00000000000E+00 0. -1.
<mgrwt>
<rscale>  0 0.75989602E+03</rscale>
<asrwt>0</asrwt>
<pdfrwt beam="1">  1        1 0.16640801E+00 0.75989602E+03</pdfrwt>
<pdfrwt beam="2">  1       -1 0.85938633E-01 0.75989602E+03</pdfrwt>
<totfact> 0.18009487E+01</totfact>
</mgrwt>
</event>
<event>
12    1  0.1335216E-007  0.4915507E+03  0.7818608E-02  0.1016008E+00
          2   -1    0    0  501    0  0.00000000000E+00  0.00000000000E+00  0.27457394379E+04  0.27457394379E+04  0.00000000000E+00 0. -1.
         -2   -1    0    0    0  501 -0.00000000000E+00 -0.00000000000E+00 -0.11574943050E+03  0.11574943050E+03  0.00000000000E+00 0.  1.
         23    2    1    2    0    0  0.15384460616E+02  0.31718771499E+03  0.15589184899E+04  0.15935581562E+04  0.91411218115E+02 0.  0.
    5000000    2    1    2    0    0 -0.15384460616E+02 -0.31718771499E+03  0.10710715175E+04  0.12679307122E+04  0.59967438435E+03 0.  0.
         23    2    4    4    0    0  0.23456774907E+03  0.12713643706E+02  0.34960432783E+03  0.43134714010E+03  0.93024209692E+02 0.  0.
         23    2    4    4    0    0 -0.24995220968E+03 -0.32990135869E+03  0.72146718969E+03  0.83658357215E+03  0.89700355653E+02 0.  0.
          1    1    3    3  502    0  0.67549262121E+01  0.10706827041E+03  0.33665438213E+03  0.35333470897E+03  0.00000000000E+00 0. -1.
         -1    1    3    3    0  502  0.86295344040E+01  0.21011944458E+03  0.12222641078E+04  0.12402234472E+04  0.00000000000E+00 0.  1.
         11    1    5    5    0    0  0.88763777825E+02  0.34113228696E+02  0.80745416607E+02  0.12474992156E+03  0.00000000000E+00 0. -1.
        -11    1    5    5    0    0  0.14580397124E+03 -0.21399584990E+02  0.26885891123E+03  0.30659721854E+03  0.00000000000E+00 0.  1.
          1    1    6    6  503    0 -0.22973506387E+03 -0.24529898023E+03  0.55724756544E+03  0.65074929002E+03  0.00000000000E+00 0. -1.
         -1    1    6    6    0  503 -0.20217145809E+02 -0.84602378469E+02  0.16421962425E+03  0.18583428213E+03  0.00000000000E+00 0.  1.
<mgrwt>
<rscale>  0 0.49155072E+03</rscale>
<asrwt>0</asrwt>
<pdfrwt beam="1">  1        2 0.42242140E+00 0.49155072E+03</pdfrwt>
<pdfrwt beam="2">  1       -2 0.17807607E-01 0.49155072E+03</pdfrwt>
<totfact> 0.71090889E+01</totfact>
</mgrwt>
</event>
<event>
12    1  0.1335216E-007  0.1144671E+04  0.7818608E-02  0.9162714E-01
         -1   -1    0    0    0  501 -0.00000000000E+00  0.00000000000E+00  0.49014434210E+03  0.49014434210E+03  0.00000000000E+00 0.  1.
          1   -1    0    0  501    0  0.00000000000E+00 -0.00000000000E+00 -0.28681924056E+04  0.28681924056E+04  0.00000000000E+00 0. -1.
         23    2    1    2    0    0 -0.82462298518E+03  0.72669817273E+03 -0.91739022953E+03  0.14343677438E+04  0.87821917886E+02 0.  0.
    5000000    2    1    2    0    0  0.82462298518E+03 -0.72669817273E+03 -0.14606578340E+04  0.19239690039E+04  0.60003509744E+03 0.  0.
         23    2    4    4    0    0  0.42030720115E+03 -0.63502870793E+03 -0.63625558132E+03  0.99634025037E+03  0.89180303474E+02 0.  0.
         23    2    4    4    0    0  0.40431578403E+03 -0.91669464799E+02 -0.82440225265E+03  0.92762875354E+03  0.94770703411E+02 0.  0.
          3    1    3    3  502    0 -0.20409601177E+03  0.18848170422E+03 -0.28223171193E+03  0.39602433519E+03  0.00000000000E+00 0. -1.
         -3    1    3    3    0  502 -0.62052697340E+03  0.53821646851E+03 -0.63515851760E+03  0.10383434086E+04  0.00000000000E+00 0.  1.
         13    1    5    5    0    0  0.99230570701E+02 -0.99822292371E+02 -0.91218253044E+02  0.16772586534E+03  0.00000000000E+00 0. -1.
        -13    1    5    5    0    0  0.32107663045E+03 -0.53520641556E+03 -0.54503732827E+03  0.82861438503E+03  0.00000000000E+00 0.  1.
          2    1    6    6  503    0  0.28229478308E+03 -0.18389741657E+02 -0.54210661113E+03  0.61148025723E+03  0.00000000000E+00 0. -1.
         -2    1    6    6    0  503  0.12202100095E+03 -0.73279723142E+02 -0.28229564152E+03  0.31614849631E+03  0.00000000000E+00 0.  1.
<mgrwt>
<rscale>  0 0.11446709E+04</rscale>
<asrwt>0</asrwt>
<pdfrwt beam="1">  1        1 0.44126037E+00 0.11446709E+04</pdfrwt>
<pdfrwt beam="2">  1       -1 0.75406822E-01 0.11446709E+04</pdfrwt>
<totfact> 0.13218200E+00</totfact>
</mgrwt>
</event>
<event>
12    1  0.1335216E-007  0.4379542E+03  0.7818608E-02  0.1031376E+00
         -2   -1    0    0    0  501 -0.00000000000E+00  0.00000000000E+00  0.19304005399E+03  0.19304005399E+03  0.00000000000E+00 0.  1.
          2   -1    0    0  501    0  0.00000000000E+00 -0.00000000000E+00 -0.13136800930E+04  0.13136800930E+04  0.00000000000E+00 0. -1.
         23    2    1    2    0    0 -0.14394314019E+03 -0.26928152819E+03 -0.48677633604E+03  0.58193786582E+03  0.92023417228E+02 0.  0.
    5000000    2    1    2    0    0  0.14394314019E+03  0.26928152819E+03 -0.63386370296E+03  0.92478228116E+03  0.60017239572E+03 0.  0.
         23    2    4    4    0    0 -0.14814315573E+03  0.22352906328E+03 -0.86783220689E+02  0.29577103192E+03  0.89652324065E+02 0.  0.
         23    2    4    4    0    0  0.29208629592E+03  0.45752464910E+02 -0.54708048228E+03  0.62901124924E+03  0.94606581592E+02 0.  0.
          3    1    3    3  502    0 -0.82384250758E+02 -0.18891939311E+03 -0.24716450122E+03  0.32181981376E+03  0.00000000000E+00 0. -1.
         -3    1    3    3    0  502 -0.61558889429E+02 -0.80362135076E+02 -0.23961183482E+03  0.26011805206E+03  0.00000000000E+00 0.  1.
         13    1    5    5    0    0 -0.29401289707E+02  0.75174755151E+02 -0.66658887315E+02  0.10468565760E+03  0.00000000000E+00 0. -1.
        -13    1    5    5    0    0 -0.11874186602E+03  0.14835430812E+03 -0.20124333374E+02  0.19108537432E+03  0.00000000000E+00 0.  1.
          1    1    6    6  503    0  0.21393705462E+03  0.49523508281E+02 -0.31414384794E+03  0.38328579208E+03  0.00000000000E+00 0. -1.
         -1    1    6    6    0  503  0.78149241300E+02 -0.37710433703E+01 -0.23293663433E+03  0.24572545716E+03  0.00000000000E+00 0.  1.
<mgrwt>
<rscale>  0 0.43795419E+03</rscale>
<asrwt>0</asrwt>
<pdfrwt beam="1">  1        2 0.20210463E+00 0.43795419E+03</pdfrwt>
<pdfrwt beam="2">  1       -2 0.29698470E-01 0.43795419E+03</pdfrwt>
<totfact> 0.17687415E+02</totfact>
</mgrwt>
</event>
<event>
12    1  0.1335216E-007  0.7591203E+03  0.7818608E-02  0.9621150E-01
          2   -1    0    0  501    0  0.00000000000E+00  0.00000000000E+00  0.90765807680E+03  0.90765807680E+03  0.00000000000E+00 0. -1.
         -2   -1    0    0    0  501 -0.00000000000E+00 -0.00000000000E+00 -0.17504704833E+04  0.17504704833E+04  0.00000000000E+00 0.  1.
         23    2    1    2    0    0 -0.68861049770E+03 -0.92930273505E+02 -0.14128538238E+04  0.15772778850E+04  0.93963534396E+02 0.  0.
    5000000    2    1    2    0    0  0.68861049770E+03  0.92930273505E+02  0.57004141722E+03  0.10808506752E+04  0.60039196482E+03 0.  0.
         23    2    4    4    0    0  0.37416424934E+03  0.26300102689E+03  0.89386599434E+02  0.47495325145E+03  0.91772551876E+02 0.  0.
         23    2    4    4    0    0  0.31444624836E+03 -0.17007075339E+03  0.48065481778E+03  0.60589742373E+03  0.91006208363E+02 0.  0.
          4    1    3    3  502    0 -0.48424959005E+03 -0.79843444112E+02 -0.90136874586E+03  0.10263226866E+04  0.00000000000E+00 0. -1.
         -4    1    3    3    0  502 -0.20436090766E+03 -0.13086829394E+02 -0.51148507790E+03  0.55095519836E+03  0.00000000000E+00 0.  1.
         13    1    5    5    0    0  0.20027652713E+03  0.94899651202E+02  0.15965247492E+02  0.22219703023E+03  0.00000000000E+00 0. -1.
        -13    1    5    5    0    0  0.17388772221E+03  0.16810137569E+03  0.73421351943E+02  0.25275622122E+03  0.00000000000E+00 0.  1.
          2    1    6    6  503    0  0.78185299944E+02 -0.25638317609E+02  0.58234111059E+02  0.10080414747E+03  0.00000000000E+00 0. -1.
         -2    1    6    6    0  503  0.23626094842E+03 -0.14443243578E+03  0.42242070672E+03  0.50509327626E+03  0.00000000000E+00 0.  1.
<mgrwt>
<rscale>  0 0.75912026E+03</rscale>
<asrwt>0</asrwt>
<pdfrwt beam="1">  1        2 0.13963971E+00 0.75912026E+03</pdfrwt>
<pdfrwt beam="2">  1       -2 0.26930315E+00 0.75912026E+03</pdfrwt>
<totfact> 0.14689666E+00</totfact>
</mgrwt>
</event>
<event>
12    1  0.1335216E-007  0.7623846E+03  0.7818608E-02  0.9616119E-01
         -1   -1    0    0    0  501 -0.00000000000E+00  0.00000000000E+00  0.33017105883E+03  0.33017105883E+03  0.00000000000E+00 0.  1.
          1   -1    0    0  501    0  0.00000000000E+00 -0.00000000000E+00 -0.21038252708E+04  0.21038252708E+04  0.00000000000E+00 0. -1.
         23    2    1    2    0    0  0.59394530290E+03 -0.41068626544E+03 -0.75988093825E+03  0.10523278324E+04  0.92415340066E+02 0.  0.
    5000000    2    1    2    0    0 -0.59394530290E+03  0.41068626544E+03 -0.10137732738E+04  0.13816684973E+04  0.59986444661E+03 0.  0.
         23    2    4    4    0    0 -0.44996356615E+03  0.13502558264E+03 -0.93104218170E+03  0.10472462631E+04  0.95844001495E+02 0.  0.
         23    2    4    4    0    0 -0.14398173674E+03  0.27566068280E+03 -0.82731092060E+02  0.33442223418E+03  0.90962874630E+02 0.  0.
          1    1    3    3  502    0  0.47362284470E+03 -0.28869607816E+03 -0.61237690614E+03  0.82623816163E+03  0.00000000000E+00 0. -1.
         -1    1    3    3    0  502  0.12032245820E+03 -0.12199018729E+03 -0.14750403211E+03  0.22608967077E+03  0.00000000000E+00 0.  1.
         13    1    5    5    0    0 -0.30803519193E+03  0.13752230134E+03 -0.64230023725E+03  0.72549821337E+03  0.00000000000E+00 0. -1.
        -13    1    5    5    0    0 -0.14192837422E+03 -0.24967187032E+01 -0.28874194445E+03  0.32174804972E+03  0.00000000000E+00 0.  1.
          1    1    6    6  503    0 -0.32224922336E+02  0.14016475749E+03 -0.65203725915E+02  0.15791178149E+03  0.00000000000E+00 0. -1.
         -1    1    6    6    0  503 -0.11175681441E+03  0.13549592531E+03 -0.17527366145E+02  0.17651045268E+03  0.00000000000E+00 0.  1.
<mgrwt>
<rscale>  0 0.76238460E+03</rscale>
<asrwt>0</asrwt>
<pdfrwt beam="1">  1        1 0.32366543E+00 0.76238460E+03</pdfrwt>
<pdfrwt beam="2">  1       -1 0.50795547E-01 0.76238460E+03</pdfrwt>
<totfact> 0.10312291E+01</totfact>
</mgrwt>
</event>
<event>
12    1  0.1335216E-007  0.1022151E+04  0.7818608E-02  0.9284578E-01
         -1   -1    0    0    0  501 -0.00000000000E+00  0.00000000000E+00  0.71943290429E+03  0.71943290429E+03  0.00000000000E+00 0.  1.
          1   -1    0    0  501    0  0.00000000000E+00 -0.00000000000E+00 -0.20041388028E+04  0.20041388028E+04  0.00000000000E+00 0. -1.
         23    2    1    2    0    0  0.38903387174E+03 -0.93432684618E+03 -0.11572828098E+04  0.15401091603E+04  0.91206989041E+02 0.  0.
    5000000    2    1    2    0    0 -0.38903387174E+03  0.93432684618E+03 -0.12742308870E+03  0.11834625468E+04  0.60002745545E+03 0.  0.
         23    2    4    4    0    0 -0.10125988653E+03  0.21306442020E+03  0.21359635167E+03  0.33073681007E+03  0.90074548627E+02 0.  0.
         23    2    4    4    0    0 -0.28777398520E+03  0.72126242598E+03 -0.34101944036E+03  0.85272573673E+03  0.88394398521E+02 0.  0.
          4    1    3    3  502    0  0.21100573511E+03 -0.41429695354E+03 -0.48755744867E+03  0.67370442459E+03  0.00000000000E+00 0. -1.
         -4    1    3    3    0  502  0.17802813663E+03 -0.52002989264E+03 -0.66972536115E+03  0.86640473569E+03  0.00000000000E+00 0.  1.
         11    1    5    5    0    0 -0.11678660368E+03  0.16882052560E+03  0.18043505044E+03  0.27330621671E+03  0.00000000000E+00 0. -1.
        -11    1    5    5    0    0  0.15526717142E+02  0.44243894602E+02  0.33161301224E+02  0.57430593360E+02  0.00000000000E+00 0.  1.
          3    1    6    6  503    0 -0.20354567774E+03  0.55524566193E+03 -0.22149462290E+03  0.63149699602E+03  0.00000000000E+00 0. -1.
         -3    1    6    6    0  503 -0.84228307465E+02  0.16601676405E+03 -0.11952481747E+03  0.22122874071E+03  0.00000000000E+00 0.  1.
<mgrwt>
<rscale>  0 0.10221515E+04</rscale>
<asrwt>0</asrwt>
<pdfrwt beam="1">  1        1 0.30832904E+00 0.10221515E+04</pdfrwt>
<pdfrwt beam="2">  1       -1 0.11068199E+00 0.10221515E+04</pdfrwt>
<totfact> 0.22444093E+00</totfact>
</mgrwt>
</event>
<event>
12    1  0.1335216E-007  0.6286350E+03  0.7818608E-02  0.9847716E-01
          2   -1    0    0  501    0  0.00000000000E+00  0.00000000000E+00  0.58595931169E+03  0.58595931169E+03  0.00000000000E+00 0. -1.
         -2   -1    0    0    0  501 -0.00000000000E+00 -0.00000000000E+00 -0.81520081499E+03  0.81520081499E+03  0.00000000000E+00 0.  1.
         23    2    1    2    0    0 -0.35869415391E+03  0.34878095287E+03  0.15237654808E+03  0.53189795688E+03  0.96887434620E+02 0.  0.
    5000000    2    1    2    0    0  0.35869415391E+03 -0.34878095287E+03 -0.38161805138E+03  0.86926216981E+03  0.59972888340E+03 0.  0.
         23    2    4    4    0    0  0.49990340743E+03 -0.23261063520E+03 -0.35870565240E+03  0.66406506470E+03  0.91112791237E+02 0.  0.
         23    2    4    4    0    0 -0.14120925351E+03 -0.11617031768E+03 -0.22912398978E+02  0.20519710511E+03  0.90251193514E+02 0.  0.
          1    1    3    3  502    0 -0.17586187849E+03  0.21423319018E+03  0.12214276874E+03  0.30288961031E+03  0.00000000000E+00 0. -1.
         -1    1    3    3    0  502 -0.18283227543E+03  0.13454776269E+03  0.30233779342E+02  0.22900834657E+03  0.00000000000E+00 0.  1.
         11    1    5    5    0    0  0.25194832962E+03 -0.12092642724E+03 -0.12775167003E+03  0.30728106156E+03  0.00000000000E+00 0.  1.
        -11    1    5    5    0    0  0.24795507781E+03 -0.11168420796E+03 -0.23095398238E+03  0.35678400314E+03  0.00000000000E+00 0. -1.
          3    1    6    6  503    0 -0.14215836715E+03 -0.75427644899E+02 -0.59076317703E+01  0.16103798023E+03  0.00000000000E+00 0. -1.
         -3    1    6    6    0  503  0.94911363395E+00 -0.40742672777E+02 -0.17004767207E+02  0.44159124872E+02  0.00000000000E+00 0.  1.
<mgrwt>
<rscale>  0 0.62863496E+03</rscale>
<asrwt>0</asrwt>
<pdfrwt beam="1">  1        2 0.90147587E-01 0.62863496E+03</pdfrwt>
<pdfrwt beam="2">  1       -2 0.12541551E+00 0.62863496E+03</pdfrwt>
<totfact> 0.24861548E+01</totfact>
</mgrwt>
</event>
<event>
12    1  0.1335216E-007  0.1368280E+04  0.7818608E-02  0.8977104E-01
         -2   -1    0    0    0  501 -0.00000000000E+00  0.00000000000E+00  0.13236517651E+04  0.13236517651E+04  0.00000000000E+00 0.  1.
          2   -1    0    0  501    0  0.00000000000E+00 -0.00000000000E+00 -0.17606958868E+04  0.17606958868E+04  0.00000000000E+00 0. -1.
         23    2    1    2    0    0 -0.10211317539E+04  0.89338961511E+03  0.35161551388E+03  0.14042036736E+04  0.85436667039E+02 0.  0.
    5000000    2    1    2    0    0  0.10211317539E+04 -0.89338961511E+03 -0.78865963559E+03  0.16801439783E+04  0.60003725215E+03 0.  0.
         23    2    4    4    0    0  0.64382443242E+03 -0.66714998769E+03 -0.80382853548E+03  0.12304896946E+04  0.91463479584E+02 0.  0.
         23    2    4    4    0    0  0.37730732146E+03 -0.22623962742E+03  0.15168899886E+02  0.44965428379E+03  0.91726198881E+02 0.  0.
          3    1    3    3  502    0 -0.54277067785E+03  0.45711250117E+03  0.14197472324E+03  0.72367718597E+03  0.00000000000E+00 0. -1.
         -3    1    3    3    0  502 -0.47836107603E+03  0.43627711394E+03  0.20964079064E+03  0.68052648759E+03  0.00000000000E+00 0.  1.
         13    1    5    5    0    0  0.17083475431E+03 -0.12458286058E+03 -0.16724343839E+03  0.26958443967E+03  0.00000000000E+00 0. -1.
        -13    1    5    5    0    0  0.47298967811E+03 -0.54256712711E+03 -0.63658509708E+03  0.96090525488E+03  0.00000000000E+00 0.  1.
          2    1    6    6  503    0  0.37981659285E+03 -0.22980655156E+03  0.11699899455E+02  0.44408173008E+03  0.00000000000E+00 0. -1.
         -2    1    6    6    0  503 -0.25092713960E+01  0.35669241395E+01  0.34690004315E+01  0.55725537009E+01  0.00000000000E+00 0.  1.
<mgrwt>
<rscale>  0 0.13682803E+04</rscale>
<asrwt>0</asrwt>
<pdfrwt beam="1">  1        2 0.27087629E+00 0.13682803E+04</pdfrwt>
<pdfrwt beam="2">  1       -2 0.20363873E+00 0.13682803E+04</pdfrwt>
<totfact> 0.10880565E+00</totfact>
</mgrwt>
</event>
<event>
12    1  0.1335216E-007  0.8638060E+03  0.7818608E-02  0.9471992E-01
         -1   -1    0    0    0  501 -0.00000000000E+00  0.00000000000E+00  0.31625165981E+03  0.31625165981E+03  0.00000000000E+00 0.  1.
          1   -1    0    0  501    0  0.00000000000E+00 -0.00000000000E+00 -0.24884983489E+04  0.24884983489E+04  0.00000000000E+00 0. -1.
         23    2    1    2    0    0 -0.66695167340E+03  0.38277901649E+03 -0.73357071780E+03  0.10666461509E+04  0.90904912493E+02 0.  0.
    5000000    2    1    2    0    0  0.66695167340E+03 -0.38277901649E+03 -0.14386759713E+04  0.17381038578E+04  0.59989345723E+03 0.  0.
         23    2    4    4    0    0  0.11219067380E+03  0.13210451733E+03 -0.18553500517E+03  0.27092085436E+03  0.94533170866E+02 0.  0.
         23    2    4    4    0    0  0.55476099961E+03 -0.51488353383E+03 -0.12531409661E+04  0.14671830034E+04  0.96947741349E+02 0.  0.
          4    1    3    3  502    0 -0.26843892204E+03  0.18246580150E+03 -0.36122805024E+03  0.48563250288E+03  0.00000000000E+00 0. -1.
         -4    1    3    3    0  502 -0.39851275137E+03  0.20031321500E+03 -0.37234266757E+03  0.58101364803E+03  0.00000000000E+00 0.  1.
         11    1    5    5    0    0  0.11859686968E+03  0.75995366340E+02 -0.12869270642E+03  0.19079393567E+03  0.00000000000E+00 0. -1.
        -11    1    5    5    0    0 -0.64061958792E+01  0.56109150994E+02 -0.56842298754E+02  0.80126918689E+02  0.00000000000E+00 0.  1.
          1    1    6    6  503    0  0.47594439018E+03 -0.40807852603E+03 -0.10831695698E+04  0.12515220585E+04  0.00000000000E+00 0. -1.
         -1    1    6    6    0  503  0.78816609429E+02 -0.10680500780E+03 -0.16997139629E+03  0.21566094494E+03  0.00000000000E+00 0.  1.
<mgrwt>
<rscale>  0 0.86380598E+03</rscale>
<asrwt>0</asrwt>
<pdfrwt beam="1">  1        1 0.38284589E+00 0.86380598E+03</pdfrwt>
<pdfrwt beam="2">  1       -1 0.48654103E-01 0.86380598E+03</pdfrwt>
<totfact> 0.60532135E+00</totfact>
</mgrwt>
</event>
<event>
12    1  0.1335216E-007  0.9072022E+03  0.7818608E-02  0.9416623E-01
          2   -1    0    0  501    0  0.00000000000E+00  0.00000000000E+00  0.66833988293E+03  0.66833988293E+03  0.00000000000E+00 0.  1.
         -2   -1    0    0    0  501 -0.00000000000E+00 -0.00000000000E+00 -0.14635790414E+04  0.14635790414E+04  0.00000000000E+00 0. -1.
         23    2    1    2    0    0  0.57593744595E+03 -0.58078946312E+03 -0.75416110696E+03  0.11165559677E+04  0.94434695106E+02 0.  0.
    5000000    2    1    2    0    0 -0.57593744595E+03  0.58078946312E+03 -0.41078051508E+02  0.10153629566E+04  0.60021178367E+03 0.  0.
         23    2    4    4    0    0 -0.17254041143E+02  0.40475018268E+03  0.41632200727E+02  0.41725413798E+03  0.90814994402E+02 0.  0.
         23    2    4    4    0    0 -0.55868340481E+03  0.17603928044E+03 -0.82710252235E+02  0.59810881865E+03  0.88182753718E+02 0.  0.
          1    1    3    3  502    0  0.24825993160E+03 -0.20312777353E+03 -0.25200223583E+03  0.40792035114E+03  0.00000000000E+00 0. -1.
         -1    1    3    3    0  502  0.32767751436E+03 -0.37766168959E+03 -0.50215887113E+03  0.70863561656E+03  0.00000000000E+00 0.  1.
         11    1    5    5    0    0 -0.11106721470E+02  0.36402904864E+03  0.64925830042E+02  0.36994036130E+03  0.00000000000E+00 0. -1.
        -11    1    5    5    0    0 -0.61473196728E+01  0.40721134047E+02 -0.23293629315E+02  0.47313776682E+02  0.00000000000E+00 0.  1.
          2    1    6    6  503    0 -0.17428325793E+03  0.81494207494E+02 -0.60279805730E+02  0.20161749634E+03  0.00000000000E+00 0.  1.
         -2    1    6    6    0  503 -0.38440014688E+03  0.94545072945E+02 -0.22430446505E+02  0.39649132231E+03  0.00000000000E+00 0. -1.
<mgrwt>
<rscale>  0 0.90720215E+03</rscale>
<asrwt>0</asrwt>
<pdfrwt beam="1">  1        2 0.10282152E+00 0.90720215E+03</pdfrwt>
<pdfrwt beam="2">  1       -2 0.22516601E+00 0.90720215E+03</pdfrwt>
<totfact> 0.40040464E+00</totfact>
</mgrwt>
</event>
<event>
12    1  0.1335216E-007  0.3812834E+03  0.7818608E-02  0.1050460E+00
          1   -1    0    0  501    0  0.00000000000E+00  0.00000000000E+00  0.96145679398E+03  0.96145679398E+03  0.00000000000E+00 0.  1.
         -1   -1    0    0    0  501 -0.00000000000E+00 -0.00000000000E+00 -0.22877219803E+03  0.22877219803E+03  0.00000000000E+00 0. -1.
         23    2    1    2    0    0  0.20209848072E+03 -0.75690312349E+02  0.42341388604E+02  0.25048329466E+03  0.11990107764E+03 0.  0.
    5000000    2    1    2    0    0 -0.20209848072E+03  0.75690312349E+02  0.69034320735E+03  0.93974569735E+03  0.59997951004E+03 0.  0.
         23    2    4    4    0    0 -0.32358441750E+03 -0.36886497727E+02  0.15356696485E+03  0.37051592996E+03  0.87359903287E+02 0.  0.
         23    2    4    4    0    0  0.12148593677E+03  0.11257681008E+03  0.53677624250E+03  0.56922976739E+03  0.91985991166E+02 0.  0.
          4    1    3    3  502    0  0.10820292751E+03  0.20014646794E+02  0.37740079686E+02  0.11633044839E+03  0.00000000000E+00 0. -1.
         -4    1    3    3    0  502  0.93895553212E+02 -0.95704959143E+02  0.46013089174E+01  0.13415284627E+03  0.00000000000E+00 0.  1.
         11    1    5    5    0    0 -0.11188093956E+03 -0.36623367923E+02  0.17909069805E+02  0.11907707796E+03  0.00000000000E+00 0. -1.
        -11    1    5    5    0    0 -0.21170347794E+03 -0.26312980347E+00  0.13565789504E+03  0.25143885200E+03  0.00000000000E+00 0.  1.
          1    1    6    6  503    0  0.12570664388E+03  0.65472167956E+02  0.38529079001E+03  0.41053350406E+03  0.00000000000E+00 0. -1.
         -1    1    6    6    0  503 -0.42207071071E+01  0.47104642121E+02  0.15148545249E+03  0.15869626333E+03  0.00000000000E+00 0.  1.
<mgrwt>
<rscale>  0 0.38128341E+03</rscale>
<asrwt>0</asrwt>
<pdfrwt beam="1">  1        1 0.14791643E+00 0.38128341E+03</pdfrwt>
<pdfrwt beam="2">  1       -1 0.35195723E-01 0.38128341E+03</pdfrwt>
<totfact> 0.13160578E+02</totfact>
</mgrwt>
</event>
<event>
12    1  0.1335216E-007  0.8294077E+03  0.7818608E-02  0.9518400E-01
          2   -1    0    0  501    0  0.00000000000E+00  0.00000000000E+00  0.10581718542E+04  0.10581718542E+04  0.00000000000E+00 0.  1.
         -2   -1    0    0    0  501 -0.00000000000E+00 -0.00000000000E+00 -0.83093800668E+03  0.83093800668E+03  0.00000000000E+00 0. -1.
         23    2    1    2    0    0  0.15874671451E+03  0.73911163029E+03 -0.26426170442E+03  0.80603762443E+03  0.91519845810E+02 0.  0.
    5000000    2    1    2    0    0 -0.15874671451E+03 -0.73911163029E+03  0.49149555195E+03  0.10830722365E+04  0.59999255864E+03 0.  0.
         23    2    4    4    0    0 -0.31768198026E+03 -0.41925047244E+03  0.94776630371E+02  0.54153224359E+03  0.87073313692E+02 0.  0.
         23    2    4    4    0    0  0.15893526575E+03 -0.31986115786E+03  0.39671892158E+03  0.54153999288E+03  0.91148681541E+02 0.  0.
          1    1    3    3  502    0  0.10003117123E+03  0.55370120745E+03 -0.15805345265E+03  0.58444174752E+03  0.00000000000E+00 0. -1.
         -1    1    3    3    0  502  0.58715543282E+02  0.18541042284E+03 -0.10620825176E+03  0.22159587691E+03  0.00000000000E+00 0.  1.
         13    1    5    5    0    0 -0.11434646729E+03 -0.22283453108E+03  0.43414858917E+02  0.25419518642E+03  0.00000000000E+00 0. -1.
        -13    1    5    5    0    0 -0.20333551297E+03 -0.19641594136E+03  0.51361771454E+02  0.28733705717E+03  0.00000000000E+00 0.  1.
          1    1    6    6  503    0  0.11180470593E+03 -0.29442735262E+03  0.34388864047E+03  0.46631229373E+03  0.00000000000E+00 0. -1.
         -1    1    6    6    0  503  0.47130559821E+02 -0.25433805241E+02  0.52830281113E+02  0.75227699157E+02  0.00000000000E+00 0.  1.
<mgrwt>
<rscale>  0 0.82940774E+03</rscale>
<asrwt>0</asrwt>
<pdfrwt beam="1">  1        2 0.16279567E+00 0.82940774E+03</pdfrwt>
<pdfrwt beam="2">  1       -2 0.12783662E+00 0.82940774E+03</pdfrwt>
<totfact> 0.10575097E+01</totfact>
</mgrwt>
</event>
<event>
12    1  0.1335216E-007  0.7364354E+03  0.7818608E-02  0.9656875E-01
          2   -1    0    0  501    0  0.00000000000E+00  0.00000000000E+00  0.10559301101E+04  0.10559301101E+04  0.00000000000E+00 0. -1.
         -2   -1    0    0    0  501 -0.00000000000E+00 -0.00000000000E+00 -0.53625812101E+03  0.53625812101E+03  0.00000000000E+00 0.  1.
         23    2    1    2    0    0  0.60641859306E+03 -0.13870821270E+03  0.12048919363E+03  0.64010629688E+03  0.90746610132E+02 0.  0.
    5000000    2    1    2    0    0 -0.60641859306E+03  0.13870821270E+03  0.39918279543E+03  0.95208193419E+03  0.60010801274E+03 0.  0.
         23    2    4    4    0    0 -0.52385942555E+03 -0.14726382836E+03  0.22892235308E+03  0.59753570503E+03  0.92347940792E+02 0.  0.
         23    2    4    4    0    0 -0.82559167510E+02  0.28597204106E+03  0.17026044234E+03  0.35454622915E+03  0.90102086402E+02 0.  0.
          2    1    3    3  502    0  0.29907417359E+03 -0.10808050332E+03  0.36965587013E+02  0.32014560926E+03  0.00000000000E+00 0. -1.
         -2    1    3    3    0  502  0.30734441947E+03 -0.30627709376E+02  0.83523606617E+02  0.31996068763E+03  0.00000000000E+00 0.  1.
         13    1    5    5    0    0 -0.26262133733E+03 -0.99502931356E+02  0.75397338884E+02  0.29078438555E+03  0.00000000000E+00 0. -1.
        -13    1    5    5    0    0 -0.26123808822E+03 -0.47760897001E+02  0.15352501420E+03  0.30675131948E+03  0.00000000000E+00 0.  1.
          3    1    6    6  503    0 -0.23940132575E+02  0.14428924399E+03  0.35726493547E+02  0.15056194148E+03  0.00000000000E+00 0. -1.
         -3    1    6    6    0  503 -0.58619034935E+02  0.14168279706E+03  0.13453394880E+03  0.20398428767E+03  0.00000000000E+00 0.  1.
<mgrwt>
<rscale>  0 0.73643542E+03</rscale>
<asrwt>0</asrwt>
<pdfrwt beam="1">  1        2 0.16245079E+00 0.73643542E+03</pdfrwt>
<pdfrwt beam="2">  1       -2 0.82501249E-01 0.73643542E+03</pdfrwt>
<totfact> 0.30468441E+01</totfact>
</mgrwt>
</event>
<event>
12    1  0.1335216E-007  0.9785249E+03  0.7818608E-02  0.9332417E-01
         -2   -1    0    0    0  501 -0.00000000000E+00  0.00000000000E+00  0.58543120198E+03  0.58543120198E+03  0.00000000000E+00 0.  1.
          2   -1    0    0  501    0  0.00000000000E+00 -0.00000000000E+00 -0.22106519699E+04  0.22106519699E+04  0.00000000000E+00 0. -1.
         23    2    1    2    0    0 -0.12604277368E+03 -0.89069598151E+03 -0.76621287293E+02  0.90750565701E+03  0.92030340480E+02 0.  0.
    5000000    2    1    2    0    0  0.12604277368E+03  0.89069598151E+03 -0.15485994806E+04  0.18885775148E+04  0.59944855153E+03 0.  0.
         23    2    4    4    0    0  0.25233309396E+03  0.88175621080E+03 -0.12681282430E+04  0.15675816654E+04  0.89426123269E+02 0.  0.
         23    2    4    4    0    0 -0.12629032028E+03  0.89397707129E+01 -0.28047123762E+03  0.32099584941E+03  0.91351276468E+02 0.  0.
          1    1    3    3  502    0 -0.13635292963E+03 -0.70493208587E+03 -0.52797856650E+02  0.71993678943E+03  0.00000000000E+00 0. -1.
         -1    1    3    3    0  502  0.10310155947E+02 -0.18576389564E+03 -0.23823430643E+02  0.18756886759E+03  0.00000000000E+00 0.  1.
         11    1    5    5    0    0  0.15969555733E+03  0.50914659201E+03 -0.80807260994E+03  0.96835647677E+03  0.00000000000E+00 0.  1.
        -11    1    5    5    0    0  0.92637536627E+02  0.37260961879E+03 -0.46005563304E+03  0.59922518864E+03  0.00000000000E+00 0. -1.
          3    1    6    6  503    0 -0.10421165718E+03  0.26160647366E+02 -0.27085878536E+03  0.29139137010E+03  0.00000000000E+00 0. -1.
         -3    1    6    6    0  503 -0.22078663098E+02 -0.17220876654E+02 -0.96124522603E+01  0.29604479313E+02  0.00000000000E+00 0.  1.
<mgrwt>
<rscale>  0 0.97852494E+03</rscale>
<asrwt>0</asrwt>
<pdfrwt beam="1">  1        2 0.34010030E+00 0.97852494E+03</pdfrwt>
<pdfrwt beam="2">  1       -2 0.90066338E-01 0.97852494E+03</pdfrwt>
<totfact> 0.54113790E+00</totfact>
</mgrwt>
</event>
<event>
12    1  0.1335216E-007  0.7416475E+03  0.7818608E-02  0.9648546E-01
          1   -1    0    0  501    0  0.00000000000E+00  0.00000000000E+00  0.61154563720E+03  0.61154563720E+03  0.00000000000E+00 0. -1.
         -1   -1    0    0    0  501 -0.00000000000E+00 -0.00000000000E+00 -0.11885059025E+04  0.11885059025E+04  0.00000000000E+00 0.  1.
         23    2    1    2    0    0  0.50648902219E+03  0.37196434650E+03  0.16675526884E+03  0.65637374770E+03  0.90169686223E+02 0.  0.
    5000000    2    1    2    0    0 -0.50648902219E+03 -0.37196434650E+03 -0.74371553416E+03  0.11436777920E+04  0.59999790963E+03 0.  0.
         23    2    4    4    0    0 -0.60428344320E+03 -0.20330080364E+03 -0.62420780491E+03  0.89672818641E+03  0.89422369203E+02 0.  0.
         23    2    4    4    0    0  0.97794421011E+02 -0.16866354286E+03 -0.11950772925E+03  0.24694960561E+03  0.93224840519E+02 0.  0.
          2    1    3    3  502    0  0.12549393631E+03  0.46763026759E+02  0.35863191169E+02  0.13864226341E+03  0.00000000000E+00 0. -1.
         -2    1    3    3    0  502  0.38099508588E+03  0.32520131974E+03  0.13089207767E+03  0.51773148429E+03  0.00000000000E+00 0.  1.
         13    1    5    5    0    0 -0.49969471706E+03 -0.14052451425E+03 -0.53634610177E+03  0.74639740771E+03  0.00000000000E+00 0.  1.
        -13    1    5    5    0    0 -0.10458872615E+03 -0.62776289387E+02 -0.87861703136E+02  0.15033077870E+03  0.00000000000E+00 0. -1.
          4    1    6    6  503    0  0.12856299919E+02 -0.92266833539E+02 -0.88690571507E+02  0.12862531047E+03  0.00000000000E+00 0. -1.
         -4    1    6    6    0  503  0.84938121091E+02 -0.76396709321E+02 -0.30817157746E+02  0.11832429514E+03  0.00000000000E+00 0.  1.
<mgrwt>
<rscale>  0 0.74164749E+03</rscale>
<asrwt>0</asrwt>
<pdfrwt beam="1">  1        1 0.94083945E-01 0.74164749E+03</pdfrwt>
<pdfrwt beam="2">  1       -1 0.18284706E+00 0.74164749E+03</pdfrwt>
<totfact> 0.68439616E+00</totfact>
</mgrwt>
</event>
<event>
12    1  0.1335216E-007  0.4127656E+03  0.7818608E-02  0.1039447E+00
         -2   -1    0    0    0  501 -0.00000000000E+00  0.00000000000E+00  0.16700223598E+03  0.16700223598E+03  0.00000000000E+00 0.  1.
          2   -1    0    0  501    0  0.00000000000E+00 -0.00000000000E+00 -0.25991453794E+04  0.25991453794E+04  0.00000000000E+00 0. -1.
         23    2    1    2    0    0 -0.30678328699E+03 -0.20357268928E+03 -0.20668752494E+03  0.43200142041E+03  0.91365580364E+02 0.  0.
    5000000    2    1    2    0    0  0.30678328699E+03  0.20357268928E+03 -0.22254556185E+04  0.23341461950E+04  0.60002327015E+03 0.  0.
         23    2    4    4    0    0  0.14591722010E+02  0.89196551420E+02 -0.17635887099E+04  0.17682359637E+04  0.90798360500E+02 0.  0.
         23    2    4    4    0    0  0.29219156498E+03  0.11437613786E+03 -0.46186690856E+03  0.56591023132E+03  0.92062680480E+02 0.  0.
          4    1    3    3  502    0 -0.10651711172E+03 -0.11410007331E+03 -0.55780650466E+02  0.16575947268E+03  0.00000000000E+00 0. -1.
         -4    1    3    3    0  502 -0.20026617527E+03 -0.89472615972E+02 -0.15090687448E+03  0.26624194773E+03  0.00000000000E+00 0.  1.
         11    1    5    5    0    0  0.48465286713E+02  0.23781983470E+02 -0.67256202917E+03  0.67472524025E+03  0.00000000000E+00 0. -1.
        -11    1    5    5    0    0 -0.33873564703E+02  0.65414567951E+02 -0.10910266808E+04  0.10935107234E+04  0.00000000000E+00 0.  1.
          1    1    6    6  503    0  0.17853629333E+03  0.30341420571E+02 -0.21186123021E+03  0.27871309748E+03  0.00000000000E+00 0. -1.
         -1    1    6    6    0  503  0.11365527165E+03  0.84034717289E+02 -0.25000567834E+03  0.28719713384E+03  0.00000000000E+00 0.  1.
<mgrwt>
<rscale>  0 0.41276561E+03</rscale>
<asrwt>0</asrwt>
<pdfrwt beam="1">  1        2 0.39986850E+00 0.41276561E+03</pdfrwt>
<pdfrwt beam="2">  1       -2 0.25692653E-01 0.41276561E+03</pdfrwt>
<totfact> 0.46195941E+01</totfact>
</mgrwt>
</event>
<event>
12    1  0.1335216E-007  0.3234155E+04  0.7818608E-02  0.8179855E-01
         -2   -1    0    0    0  501 -0.00000000000E+00  0.00000000000E+00  0.28404712615E+04  0.28404712615E+04  0.00000000000E+00 0.  1.
          2   -1    0    0  501    0  0.00000000000E+00 -0.00000000000E+00 -0.39427603063E+04  0.39427603063E+04  0.00000000000E+00 0. -1.
         23    2    1    2    0    0  0.98449842801E+03  0.30648492475E+04 -0.13659022064E+04  0.34981091864E+04  0.92417411503E+02 0.  0.
    5000000    2    1    2    0    0 -0.98449842801E+03 -0.30648492475E+04  0.26361316162E+03  0.32851223814E+04  0.59999924797E+03 0.  0.
         23    2    4    4    0    0 -0.30369474755E+03 -0.16205642657E+04  0.33206331065E+03  0.16843545877E+04  0.91243060170E+02 0.  0.
         23    2    4    4    0    0 -0.68080368046E+03 -0.14442849818E+04 -0.68450149030E+02  0.16007677937E+04  0.91210451810E+02 0.  0.
          1    1    3    3  502    0  0.66318712008E+03  0.21355649413E+04 -0.98834386861E+03  0.24448473117E+04  0.00000000000E+00 0. -1.
         -1    1    3    3    0  502  0.32131130793E+03  0.92928430617E+03 -0.37755833779E+03  0.10532618747E+04  0.00000000000E+00 0.  1.
         11    1    5    5    0    0 -0.92892240671E+02 -0.67688638848E+03  0.16822549977E+03  0.70363624840E+03  0.00000000000E+00 0.  1.
        -11    1    5    5    0    0 -0.21080250687E+03 -0.94367787721E+03  0.16383781088E+03  0.98071833933E+03  0.00000000000E+00 0. -1.
          3    1    6    6  503    0 -0.25850332584E+03 -0.46006660232E+03 -0.43132860152E+02  0.52947680937E+03  0.00000000000E+00 0. -1.
         -3    1    6    6    0  503 -0.42230035462E+03 -0.98421837947E+03 -0.25317288878E+02  0.10712909843E+04  0.00000000000E+00 0.  1.
<mgrwt>
<rscale>  0 0.32341552E+04</rscale>
<asrwt>0</asrwt>
<pdfrwt beam="1">  1        2 0.60657850E+00 0.32341552E+04</pdfrwt>
<pdfrwt beam="2">  1       -2 0.43699558E+00 0.32341552E+04</pdfrwt>
<totfact> 0.12402958E-03</totfact>
</mgrwt>
</event>
<event>
12    1  0.1335216E-007  0.8623301E+03  0.7818608E-02  0.9473936E-01
          1   -1    0    0  501    0  0.00000000000E+00  0.00000000000E+00  0.36403924868E+04  0.36403924868E+04  0.00000000000E+00 0. -1.
         -1   -1    0    0    0  501 -0.00000000000E+00 -0.00000000000E+00 -0.41023294125E+03  0.41023294125E+03  0.00000000000E+00 0.  1.
         23    2    1    2    0    0  0.32347068704E+03 -0.72652652719E+03  0.28884725451E+04  0.29974137093E+04  0.93494496752E+02 0.  0.
    5000000    2    1    2    0    0 -0.32347068704E+03  0.72652652719E+03  0.34168700046E+03  0.10532117187E+04  0.60002569788E+03 0.  0.
         23    2    4    4    0    0 -0.10181154067E+03 -0.38042544956E+02  0.19071646411E+03  0.23800717176E+03  0.91988146429E+02 0.  0.
         23    2    4    4    0    0 -0.22165914636E+03  0.76456907215E+03  0.15097053635E+03  0.81520454699E+03  0.89820417088E+02 0.  0.
          1    1    3    3  502    0  0.23071028326E+03 -0.42742829127E+03  0.16542779063E+04  0.17241106606E+04  0.00000000000E+00 0. -1.
         -1    1    3    3    0  502  0.92760403781E+02 -0.29909823593E+03  0.12341946388E+04  0.12733030487E+04  0.00000000000E+00 0.  1.
         11    1    5    5    0    0 -0.81170734962E+02  0.48752231955E+00  0.62207287660E+02  0.10226765144E+03  0.00000000000E+00 0. -1.
        -11    1    5    5    0    0 -0.20640805712E+02 -0.38530067276E+02  0.12850917645E+03  0.13573952032E+03  0.00000000000E+00 0.  1.
          3    1    6    6  503    0 -0.16011635937E+03  0.66374276454E+03  0.12228056784E+03  0.69364561794E+03  0.00000000000E+00 0.  1.
         -3    1    6    6    0  503 -0.61542786996E+02  0.10082630761E+03  0.28689968512E+02  0.12155892904E+03  0.00000000000E+00 0. -1.
<mgrwt>
<rscale>  0 0.86233006E+03</rscale>
<asrwt>0</asrwt>
<pdfrwt beam="1">  1        1 0.56006036E+00 0.86233006E+03</pdfrwt>
<pdfrwt beam="2">  1       -1 0.63112763E-01 0.86233006E+03</pdfrwt>
<totfact> 0.52662023E-01</totfact>
</mgrwt>
</event>
<event>
12    1  0.1335216E-007  0.6784242E+03  0.7818608E-02  0.9754858E-01
          1   -1    0    0  501    0  0.00000000000E+00  0.00000000000E+00  0.31044786889E+03  0.31044786889E+03  0.00000000000E+00 0. -1.
         -1   -1    0    0    0  501 -0.00000000000E+00 -0.00000000000E+00 -0.18413949419E+04  0.18413949419E+04  0.00000000000E+00 0.  1.
         23    2    1    2    0    0 -0.28421790949E+03  0.53787021432E+03 -0.89813673855E+03  0.10886236546E+04  0.91474984449E+02 0.  0.
    5000000    2    1    2    0    0  0.28421790949E+03 -0.53787021432E+03 -0.63281033443E+03  0.10632191561E+04  0.59991821697E+03 0.  0.
         23    2    4    4    0    0 -0.85794864623E+02 -0.67675205283E+02  0.49645318559E+02  0.15051200154E+03  0.90821323195E+02 0.  0.
         23    2    4    4    0    0  0.37001277412E+03 -0.47019500903E+03 -0.68245565298E+03  0.91270715458E+03  0.96414896129E+02 0.  0.
          3    1    3    3  502    0 -0.11611990552E+03  0.13393987869E+03 -0.27711862612E+03  0.32896573759E+03  0.00000000000E+00 0. -1.
         -3    1    3    3    0  502 -0.16809800398E+03  0.40393033562E+03 -0.62101811242E+03  0.75965791705E+03  0.00000000000E+00 0.  1.
         11    1    5    5    0    0 -0.91874159547E+02 -0.20797516484E+02  0.39612508692E+02  0.10218878965E+03  0.00000000000E+00 0.  1.
        -11    1    5    5    0    0  0.60792949238E+01 -0.46877688800E+02  0.10032809867E+02  0.48323211894E+02  0.00000000000E+00 0. -1.
          3    1    6    6  503    0  0.93832502786E+02 -0.15813649937E+03 -0.15496347467E+03  0.24046906140E+03  0.00000000000E+00 0. -1.
         -3    1    6    6    0  503  0.27618027133E+03 -0.31205850966E+03 -0.52749217832E+03  0.67223809317E+03  0.00000000000E+00 0.  1.
<mgrwt>
<rscale>  0 0.67842419E+03</rscale>
<asrwt>0</asrwt>
<pdfrwt beam="1">  1        1 0.47761210E-01 0.67842419E+03</pdfrwt>
<pdfrwt beam="2">  1       -1 0.28329153E+00 0.67842419E+03</pdfrwt>
<totfact> 0.37545853E+00</totfact>
</mgrwt>
</event>
<event>
12    1  0.1335216E-007  0.1445733E+04  0.7818608E-02  0.8921364E-01
          1   -1    0    0  501    0  0.00000000000E+00  0.00000000000E+00  0.12673834640E+04  0.12673834640E+04  0.00000000000E+00 0. -1.
         -1   -1    0    0    0  501 -0.00000000000E+00 -0.00000000000E+00 -0.17381816351E+04  0.17381816351E+04  0.00000000000E+00 0.  1.
         23    2    1    2    0    0  0.10863394493E+04  0.90095149873E+03 -0.39303766413E+03  0.14700150020E+04  0.12090698219E+03 0.  0.
    5000000    2    1    2    0    0 -0.10863394493E+04 -0.90095149873E+03 -0.77760506970E+02  0.15355500971E+04  0.60001700137E+03 0.  0.
         23    2    4    4    0    0 -0.25155240607E+03 -0.47049422262E+03  0.15568489857E+03  0.56329257414E+03  0.91745898663E+02 0.  0.
         23    2    4    4    0    0 -0.83478704327E+03 -0.43045727612E+03 -0.23344540554E+03  0.97225752294E+03  0.92871197730E+02 0.  0.
          2    1    3    3  502    0  0.86575537905E+03  0.65350352176E+03 -0.28834189680E+03  0.11223815210E+04  0.00000000000E+00 0. -1.
         -2    1    3    3    0  502  0.22058407029E+03  0.24744797697E+03 -0.10469576734E+03  0.34763348094E+03  0.00000000000E+00 0.  1.
         13    1    5    5    0    0 -0.10298352074E+03 -0.24541895189E+03  0.11742873427E+03  0.29090475266E+03  0.00000000000E+00 0. -1.
        -13    1    5    5    0    0 -0.14856888533E+03 -0.22507527072E+03  0.38256164307E+02  0.27238782147E+03  0.00000000000E+00 0.  1.
          2    1    6    6  503    0 -0.93244460221E+02 -0.54819376415E+02 -0.57821444753E+02  0.12264996072E+03  0.00000000000E+00 0.  1.
         -2    1    6    6    0  503 -0.74154258305E+03 -0.37563789970E+03 -0.17562396079E+03  0.84960756221E+03  0.00000000000E+00 0. -1.
<mgrwt>
<rscale>  0 0.14457330E+04</rscale>
<asrwt>0</asrwt>
<pdfrwt beam="1">  1        1 0.19498207E+00 0.14457330E+04</pdfrwt>
<pdfrwt beam="2">  1       -1 0.26741256E+00 0.14457330E+04</pdfrwt>
<totfact> 0.48880720E-01</totfact>
</mgrwt>
</event>
<event>
12    1  0.1335216E-007  0.1079484E+04  0.7818608E-02  0.9225422E-01
          2   -1    0    0  501    0  0.00000000000E+00  0.00000000000E+00  0.17392230417E+04  0.17392230417E+04  0.00000000000E+00 0. -1.
         -2   -1    0    0    0  501 -0.00000000000E+00 -0.00000000000E+00 -0.77310461744E+03  0.77310461744E+03  0.00000000000E+00 0.  1.
         23    2    1    2    0    0  0.44065814132E+03 -0.97914386981E+03  0.57652026901E+03  0.12221315151E+04  0.91255160220E+02 0.  0.
    5000000    2    1    2    0    0 -0.44065814132E+03  0.97914386981E+03  0.38959815522E+03  0.12901961440E+04  0.59993087288E+03 0.  0.
         23    2    4    4    0    0 -0.26093040238E+03  0.55374959690E+03 -0.81450540286E+02  0.62423023658E+03  0.91136747806E+02 0.  0.
         23    2    4    4    0    0 -0.17972773894E+03  0.42539427291E+03  0.47104869551E+03  0.66596590745E+03  0.91440520431E+02 0.  0.
          1    1    3    3  502    0  0.24939686359E+03 -0.60171815867E+03  0.30366599411E+03  0.71866304623E+03  0.00000000000E+00 0. -1.
         -1    1    3    3    0  502  0.19126127773E+03 -0.37742571114E+03  0.27285427491E+03  0.50346846885E+03  0.00000000000E+00 0.  1.
         13    1    5    5    0    0 -0.18315764299E+02  0.86136640127E+02 -0.37110112161E+02  0.95562275081E+02  0.00000000000E+00 0. -1.
        -13    1    5    5    0    0 -0.24261463808E+03  0.46761295677E+03 -0.44340428125E+02  0.52866796150E+03  0.00000000000E+00 0.  1.
          1    1    6    6  503    0 -0.16219776513E+03  0.28324162628E+03  0.34831491357E+03  0.47734391468E+03  0.00000000000E+00 0. -1.
         -1    1    6    6    0  503 -0.17529973809E+02  0.14215264663E+03  0.12273378193E+03  0.18862199276E+03  0.00000000000E+00 0.  1.
<mgrwt>
<rscale>  0 0.10794841E+04</rscale>
<asrwt>0</asrwt>
<pdfrwt beam="1">  1        2 0.26757277E+00 0.10794841E+04</pdfrwt>
<pdfrwt beam="2">  1       -2 0.11893917E+00 0.10794841E+04</pdfrwt>
<totfact> 0.49984549E+00</totfact>
</mgrwt>
</event>
<event>
12    1  0.1335216E-007  0.1993732E+04  0.7818608E-02  0.8609557E-01
          2   -1    0    0  501    0  0.00000000000E+00  0.00000000000E+00  0.25431973962E+04  0.25431973962E+04  0.00000000000E+00 0. -1.
         -2   -1    0    0    0  501 -0.00000000000E+00 -0.00000000000E+00 -0.16345988909E+04  0.16345988909E+04  0.00000000000E+00 0.  1.
         23    2    1    2    0    0  0.31743260328E+02 -0.19780924684E+04  0.19405482482E+03  0.19904564081E+04  0.10199014233E+03 0.  0.
    5000000    2    1    2    0    0 -0.31743260328E+02  0.19780924684E+04  0.71454368049E+03  0.21873398790E+04  0.60002135511E+03 0.  0.
         23    2    4    4    0    0  0.45084481450E+02  0.18376284822E+04  0.50629093159E+03  0.19088391488E+04  0.91789648040E+02 0.  0.
         23    2    4    4    0    0 -0.76827741778E+02  0.14046398626E+03  0.20825274891E+03  0.27850073022E+03  0.92524677580E+02 0.  0.
          3    1    3    3  502    0  0.45793944248E+02 -0.13082122076E+04  0.86685463032E+02  0.13118805719E+04  0.00000000000E+00 0. -1.
         -3    1    3    3    0  502 -0.14050683919E+02 -0.66988026087E+03  0.10736936178E+03  0.67857583619E+03  0.00000000000E+00 0.  1.
         11    1    5    5    0    0  0.55185585701E+02  0.54170876237E+03  0.15022071522E+03  0.56485404785E+03  0.00000000000E+00 0. -1.
        -11    1    5    5    0    0 -0.10101104251E+02  0.12959197198E+04  0.35607021637E+03  0.13439851009E+04  0.00000000000E+00 0.  1.
          2    1    6    6  503    0 -0.38755953995E+02  0.11694576858E+03  0.91489207518E+02  0.15345556963E+03  0.00000000000E+00 0.  1.
         -2    1    6    6    0  503 -0.38071787783E+02  0.23518217680E+02  0.11676354139E+03  0.12504516058E+03  0.00000000000E+00 0. -1.
<mgrwt>
<rscale>  0 0.19937315E+04</rscale>
<asrwt>0</asrwt>
<pdfrwt beam="1">  1        2 0.39126114E+00 0.19937315E+04</pdfrwt>
<pdfrwt beam="2">  1       -2 0.25147675E+00 0.19937315E+04</pdfrwt>
<totfact> 0.18406004E-01</totfact>
</mgrwt>
</event>
<event>
12    1  0.1812597E-007  0.1519821E+04  0.7818608E-02  0.8871378E-01
         -2   -1    0    0    0  501 -0.00000000000E+00  0.00000000000E+00  0.13183444694E+04  0.13183444694E+04  0.00000000000E+00 0.  1.
          2   -1    0    0  501    0  0.00000000000E+00 -0.00000000000E+00 -0.22615609148E+04  0.22615609148E+04  0.00000000000E+00 0. -1.
         23    2    1    2    0    0 -0.75938604375E+03 -0.12730578446E+04 -0.12624156260E+04  0.19491812527E+04  0.90944509460E+02 0.  0.
    5000000    2    1    2    0    0  0.75938604375E+03  0.12730578446E+04  0.31919918057E+03  0.16307241316E+04  0.60002469731E+03 0.  0.
         23    2    4    4    0    0  0.53133087378E+02  0.49199884404E+03 -0.62247791094E+02  0.50683620024E+03  0.90123020686E+02 0.  0.
         23    2    4    4    0    0  0.70625295637E+03  0.78105900058E+03  0.38144697166E+03  0.11238879314E+04  0.93679716898E+02 0.  0.
          2    1    3    3  502    0 -0.50867813557E+03 -0.76780928082E+03 -0.79254963967E+03  0.12150800256E+04  0.00000000000E+00 0. -1.
         -2    1    3    3    0  502 -0.25070790818E+03 -0.50524856380E+03 -0.46986598631E+03  0.73410122704E+03  0.00000000000E+00 0.  1.
         13    1    5    5    0    0 -0.41594478800E+01  0.21452941862E+03  0.87685173546E+01  0.21474882854E+03  0.00000000000E+00 0.  1.
        -13    1    5    5    0    0  0.57292535258E+02  0.27746942542E+03 -0.71016308448E+02  0.29208737170E+03  0.00000000000E+00 0. -1.
          2    1    6    6  503    0  0.35879416160E+03  0.33131852103E+03  0.19320457950E+03  0.52519826953E+03  0.00000000000E+00 0. -1.
         -2    1    6    6    0  503  0.34745879477E+03  0.44974047955E+03  0.18824239216E+03  0.59868966186E+03  0.00000000000E+00 0.  1.
<mgrwt>
<rscale>  0 0.15198212E+04</rscale>
<asrwt>0</asrwt>
<pdfrwt beam="1">  1        2 0.34793244E+00 0.15198212E+04</pdfrwt>
<pdfrwt beam="2">  1       -2 0.20282223E+00 0.15198212E+04</pdfrwt>
<totfact> 0.56928899E-01</totfact>
</mgrwt>
</event>
<event>
12    1  0.1335216E-007  0.7050221E+03  0.7818608E-02  0.9708682E-01
         -2   -1    0    0    0  501 -0.00000000000E+00  0.00000000000E+00  0.29021734237E+03  0.29021734237E+03  0.00000000000E+00 0. -1.
          2   -1    0    0  501    0  0.00000000000E+00 -0.00000000000E+00 -0.18768043653E+04  0.18768043653E+04  0.00000000000E+00 0.  1.
         23    2    1    2    0    0  0.53018955473E+03 -0.23071147761E+03 -0.96060520612E+03  0.11248561935E+04  0.90610949583E+02 0.  0.
    5000000    2    1    2    0    0 -0.53018955473E+03  0.23071147761E+03 -0.62598181680E+03  0.10421655142E+04  0.59993914198E+03 0.  0.
         23    2    4    4    0    0 -0.30581757748E+03  0.41758728528E+03 -0.38348911526E+03  0.65094561196E+03  0.93609597164E+02 0.  0.
         23    2    4    4    0    0 -0.22437197725E+03 -0.18687580767E+03 -0.24249270155E+03  0.39121990220E+03  0.94788975647E+02 0.  0.
          1    1    3    3  502    0  0.10161430956E+03 -0.68348651875E+02 -0.26387039976E+03  0.29090306631E+03  0.00000000000E+00 0. -1.
         -1    1    3    3    0  502  0.42857524517E+03 -0.16236282573E+03 -0.69673480636E+03  0.83395312718E+03  0.00000000000E+00 0.  1.
         11    1    5    5    0    0 -0.26447186583E+03  0.30372606860E+03 -0.26932310420E+03  0.48448924345E+03  0.00000000000E+00 0.  1.
        -11    1    5    5    0    0 -0.41345711649E+02  0.11386121668E+03 -0.11416601106E+03  0.16645636850E+03  0.00000000000E+00 0. -1.
          3    1    6    6  503    0 -0.66646417269E+02 -0.11312204886E+03 -0.12410703464E+03  0.18066792444E+03  0.00000000000E+00 0. -1.
         -3    1    6    6    0  503 -0.15772555998E+03 -0.73753758814E+02 -0.11838566690E+03  0.21055197776E+03  0.00000000000E+00 0.  1.
<mgrwt>
<rscale>  0 0.70502212E+03</rscale>
<asrwt>0</asrwt>
<pdfrwt beam="1">  1        2 0.28873914E+00 0.70502212E+03</pdfrwt>
<pdfrwt beam="2">  1       -2 0.44648821E-01 0.70502212E+03</pdfrwt>
<totfact> 0.38508589E+01</totfact>
</mgrwt>
</event>
<event>
12    1  0.1335216E-007  0.1187978E+04  0.7818608E-02  0.9123445E-01
          4   -1    0    0  501    0  0.00000000000E+00  0.00000000000E+00  0.90340528805E+03  0.90340528805E+03  0.00000000000E+00 0. -1.
         -4   -1    0    0    0  501 -0.00000000000E+00 -0.00000000000E+00 -0.15817672113E+04  0.15817672113E+04  0.00000000000E+00 0.  1.
         23    2    1    2    0    0 -0.29883354789E+03  0.10769589137E+04 -0.27298430754E+03  0.11534335513E+04  0.82137287781E+02 0.  0.
    5000000    2    1    2    0    0  0.29883354789E+03 -0.10769589137E+04 -0.40537761570E+03  0.13317389480E+04  0.60004635097E+03 0.  0.
         23    2    4    4    0    0 -0.44051246215E+02 -0.81276203899E+03 -0.19132105156E+03  0.84098877764E+03  0.90198309513E+02 0.  0.
         23    2    4    4    0    0  0.34288479410E+03 -0.26419687469E+03 -0.21405656414E+03  0.49075017039E+03  0.87438815557E+02 0.  0.
          3    1    3    3  502    0 -0.23734100421E+03  0.76739295094E+03 -0.22514652863E+03  0.83421439258E+03  0.00000000000E+00 0. -1.
         -3    1    3    3    0  502 -0.61492543673E+02  0.30956596273E+03 -0.47837778917E+02  0.31921915873E+03  0.00000000000E+00 0.  1.
         11    1    5    5    0    0 -0.27580195162E+01 -0.49958940097E+03 -0.79417060244E+02  0.50586979124E+03  0.00000000000E+00 0. -1.
        -11    1    5    5    0    0 -0.41293226699E+02 -0.31317263802E+03 -0.11190399132E+03  0.33511898640E+03  0.00000000000E+00 0.  1.
          1    1    6    6  503    0  0.26429388111E+03 -0.24571123421E+03 -0.17556560690E+03  0.40130854531E+03  0.00000000000E+00 0. -1.
         -1    1    6    6    0  503  0.78590912989E+02 -0.18485640478E+02 -0.38490957242E+02  0.89441625085E+02  0.00000000000E+00 0.  1.
<mgrwt>
<rscale>  0 0.11879776E+04</rscale>
<asrwt>0</asrwt>
<pdfrwt beam="1">  1        4 0.13898543E+00 0.11879776E+04</pdfrwt>
<pdfrwt beam="2">  1       -4 0.24334880E+00 0.11879776E+04</pdfrwt>
<totfact> 0.48094445E-02</totfact>
</mgrwt>
</event>
<event>
12    1  0.1335216E-007  0.1949358E+04  0.7818608E-02  0.8630671E-01
          2   -1    0    0  501    0  0.00000000000E+00  0.00000000000E+00  0.36499055168E+04  0.36499055168E+04  0.00000000000E+00 0. -1.
         -2   -1    0    0    0  501 -0.00000000000E+00 -0.00000000000E+00 -0.17374706607E+04  0.17374706607E+04  0.00000000000E+00 0.  1.
         23    2    1    2    0    0  0.10272702563E+04  0.16363690662E+04  0.26089341135E+04  0.32477539220E+04  0.91544682460E+02 0.  0.
    5000000    2    1    2    0    0 -0.10272702563E+04 -0.16363690662E+04 -0.69649925739E+03  0.21396222555E+04  0.59990355931E+03 0.  0.
         23    2    4    4    0    0 -0.94161543250E+03 -0.12950644210E+04 -0.75318061518E+03  0.17717771481E+04  0.89898532934E+02 0.  0.
         23    2    4    4    0    0 -0.85654823796E+02 -0.34130464513E+03  0.56681357789E+02  0.36784510736E+03  0.90948540710E+02 0.  0.
          2    1    3    3  502    0  0.54909926128E+03  0.79695830043E+03  0.12725930654E+04  0.15987950593E+04  0.00000000000E+00 0. -1.
         -2    1    3    3    0  502  0.47817099501E+03  0.83941076574E+03  0.13363410481E+04  0.16489588627E+04  0.00000000000E+00 0.  1.
         13    1    5    5    0    0 -0.13781243466E+03 -0.15881212838E+03 -0.12638539938E+03  0.24533003983E+03  0.00000000000E+00 0. -1.
        -13    1    5    5    0    0 -0.80380299784E+03 -0.11362522927E+04 -0.62679521579E+03  0.15264471083E+04  0.00000000000E+00 0.  1.
          4    1    6    6  503    0 -0.59243461844E+02 -0.77059511597E+02  0.25272778636E+02  0.10043241229E+03  0.00000000000E+00 0. -1.
         -4    1    6    6    0  503 -0.26411361952E+02 -0.26424513354E+03  0.31408579152E+02  0.26741269507E+03  0.00000000000E+00 0.  1.
<mgrwt>
<rscale>  0 0.19493577E+04</rscale>
<asrwt>0</asrwt>
<pdfrwt beam="1">  1        2 0.56152392E+00 0.19493577E+04</pdfrwt>
<pdfrwt beam="2">  1       -2 0.26730318E+00 0.19493577E+04</pdfrwt>
<totfact> 0.28544004E-02</totfact>
</mgrwt>
</event>
<event>
12    1  0.1335216E-007  0.3887924E+03  0.7818608E-02  0.1047731E+00
          2   -1    0    0  501    0  0.00000000000E+00  0.00000000000E+00  0.13004739694E+04  0.13004739694E+04  0.00000000000E+00 0. -1.
         -2   -1    0    0    0  501 -0.00000000000E+00 -0.00000000000E+00 -0.36898472395E+03  0.36898472395E+03  0.00000000000E+00 0.  1.
         23    2    1    2    0    0 -0.32260501036E+03 -0.20899204897E+03  0.86849235279E+03  0.95408891982E+03  0.90857200148E+02 0.  0.
    5000000    2    1    2    0    0  0.32260501036E+03  0.20899204897E+03  0.62996892690E+02  0.71536977357E+03  0.60002802869E+03 0.  0.
         23    2    4    4    0    0  0.18643752078E+03  0.98474705271E+02 -0.25264899758E+03  0.34334941066E+03  0.97985126860E+02 0.  0.
         23    2    4    4    0    0  0.13616748958E+03  0.11051734370E+03  0.31564589027E+03  0.37202036292E+03  0.89505049623E+02 0.  0.
          2    1    3    3  502    0 -0.16487682936E+03 -0.11795084539E+03  0.34908622792E+03  0.40368052382E+03  0.00000000000E+00 0. -1.
         -2    1    3    3    0  502 -0.15772818100E+03 -0.91041203576E+02  0.51940612487E+03  0.55040839599E+03  0.00000000000E+00 0.  1.
         13    1    5    5    0    0  0.12745776059E+03  0.93028693178E+02 -0.23209019964E+03  0.28065223900E+03  0.00000000000E+00 0.  1.
        -13    1    5    5    0    0  0.58979760197E+02  0.54460120924E+01 -0.20558797940E+02  0.62697171654E+02  0.00000000000E+00 0. -1.
          4    1    6    6  503    0  0.11512313008E+03  0.88066439646E+02  0.17112871965E+03  0.22426339773E+03  0.00000000000E+00 0. -1.
         -4    1    6    6    0  503  0.21044359498E+02  0.22450904051E+02  0.14451717062E+03  0.14775696519E+03  0.00000000000E+00 0.  1.
<mgrwt>
<rscale>  0 0.38879241E+03</rscale>
<asrwt>0</asrwt>
<pdfrwt beam="1">  1        2 0.20007292E+00 0.38879241E+03</pdfrwt>
<pdfrwt beam="2">  1       -2 0.56766881E-01 0.38879241E+03</pdfrwt>
<totfact> 0.51432176E+01</totfact>
</mgrwt>
</event>
<event>
12    1  0.1335216E-007  0.3617585E+03  0.7818608E-02  0.1057890E+00
          2   -1    0    0  501    0  0.00000000000E+00  0.00000000000E+00  0.14534241638E+04  0.14534241638E+04  0.00000000000E+00 0. -1.
         -2   -1    0    0    0  501 -0.00000000000E+00 -0.00000000000E+00 -0.15618044718E+03  0.15618044718E+03  0.00000000000E+00 0.  1.
         23    2    1    2    0    0  0.27467696240E+03  0.18586290133E+02  0.33722625640E+03  0.44467021356E+03  0.90648590532E+02 0.  0.
    5000000    2    1    2    0    0 -0.27467696240E+03 -0.18586290133E+02  0.96001746020E+03  0.11649343974E+04  0.59970471277E+03 0.  0.
         23    2    4    4    0    0 -0.33172783141E+03  0.17468281926E+02  0.20300485150E+03  0.39964106391E+03  0.90296817347E+02 0.  0.
         23    2    4    4    0    0  0.57050869010E+02 -0.36054572059E+02  0.75701260870E+03  0.76529333350E+03  0.89727714503E+02 0.  0.
          3    1    3    3  502    0  0.14580369919E+03 -0.21523057767E+02  0.22582095101E+03  0.26966101429E+03  0.00000000000E+00 0. -1.
         -3    1    3    3    0  502  0.12887326321E+03  0.40109347900E+02  0.11140530539E+03  0.17500919927E+03  0.00000000000E+00 0.  1.
         11    1    5    5    0    0 -0.10478761482E+03  0.21827280022E+02  0.21880925458E+02  0.10925039712E+03  0.00000000000E+00 0. -1.
        -11    1    5    5    0    0 -0.22694021660E+03 -0.43589980966E+01  0.18112392604E+03  0.29039066679E+03  0.00000000000E+00 0.  1.
          3    1    6    6  503    0 -0.21877742521E+02 -0.59885225034E+01  0.84262291699E+02  0.87261857773E+02  0.00000000000E+00 0.  1.
         -3    1    6    6    0  503  0.78928611531E+02 -0.30066049555E+02  0.67275031700E+03  0.67803147573E+03  0.00000000000E+00 0. -1.
<mgrwt>
<rscale>  0 0.36175849E+03</rscale>
<asrwt>0</asrwt>
<pdfrwt beam="1">  1        2 0.22360371E+00 0.36175849E+03</pdfrwt>
<pdfrwt beam="2">  1       -2 0.24027762E-01 0.36175849E+03</pdfrwt>
<totfact> 0.21903678E+02</totfact>
</mgrwt>
</event>
<event>
12    1  0.1335216E-007  0.3185999E+03  0.7818608E-02  0.1076295E+00
          1   -1    0    0  501    0  0.00000000000E+00  0.00000000000E+00  0.83494618930E+03  0.83494618930E+03  0.00000000000E+00 0. -1.
         -1   -1    0    0    0  501 -0.00000000000E+00 -0.00000000000E+00 -0.15041591717E+03  0.15041591717E+03  0.00000000000E+00 0.  1.
         23    2    1    2    0    0  0.44264007730E+01  0.29732967550E+02  0.37095718672E+02  0.10213933395E+03  0.90292351907E+02 0.  0.
    5000000    2    1    2    0    0 -0.44264007730E+01 -0.29732967550E+02  0.64743455345E+03  0.88322277252E+03  0.60000610206E+03 0.  0.
         23    2    4    4    0    0 -0.42494745650E+02  0.25804235801E+03  0.19706047154E+03  0.33979853335E+03  0.90766468953E+02 0.  0.
         23    2    4    4    0    0  0.38068344877E+02 -0.28777532556E+03  0.45037408191E+03  0.54342423917E+03  0.90604929120E+02 0.  0.
          1    1    3    3  502    0 -0.35078705334E+02 -0.36559705438E+00 -0.69437688113E+01  0.35761224174E+02  0.00000000000E+00 0. -1.
         -1    1    3    3    0  502  0.39505106107E+02  0.30098564604E+02  0.44039487483E+02  0.66378109777E+02  0.00000000000E+00 0.  1.
         13    1    5    5    0    0 -0.13292864958E+02  0.95711363596E+02  0.21655598170E+02  0.99026917110E+02  0.00000000000E+00 0.  1.
        -13    1    5    5    0    0 -0.29201880692E+02  0.16233099441E+03  0.17540487337E+03  0.24077161624E+03  0.00000000000E+00 0. -1.
          4    1    6    6  503    0  0.38373311860E+02 -0.23505880499E+03  0.29378525762E+03  0.37819959077E+03  0.00000000000E+00 0.  1.
         -4    1    6    6    0  503 -0.30496698275E+00 -0.52716520569E+02  0.15658882429E+03  0.16522464840E+03  0.00000000000E+00 0. -1.
<mgrwt>
<rscale>  0 0.31859989E+03</rscale>
<asrwt>0</asrwt>
<pdfrwt beam="1">  1        1 0.12845326E+00 0.31859989E+03</pdfrwt>
<pdfrwt beam="2">  1       -1 0.23140911E-01 0.31859989E+03</pdfrwt>
<totfact> 0.34222272E+02</totfact>
</mgrwt>
</event>
<event>
12    1  0.1335216E-007  0.1136608E+04  0.7818608E-02  0.9170228E-01
          1   -1    0    0  501    0  0.00000000000E+00  0.00000000000E+00  0.19160170921E+04  0.19160170921E+04  0.00000000000E+00 0. -1.
         -1   -1    0    0    0  501 -0.00000000000E+00 -0.00000000000E+00 -0.69354238424E+03  0.69354238424E+03  0.00000000000E+00 0.  1.
         23    2    1    2    0    0 -0.24331645566E+03 -0.10396611103E+04  0.68519759662E+03  0.12721219089E+04  0.93275306554E+02 0.  0.
    5000000    2    1    2    0    0  0.24331645566E+03  0.10396611103E+04  0.53727711120E+03  0.13374375674E+04  0.59997869174E+03 0.  0.
         23    2    4    4    0    0  0.19922433161E+03  0.10881258212E+04  0.50878695605E+03  0.12211223538E+04  0.92560786220E+02 0.  0.
         23    2    4    4    0    0  0.44092124047E+02 -0.48464710889E+02  0.28490155148E+02  0.11631521362E+03  0.91785600041E+02 0.  0.
          4    1    3    3  502    0 -0.13159704510E+03 -0.42793069244E+03  0.32782319939E+03  0.55489684615E+03  0.00000000000E+00 0. -1.
         -4    1    3    3    0  502 -0.11171941056E+03 -0.61173041787E+03  0.35737439723E+03  0.71722506275E+03  0.00000000000E+00 0.  1.
         11    1    5    5    0    0  0.80188352443E+02  0.68249055107E+03  0.30512975948E+03  0.75188276632E+03  0.00000000000E+00 0. -1.
        -11    1    5    5    0    0  0.11903597917E+03  0.40563527013E+03  0.20365719657E+03  0.46923958745E+03  0.00000000000E+00 0.  1.
          3    1    6    6  503    0 -0.13500481636E+02  0.57160381037E+01  0.34025118236E+02  0.37049220869E+02  0.00000000000E+00 0. -1.
         -3    1    6    6    0  503  0.57592605682E+02 -0.54180748992E+02 -0.55349630880E+01  0.79265992752E+02  0.00000000000E+00 0.  1.
<mgrwt>
<rscale>  0 0.11366076E+04</rscale>
<asrwt>0</asrwt>
<pdfrwt beam="1">  1        1 0.29477186E+00 0.11366076E+04</pdfrwt>
<pdfrwt beam="2">  1       -1 0.10669883E+00 0.11366076E+04</pdfrwt>
<totfact> 0.27653844E+00</totfact>
</mgrwt>
</event>
<event>
12    1  0.1335216E-007  0.1403249E+04  0.7818608E-02  0.8951470E-01
          1   -1    0    0  501    0  0.00000000000E+00  0.00000000000E+00  0.15198969165E+04  0.15198969165E+04  0.00000000000E+00 0. -1.
         -1   -1    0    0    0  501 -0.00000000000E+00 -0.00000000000E+00 -0.14267707205E+04  0.14267707205E+04  0.00000000000E+00 0.  1.
         23    2    1    2    0    0 -0.44183288788E+03  0.12709224978E+04  0.46617173207E+03  0.14269013168E+04  0.90944972104E+02 0.  0.
    5000000    2    1    2    0    0  0.44183288788E+03 -0.12709224978E+04 -0.37304553612E+03  0.15197663201E+04  0.60005533036E+03 0.  0.
         23    2    4    4    0    0  0.74882058758E+02 -0.96835435594E+03 -0.15290646264E+03  0.98778474220E+03  0.94978045880E+02 0.  0.
         23    2    4    4    0    0  0.36695082912E+03 -0.30256814188E+03 -0.22013907349E+03  0.53198157793E+03  0.91338907998E+02 0.  0.
          3    1    3    3  502    0 -0.11020194756E+03  0.44710063991E+03  0.16532713043E+03  0.48926118946E+03  0.00000000000E+00 0. -1.
         -3    1    3    3    0  502 -0.33163094031E+03  0.82382185791E+03  0.30084460164E+03  0.93764012738E+03  0.00000000000E+00 0.  1.
         11    1    5    5    0    0  0.29477589710E+02 -0.65618897255E+02 -0.14278469891E+02  0.73339230119E+02  0.00000000000E+00 0. -1.
        -11    1    5    5    0    0  0.45404469048E+02 -0.90273545869E+03 -0.13862799275E+03  0.91444551208E+03  0.00000000000E+00 0.  1.
          2    1    6    6  503    0  0.15199475462E+03 -0.76402240951E+02 -0.53975837145E+02  0.17847436469E+03  0.00000000000E+00 0. -1.
         -2    1    6    6    0  503  0.21495607449E+03 -0.22616590092E+03 -0.16616323634E+03  0.35350721324E+03  0.00000000000E+00 0.  1.
<mgrwt>
<rscale>  0 0.14032491E+04</rscale>
<asrwt>0</asrwt>
<pdfrwt beam="1">  1        1 0.23383029E+00 0.14032491E+04</pdfrwt>
<pdfrwt beam="2">  1       -1 0.21950319E+00 0.14032491E+04</pdfrwt>
<totfact> 0.67218990E-01</totfact>
</mgrwt>
</event>
<event>
12    1  0.1335216E-007  0.7211001E+03  0.7818608E-02  0.9681813E-01
          2   -1    0    0  501    0  0.00000000000E+00  0.00000000000E+00  0.18824791514E+04  0.18824791514E+04  0.00000000000E+00 0. -1.
         -2   -1    0    0    0  501 -0.00000000000E+00 -0.00000000000E+00 -0.30114337369E+03  0.30114337369E+03  0.00000000000E+00 0.  1.
         23    2    1    2    0    0  0.23256881740E+03 -0.57532271780E+03  0.51373813110E+03  0.81088322578E+03  0.92305222286E+02 0.  0.
    5000000    2    1    2    0    0 -0.23256881740E+03  0.57532271780E+03  0.10675976466E+04  0.13727392993E+04  0.59963652687E+03 0.  0.
         23    2    4    4    0    0 -0.23078821951E+03  0.10040278815E+02  0.53052247619E+03  0.58730100765E+03  0.10052047744E+03 0.  0.
         23    2    4    4    0    0 -0.17805978929E+01  0.56528243899E+03  0.53707517037E+03  0.78543829161E+03  0.94425446485E+02 0.  0.
          2    1    3    3  502    0  0.12026514116E+03 -0.39787056138E+03  0.36923105356E+03  0.55596426028E+03  0.00000000000E+00 0. -1.
         -2    1    3    3    0  502  0.11230367624E+03 -0.17745215642E+03  0.14450707754E+03  0.25491896551E+03  0.00000000000E+00 0.  1.
         13    1    5    5    0    0 -0.99760577251E+02  0.52563779058E+02  0.26999412795E+03  0.29259520292E+03  0.00000000000E+00 0.  1.
        -13    1    5    5    0    0 -0.13102764226E+03 -0.42523500243E+02  0.26052834824E+03  0.29470580474E+03  0.00000000000E+00 0. -1.
          3    1    6    6  503    0 -0.15393591016E+02  0.32190587294E+03  0.24388527302E+03  0.40415390642E+03  0.00000000000E+00 0. -1.
         -3    1    6    6    0  503  0.13612993123E+02  0.24337656604E+03  0.29318989735E+03  0.38128438519E+03  0.00000000000E+00 0.  1.
<mgrwt>
<rscale>  0 0.72110013E+03</rscale>
<asrwt>0</asrwt>
<pdfrwt beam="1">  1        2 0.28961217E+00 0.72110013E+03</pdfrwt>
<pdfrwt beam="2">  1       -2 0.46329751E-01 0.72110013E+03</pdfrwt>
<totfact> 0.35441932E+01</totfact>
</mgrwt>
</event>
<event>
12    1  0.1335216E-007  0.9991664E+03  0.7818608E-02  0.9309460E-01
          1   -1    0    0  501    0  0.00000000000E+00  0.00000000000E+00  0.23812626317E+04  0.23812626317E+04  0.00000000000E+00 0. -1.
         -1   -1    0    0    0  501 -0.00000000000E+00 -0.00000000000E+00 -0.46951400370E+03  0.46951400370E+03  0.00000000000E+00 0.  1.
         23    2    1    2    0    0 -0.80887235144E+03 -0.43584142141E+03  0.46148330116E+03  0.10321865951E+04  0.90609626078E+02 0.  0.
    5000000    2    1    2    0    0  0.80887235144E+03  0.43584142141E+03  0.14502653268E+04  0.18185900403E+04  0.59980662786E+03 0.  0.
         23    2    4    4    0    0  0.67235977607E+03  0.56586063359E+03  0.12295732696E+04  0.15140655419E+04  0.90984145911E+02 0.  0.
         23    2    4    4    0    0  0.13651257537E+03 -0.13001921218E+03  0.22069205722E+03  0.30452449834E+03  0.92138521790E+02 0.  0.
          2    1    3    3  502    0 -0.62634870395E+03 -0.34598760185E+03  0.31683136345E+03  0.78256132823E+03  0.00000000000E+00 0. -1.
         -2    1    3    3    0  502 -0.18252364749E+03 -0.89853819554E+02  0.14465193771E+03  0.24962526688E+03  0.00000000000E+00 0.  1.
         11    1    5    5    0    0  0.12804822037E+03  0.81395322664E+02  0.26245512139E+03  0.30315711444E+03  0.00000000000E+00 0. -1.
        -11    1    5    5    0    0  0.54431155569E+03  0.48446531092E+03  0.96711814821E+03  0.12109084275E+04  0.00000000000E+00 0.  1.
          1    1    6    6  503    0 -0.25743186188E+01 -0.23735879470E+02  0.68592534221E+02  0.72628884347E+02  0.00000000000E+00 0. -1.
         -1    1    6    6    0  503  0.13908689399E+03 -0.10628333271E+03  0.15209952300E+03  0.23189561399E+03  0.00000000000E+00 0.  1.
<mgrwt>
<rscale>  0 0.99916639E+03</rscale>
<asrwt>0</asrwt>
<pdfrwt beam="1">  1        1 0.36634809E+00 0.99916639E+03</pdfrwt>
<pdfrwt beam="2">  1       -1 0.72232925E-01 0.99916639E+03</pdfrwt>
<totfact> 0.32186652E+00</totfact>
</mgrwt>
</event>
<event>
12    1  0.1335216E-007  0.8337691E+03  0.7818608E-02  0.9512384E-01
         -2   -1    0    0    0  501 -0.00000000000E+00  0.00000000000E+00  0.57590155706E+03  0.57590155706E+03  0.00000000000E+00 0. -1.
          2   -1    0    0  501    0  0.00000000000E+00 -0.00000000000E+00 -0.18600494232E+04  0.18600494232E+04  0.00000000000E+00 0.  1.
         23    2    1    2    0    0 -0.10005450927E+03 -0.76118899663E+03  0.60351591998E+02  0.77549280333E+03  0.91253383134E+02 0.  0.
    5000000    2    1    2    0    0  0.10005450927E+03  0.76118899663E+03 -0.13444994582E+04  0.16604581770E+04  0.60001914220E+03 0.  0.
         23    2    4    4    0    0 -0.45815375045E+02  0.71184431117E+03 -0.75112414408E+03  0.10403112081E+04  0.96117417179E+02 0.  0.
         23    2    4    4    0    0  0.14586988432E+03  0.49344685462E+02 -0.59337531410E+03  0.62014696890E+03  0.93675389056E+02 0.  0.
          2    1    3    3  502    0 -0.10856828705E+03 -0.51352130437E+03  0.53390992994E+02  0.52758108489E+03  0.00000000000E+00 0. -1.
         -2    1    3    3    0  502  0.85137777729E+01 -0.24766769226E+03  0.69605990040E+01  0.24791171844E+03  0.00000000000E+00 0.  1.
         13    1    5    5    0    0  0.78193089492E+01  0.15684493732E+03 -0.11650395436E+03  0.19553681837E+03  0.00000000000E+00 0. -1.
        -13    1    5    5    0    0 -0.53634683994E+02  0.55499937385E+03 -0.63462018972E+03  0.84477438971E+03  0.00000000000E+00 0.  1.
          3    1    6    6  503    0  0.58891635904E+02 -0.26729697545E+02 -0.21707186966E+03  0.22650143070E+03  0.00000000000E+00 0. -1.
         -3    1    6    6    0  503  0.86978248415E+02  0.76074383007E+02 -0.37630344444E+03  0.39364553820E+03  0.00000000000E+00 0.  1.
<mgrwt>
<rscale>  0 0.83376909E+03</rscale>
<asrwt>0</asrwt>
<pdfrwt beam="1">  1        2 0.28616145E+00 0.83376909E+03</pdfrwt>
<pdfrwt beam="2">  1       -2 0.88600239E-01 0.83376909E+03</pdfrwt>
<totfact> 0.89318274E+00</totfact>
</mgrwt>
</event>
<event>
12    1  0.1335216E-007  0.6670612E+03  0.7818608E-02  0.9775281E-01
         -2   -1    0    0    0  501 -0.00000000000E+00  0.00000000000E+00  0.43849708916E+03  0.43849708916E+03  0.00000000000E+00 0.  1.
          2   -1    0    0  501    0  0.00000000000E+00 -0.00000000000E+00 -0.12671915492E+04  0.12671915492E+04  0.00000000000E+00 0. -1.
         23    2    1    2    0    0 -0.35322220547E+03 -0.50814123063E+03 -0.29840742960E+03  0.69341326642E+03  0.93816455453E+02 0.  0.
    5000000    2    1    2    0    0  0.35322220547E+03  0.50814123063E+03 -0.53028703044E+03  0.10122753719E+04  0.60043622249E+03 0.  0.
         23    2    4    4    0    0  0.19713368055E+03  0.40417475658E+02 -0.45358787090E+03  0.50491384496E+03  0.93277938762E+02 0.  0.
         23    2    4    4    0    0  0.15608852492E+03  0.46772375497E+03 -0.76699159537E+02  0.50736152697E+03  0.91672348094E+02 0.  0.
          4    1    3    3  502    0 -0.28895225343E+03 -0.34178855205E+03 -0.21089034967E+03  0.49476010213E+03  0.00000000000E+00 0. -1.
         -4    1    3    3    0  502 -0.64269952033E+02 -0.16635267857E+03 -0.87517079924E+02  0.19865316429E+03  0.00000000000E+00 0.  1.
         13    1    5    5    0    0  0.85064704412E+02  0.56032825832E+02 -0.15369957167E+03  0.18438882786E+03  0.00000000000E+00 0.  1.
        -13    1    5    5    0    0  0.11206897614E+03 -0.15615350173E+02 -0.29988829923E+03  0.32052501710E+03  0.00000000000E+00 0. -1.
          3    1    6    6  503    0  0.53438125403E+02  0.14364490409E+03  0.18398682845E+02  0.15436321857E+03  0.00000000000E+00 0. -1.
         -3    1    6    6    0  503  0.10265039952E+03  0.32407885088E+03 -0.95097842383E+02  0.35299830840E+03  0.00000000000E+00 0.  1.
<mgrwt>
<rscale>  0 0.66706121E+03</rscale>
<asrwt>0</asrwt>
<pdfrwt beam="1">  1        2 0.19495254E+00 0.66706121E+03</pdfrwt>
<pdfrwt beam="2">  1       -2 0.67461091E-01 0.66706121E+03</pdfrwt>
<totfact> 0.35810654E+01</totfact>
</mgrwt>
</event>
<event>
12    1  0.2805294E-007  0.1287950E+04  0.7818608E-02  0.9039176E-01
         -1   -1    0    0    0  501 -0.00000000000E+00  0.00000000000E+00  0.91614984802E+03  0.91614984802E+03  0.00000000000E+00 0.  1.
          1   -1    0    0  501    0  0.00000000000E+00 -0.00000000000E+00 -0.20942860870E+04  0.20942860870E+04  0.00000000000E+00 0. -1.
         23    2    1    2    0    0  0.11671455947E+04  0.48387139413E+03 -0.97150601092E+03  0.15965320649E+04  0.93436287255E+02 0.  0.
    5000000    2    1    2    0    0 -0.11671455947E+04 -0.48387139413E+03 -0.20663022807E+03  0.14139038701E+04  0.60005644508E+03 0.  0.
         23    2    4    4    0    0 -0.19728189632E+03  0.30605399299E+02  0.14079671542E+03  0.25876847717E+03  0.85326271599E+02 0.  0.
         23    2    4    4    0    0 -0.96986369843E+03 -0.51447679343E+03 -0.34742694349E+03  0.11551353929E+04  0.91161013490E+02 0.  0.
          3    1    3    3  502    0  0.54695862408E+03  0.21444577569E+03 -0.39488367472E+03  0.70787275956E+03  0.00000000000E+00 0. -1.
         -3    1    3    3    0  502  0.62018697066E+03  0.26942561843E+03 -0.57662233620E+03  0.88865930539E+03  0.00000000000E+00 0.  1.
         11    1    5    5    0    0 -0.16514541124E+03 -0.23300337644E+01  0.82861852683E+02  0.18478236534E+03  0.00000000000E+00 0. -1.
        -11    1    5    5    0    0 -0.32136485081E+02  0.32935433063E+02  0.57934862734E+02  0.73986111835E+02  0.00000000000E+00 0.  1.
          4    1    6    6  503    0 -0.40868950865E+03 -0.17044149120E+03 -0.12097880616E+03  0.45903517070E+03  0.00000000000E+00 0. -1.
         -4    1    6    6    0  503 -0.56117418978E+03 -0.34403530223E+03 -0.22644813733E+03  0.69610022220E+03  0.00000000000E+00 0.  1.
<mgrwt>
<rscale>  0 0.12879496E+04</rscale>
<asrwt>0</asrwt>
<pdfrwt beam="1">  1        1 0.32219786E+00 0.12879496E+04</pdfrwt>
<pdfrwt beam="2">  1       -1 0.14094613E+00 0.12879496E+04</pdfrwt>
<totfact> 0.10305563E+00</totfact>
</mgrwt>
</event>
<event>
12    1  0.1335216E-007  0.7292872E+03  0.7818608E-02  0.9668418E-01
         -2   -1    0    0    0  501 -0.00000000000E+00  0.00000000000E+00  0.64303328966E+03  0.64303328966E+03  0.00000000000E+00 0. -1.
          2   -1    0    0  501    0  0.00000000000E+00 -0.00000000000E+00 -0.96701526311E+03  0.96701526311E+03  0.00000000000E+00 0.  1.
         23    2    1    2    0    0 -0.24986709849E+03  0.62125165583E+03 -0.98206191115E+02  0.68294995772E+03  0.91591495222E+02 0.  0.
    5000000    2    1    2    0    0  0.24986709849E+03 -0.62125165583E+03 -0.22577578234E+03  0.92709859504E+03  0.60012491555E+03 0.  0.
         23    2    4    4    0    0  0.35001785356E+03 -0.54180443622E+03  0.49915835209E+00  0.65141632466E+03  0.90985899756E+02 0.  0.
         23    2    4    4    0    0 -0.10015075508E+03 -0.79447219610E+02 -0.22627494069E+03  0.27568227039E+03  0.91969184926E+02 0.  0.
          1    1    3    3  502    0 -0.25022566676E+02  0.95181528667E+02  0.15572317888E+02  0.99640098990E+02  0.00000000000E+00 0. -1.
         -1    1    3    3    0  502 -0.22484453181E+03  0.52607012716E+03 -0.11377850900E+03  0.58330985873E+03  0.00000000000E+00 0.  1.
         13    1    5    5    0    0  0.21263801578E+03 -0.38110819471E+03  0.32360466108E+02  0.43761350710E+03  0.00000000000E+00 0. -1.
        -13    1    5    5    0    0  0.13737983778E+03 -0.16069624151E+03 -0.31861307756E+02  0.21380281756E+03  0.00000000000E+00 0.  1.
          2    1    6    6  503    0 -0.49935677463E+02 -0.46762679539E+01 -0.26912861088E+02  0.56918726775E+02  0.00000000000E+00 0. -1.
         -2    1    6    6    0  503 -0.50215077612E+02 -0.74770951656E+02 -0.19936207960E+03  0.21876354361E+03  0.00000000000E+00 0.  1.
<mgrwt>
<rscale>  0 0.72928718E+03</rscale>
<asrwt>0</asrwt>
<pdfrwt beam="1">  1        2 0.14877158E+00 0.72928718E+03</pdfrwt>
<pdfrwt beam="2">  1       -2 0.98928199E-01 0.72928718E+03</pdfrwt>
<totfact> 0.22828407E+01</totfact>
</mgrwt>
</event>
<event>
12    1  0.1335216E-007  0.1237620E+04  0.7818608E-02  0.9080550E-01
          1   -1    0    0  501    0  0.00000000000E+00  0.00000000000E+00  0.24530753122E+04  0.24530753122E+04  0.00000000000E+00 0. -1.
         -1   -1    0    0    0  501 -0.00000000000E+00 -0.00000000000E+00 -0.98846229868E+03  0.98846229868E+03  0.00000000000E+00 0.  1.
         23    2    1    2    0    0 -0.11469366531E+04  0.32441341432E+03  0.17080957346E+04  0.20849082216E+04  0.92431078735E+02 0.  0.
    5000000    2    1    2    0    0  0.11469366531E+04 -0.32441341432E+03 -0.24348272103E+03  0.13566293893E+04  0.60037631121E+03 0.  0.
         23    2    4    4    0    0  0.37564961231E+03 -0.33134379711E+03 -0.27685333132E+03  0.57982893648E+03  0.93018736857E+02 0.  0.
         23    2    4    4    0    0  0.77128704075E+03  0.69303827919E+01  0.33370610284E+02  0.77680045286E+03  0.85869764744E+02 0.  0.
          4    1    3    3  502    0 -0.10493243937E+04  0.26912645280E+03  0.15529724054E+04  0.18934714212E+04  0.00000000000E+00 0. -1.
         -4    1    3    3    0  502 -0.97612259327E+02  0.55286961522E+02  0.15512332918E+03  0.19143680039E+03  0.00000000000E+00 0.  1.
         11    1    5    5    0    0  0.72948584669E+02 -0.11568049967E+03 -0.58349864502E+02  0.14868819959E+03  0.00000000000E+00 0.  1.
        -11    1    5    5    0    0  0.30270102764E+03 -0.21566329744E+03 -0.21850346682E+03  0.43114073689E+03  0.00000000000E+00 0. -1.
          2    1    6    6  503    0  0.36741800836E+03  0.62587710284E+01  0.58732639154E+02  0.37213530870E+03  0.00000000000E+00 0.  1.
         -2    1    6    6    0  503  0.40386903239E+03  0.67161176349E+00 -0.25362028870E+02  0.40466514416E+03  0.00000000000E+00 0. -1.
<mgrwt>
<rscale>  0 0.12376203E+04</rscale>
<asrwt>0</asrwt>
<pdfrwt beam="1">  1        1 0.37739620E+00 0.12376203E+04</pdfrwt>
<pdfrwt beam="2">  1       -1 0.15207112E+00 0.12376203E+04</pdfrwt>
<totfact> 0.48156268E-01</totfact>
</mgrwt>
</event>
<event>
12    1  0.1335216E-007  0.5073253E+03  0.7818608E-02  0.1011884E+00
         -2   -1    0    0    0  501 -0.00000000000E+00  0.00000000000E+00  0.46276091544E+03  0.46276091544E+03  0.00000000000E+00 0.  1.
          2   -1    0    0  501    0  0.00000000000E+00 -0.00000000000E+00 -0.88416754702E+03  0.88416754702E+03  0.00000000000E+00 0. -1.
         23    2    1    2    0    0  0.86724548447E+02 -0.45622229295E+03  0.12098397512E+02  0.47314525295E+03  0.89778233893E+02 0.  0.
    5000000    2    1    2    0    0 -0.86724548447E+02  0.45622229295E+03 -0.43350502909E+03  0.87378320951E+03  0.59992546128E+03 0.  0.
         23    2    4    4    0    0 -0.90019646715E+02  0.14783072542E+02 -0.40131335983E+03  0.42182336745E+03  0.92522778426E+02 0.  0.
         23    2    4    4    0    0  0.32950982672E+01  0.44143922041E+03 -0.32191669265E+02  0.45195984206E+03  0.91389016186E+02 0.  0.
          2    1    3    3  502    0  0.76471657387E+02 -0.18135138225E+03 -0.10947231539E+02  0.19711945644E+03  0.00000000000E+00 0. -1.
         -2    1    3    3    0  502  0.10252891061E+02 -0.27487091069E+03  0.23045629050E+02  0.27602579651E+03  0.00000000000E+00 0.  1.
         11    1    5    5    0    0 -0.68104244515E+02  0.16601347749E+02 -0.39152825017E+03  0.39775389822E+03  0.00000000000E+00 0. -1.
        -11    1    5    5    0    0 -0.21915402200E+02 -0.18182752068E+01 -0.97851096577E+01  0.24069469237E+02  0.00000000000E+00 0.  1.
          3    1    6    6  503    0  0.40374121049E+02  0.34513476793E+03 -0.20294461315E+02  0.34808036837E+03  0.00000000000E+00 0. -1.
         -3    1    6    6    0  503 -0.37079022781E+02  0.96304452480E+02 -0.11897207950E+02  0.10387947369E+03  0.00000000000E+00 0.  1.
<mgrwt>
<rscale>  0 0.50732532E+03</rscale>
<asrwt>0</asrwt>
<pdfrwt beam="1">  1        2 0.13602578E+00 0.50732532E+03</pdfrwt>
<pdfrwt beam="2">  1       -2 0.71193987E-01 0.50732532E+03</pdfrwt>
<totfact> 0.55915521E+01</totfact>
</mgrwt>
</event>
<event>
12    1  0.1335216E-007  0.7541037E+03  0.7818608E-02  0.9628934E-01
         -1   -1    0    0    0  501 -0.00000000000E+00  0.00000000000E+00  0.38702273768E+03  0.38702273768E+03  0.00000000000E+00 0.  1.
          1   -1    0    0  501    0  0.00000000000E+00 -0.00000000000E+00 -0.20963164852E+04  0.20963164852E+04  0.00000000000E+00 0. -1.
         23    2    1    2    0    0 -0.20899720307E+02 -0.65227038803E+03 -0.13960114754E+04  0.15430990050E+04  0.80081473261E+02 0.  0.
    5000000    2    1    2    0    0  0.20899720307E+02  0.65227038803E+03 -0.31328227207E+03  0.94024021784E+03  0.60001035645E+03 0.  0.
         23    2    4    4    0    0  0.20664096661E+03  0.62193328635E+03 -0.30851335386E+03  0.72996446459E+03  0.90366632682E+02 0.  0.
         23    2    4    4    0    0 -0.18574124630E+03  0.30337101678E+02 -0.47689182099E+01  0.21027575326E+03  0.93664291550E+02 0.  0.
          4    1    3    3  502    0 -0.12661256882E+02 -0.54594295188E+03 -0.12301052545E+04  0.13458725613E+04  0.00000000000E+00 0.  1.
         -4    1    3    3    0  502 -0.82384634247E+01 -0.10632743614E+03 -0.16590622095E+03  0.19722644373E+03  0.00000000000E+00 0. -1.
         13    1    5    5    0    0  0.55036902974E+02  0.30259554005E+03 -0.12929876032E+03  0.33363346800E+03  0.00000000000E+00 0.  1.
        -13    1    5    5    0    0  0.15160406363E+03  0.31933774629E+03 -0.17921459354E+03  0.39633099658E+03  0.00000000000E+00 0. -1.
          2    1    6    6  503    0 -0.12037865048E+03 -0.42718781454E+01 -0.41880231890E+02  0.12752733926E+03  0.00000000000E+00 0. -1.
         -2    1    6    6    0  503 -0.65362595818E+02  0.34608979824E+02  0.37111313680E+02  0.82748414001E+02  0.00000000000E+00 0.  1.
<mgrwt>
<rscale>  0 0.75410370E+03</rscale>
<asrwt>0</asrwt>
<pdfrwt beam="1">  1        1 0.32251024E+00 0.75410370E+03</pdfrwt>
<pdfrwt beam="2">  1       -1 0.59541958E-01 0.75410370E+03</pdfrwt>
<totfact> 0.76841010E+00</totfact>
</mgrwt>
</event>
<event>
12    1  0.1335216E-007  0.6662594E+03  0.7818608E-02  0.9776739E-01
          1   -1    0    0  501    0  0.00000000000E+00  0.00000000000E+00  0.15762597761E+04  0.15762597761E+04  0.00000000000E+00 0. -1.
         -1   -1    0    0    0  501 -0.00000000000E+00 -0.00000000000E+00 -0.46977323638E+03  0.46977323638E+03  0.00000000000E+00 0.  1.
         23    2    1    2    0    0 -0.56390079814E+03  0.84326821384E+02 -0.96808372276E+02  0.58555110350E+03  0.91668483794E+02 0.  0.
    5000000    2    1    2    0    0  0.56390079814E+03 -0.84326821384E+02  0.12032949120E+04  0.14604819090E+04  0.59999469854E+03 0.  0.
         23    2    4    4    0    0  0.34359325758E+03 -0.29532248261E+03  0.94051345233E+03  0.10480507310E+04  0.92590956858E+02 0.  0.
         23    2    4    4    0    0  0.22030754056E+03  0.21099566122E+03  0.26278145967E+03  0.41243117801E+03  0.89391272319E+02 0.  0.
          1    1    3    3  502    0 -0.16963766051E+03  0.43335879338E+02 -0.68991068626E+02  0.18818794289E+03  0.00000000000E+00 0. -1.
         -1    1    3    3    0  502 -0.39426313763E+03  0.40990942047E+02 -0.27817303651E+02  0.39736316061E+03  0.00000000000E+00 0.  1.
         11    1    5    5    0    0  0.12367035239E+03 -0.12758584979E+03  0.27572793438E+03  0.32802194885E+03  0.00000000000E+00 0. -1.
        -11    1    5    5    0    0  0.21992290519E+03 -0.16773663282E+03  0.66478551795E+03  0.72002878213E+03  0.00000000000E+00 0.  1.
          4    1    6    6  503    0  0.41424165591E+02  0.58652790794E+02  0.19932848364E+02  0.74521337929E+02  0.00000000000E+00 0.  1.
         -4    1    6    6    0  503  0.17888337497E+03  0.15234287043E+03  0.24284861131E+03  0.33790984008E+03  0.00000000000E+00 0. -1.
<mgrwt>
<rscale>  0 0.66625937E+03</rscale>
<asrwt>0</asrwt>
<pdfrwt beam="1">  1        1 0.24250150E+00 0.66625937E+03</pdfrwt>
<pdfrwt beam="2">  1       -1 0.72272806E-01 0.66625937E+03</pdfrwt>
<totfact> 0.11777290E+01</totfact>
</mgrwt>
</event>
<event>
12    1  0.1335216E-007  0.9461004E+03  0.7818608E-02  0.9369720E-01
          1   -1    0    0  501    0  0.00000000000E+00  0.00000000000E+00  0.14604907082E+04  0.14604907082E+04  0.00000000000E+00 0. -1.
         -1   -1    0    0    0  501 -0.00000000000E+00 -0.00000000000E+00 -0.22148583139E+04  0.22148583139E+04  0.00000000000E+00 0.  1.
         23    2    1    2    0    0  0.52066424576E+03 -0.73701386391E+03 -0.18955151142E+04  0.21018324809E+04  0.10218383974E+03 0.  0.
    5000000    2    1    2    0    0 -0.52066424576E+03  0.73701386391E+03  0.11411475084E+04  0.15735165413E+04  0.59954647624E+03 0.  0.
         23    2    4    4    0    0 -0.26931770970E+03  0.10180791252E+03  0.88153363031E+02  0.31496684493E+03  0.92391656422E+02 0.  0.
         23    2    4    4    0    0 -0.25134653606E+03  0.63520595138E+03  0.10529941454E+04  0.12585496963E+04  0.92135693378E+02 0.  0.
          4    1    3    3  502    0  0.28779663872E+03 -0.32267731085E+03 -0.93698467220E+03  0.10319340232E+04  0.00000000000E+00 0. -1.
         -4    1    3    3    0  502  0.23286760705E+03 -0.41433655305E+03 -0.95853044198E+03  0.10698984577E+04  0.00000000000E+00 0.  1.
         13    1    5    5    0    0 -0.78067799953E+02  0.66502834037E+02  0.58995913197E+02  0.11831198628E+03  0.00000000000E+00 0. -1.
        -13    1    5    5    0    0 -0.19124990975E+03  0.35305078486E+02  0.29157449834E+02  0.19665485864E+03  0.00000000000E+00 0.  1.
          1    1    6    6  503    0 -0.11016571218E+03  0.38230129349E+03  0.56390891417E+03  0.69013333975E+03  0.00000000000E+00 0. -1.
         -1    1    6    6    0  503 -0.14118082388E+03  0.25290465789E+03  0.48908523123E+03  0.56841635658E+03  0.00000000000E+00 0.  1.
<mgrwt>
<rscale>  0 0.94610045E+03</rscale>
<asrwt>0</asrwt>
<pdfrwt beam="1">  1        1 0.22469088E+00 0.94610045E+03</pdfrwt>
<pdfrwt beam="2">  1       -1 0.34074743E+00 0.94610045E+03</pdfrwt>
<totfact> 0.12879924E-01</totfact>
</mgrwt>
</event>
<event>
12    1  0.1335216E-007  0.4817194E+03  0.7818608E-02  0.1018664E+00
         -1   -1    0    0    0  501 -0.00000000000E+00  0.00000000000E+00  0.51422901323E+03  0.51422901323E+03  0.00000000000E+00 0.  1.
          1   -1    0    0  501    0  0.00000000000E+00 -0.00000000000E+00 -0.79511554952E+03  0.79511554952E+03  0.00000000000E+00 0. -1.
         23    2    1    2    0    0 -0.26097303447E+03  0.24546620328E+03  0.23728626456E+03  0.43928320624E+03  0.91128383407E+02 0.  0.
    5000000    2    1    2    0    0  0.26097303447E+03 -0.24546620328E+03 -0.51817280085E+03  0.87006135650E+03  0.60011926387E+03 0.  0.
         23    2    4    4    0    0  0.35091791610E+02 -0.33463720812E+03 -0.76340590695E+02  0.35767672730E+03  0.94293481055E+02 0.  0.
         23    2    4    4    0    0  0.22588124286E+03  0.89171004838E+02 -0.44183221015E+03  0.51238462920E+03  0.91370139157E+02 0.  0.
          4    1    3    3  502    0 -0.91575882156E+02  0.44212980444E+02  0.35361713052E+02  0.10766327406E+03  0.00000000000E+00 0. -1.
         -4    1    3    3    0  502 -0.16939715232E+03  0.20125322284E+03  0.20192455151E+03  0.33161993218E+03  0.00000000000E+00 0.  1.
         13    1    5    5    0    0  0.64915111995E+02 -0.23807313695E+03 -0.38447563867E+02  0.24974187768E+03  0.00000000000E+00 0.  1.
        -13    1    5    5    0    0 -0.29823320385E+02 -0.96564071176E+02 -0.37893026828E+02  0.10793484962E+03  0.00000000000E+00 0. -1.
          1    1    6    6  503    0  0.16289590275E+03  0.32437167555E+02 -0.34998538431E+03  0.38739774677E+03  0.00000000000E+00 0. -1.
         -1    1    6    6    0  503  0.62985340107E+02  0.56733837283E+02 -0.91846825842E+02  0.12498688243E+03  0.00000000000E+00 0.  1.
<mgrwt>
<rscale>  0 0.48171943E+03</rscale>
<asrwt>0</asrwt>
<pdfrwt beam="1">  1        1 0.12232547E+00 0.48171943E+03</pdfrwt>
<pdfrwt beam="2">  1       -1 0.79112156E-01 0.48171943E+03</pdfrwt>
<totfact> 0.37785255E+01</totfact>
</mgrwt>
</event>
<event>
12    1  0.1335216E-007  0.1215577E+04  0.7818608E-02  0.9099330E-01
         -2   -1    0    0    0  501 -0.00000000000E+00  0.00000000000E+00  0.77478270357E+03  0.77478270357E+03  0.00000000000E+00 0.  1.
          2   -1    0    0  501    0  0.00000000000E+00 -0.00000000000E+00 -0.21865748132E+04  0.21865748132E+04  0.00000000000E+00 0. -1.
         23    2    1    2    0    0 -0.79744467924E+03  0.90350326263E+03 -0.95313405792E+03  0.15391538648E+04  0.91070990315E+02 0.  0.
    5000000    2    1    2    0    0  0.79744467924E+03 -0.90350326263E+03 -0.45865805166E+03  0.14222036519E+04  0.60004987879E+03 0.  0.
         23    2    4    4    0    0  0.10957470625E+03 -0.12501405511E+03  0.12358850947E+03  0.22750856540E+03  0.94079208293E+02 0.  0.
         23    2    4    4    0    0  0.68786997299E+03 -0.77848920753E+03 -0.58224656113E+03  0.11946950865E+04  0.95261459815E+02 0.  0.
          4    1    3    3  502    0 -0.33276199637E+03  0.38556425638E+03 -0.34637151959E+03  0.61592497238E+03  0.00000000000E+00 0. -1.
         -4    1    3    3    0  502 -0.46468268287E+03  0.51793900625E+03 -0.60676253833E+03  0.92322889246E+03  0.00000000000E+00 0.  1.
         13    1    5    5    0    0  0.71992735257E-01 -0.57795745829E+02  0.62861388248E+02  0.85392666847E+02  0.00000000000E+00 0. -1.
        -13    1    5    5    0    0  0.10950271352E+03 -0.67218309276E+02  0.60727121227E+02  0.14211589855E+03  0.00000000000E+00 0.  1.
          2    1    6    6  503    0  0.45500959458E+03 -0.54498017886E+03 -0.44226411558E+03  0.83644167426E+03  0.00000000000E+00 0. -1.
         -2    1    6    6    0  503  0.23286037841E+03 -0.23350902867E+03 -0.13998244555E+03  0.35825341221E+03  0.00000000000E+00 0.  1.
<mgrwt>
<rscale>  0 0.12155774E+04</rscale>
<asrwt>0</asrwt>
<pdfrwt beam="1">  1        2 0.33639612E+00 0.12155774E+04</pdfrwt>
<pdfrwt beam="2">  1       -2 0.11919734E+00 0.12155774E+04</pdfrwt>
<totfact> 0.27690712E+00</totfact>
</mgrwt>
</event>
<event>
12    1  0.1335216E-007  0.6609199E+03  0.7818608E-02  0.9786502E-01
          1   -1    0    0  501    0  0.00000000000E+00  0.00000000000E+00  0.17015392861E+04  0.17015392861E+04  0.00000000000E+00 0. -1.
         -1   -1    0    0    0  501 -0.00000000000E+00 -0.00000000000E+00 -0.30205675192E+03  0.30205675192E+03  0.00000000000E+00 0.  1.
         23    2    1    2    0    0  0.53630498044E+03 -0.23923285249E+03  0.60976388945E+03  0.85103021401E+03  0.87092103756E+02 0.  0.
    5000000    2    1    2    0    0 -0.53630498044E+03  0.23923285249E+03  0.78971864477E+03  0.11525658240E+04  0.59991420312E+03 0.  0.
         23    2    4    4    0    0 -0.32415218637E+03  0.36329015609E+03  0.25193310612E+03  0.55596598331E+03  0.92593235147E+02 0.  0.
         23    2    4    4    0    0 -0.21215279407E+03 -0.12405730360E+03  0.53778553865E+03  0.59659984074E+03  0.79492526577E+02 0.  0.
          2    1    3    3  502    0  0.43617939698E+03 -0.17617374767E+03  0.44016269240E+03  0.64423043354E+03  0.00000000000E+00 0. -1.
         -2    1    3    3    0  502  0.10012558345E+03 -0.63059104820E+02  0.16960119705E+03  0.20679978047E+03  0.00000000000E+00 0.  1.
         11    1    5    5    0    0 -0.21265874884E+03  0.24081026104E+03  0.11555721502E+03  0.34141879741E+03  0.00000000000E+00 0.  1.
        -11    1    5    5    0    0 -0.11149343753E+03  0.12247989505E+03  0.13637589110E+03  0.21454718590E+03  0.00000000000E+00 0. -1.
          3    1    6    6  503    0 -0.35797841249E+01 -0.46477511964E+01  0.74084337953E+02  0.74316253777E+02  0.00000000000E+00 0. -1.
         -3    1    6    6    0  503 -0.20857300994E+03 -0.11940955240E+03  0.46370120069E+03  0.52228358696E+03  0.00000000000E+00 0.  1.
<mgrwt>
<rscale>  0 0.66091990E+03</rscale>
<asrwt>0</asrwt>
<pdfrwt beam="1">  1        1 0.26177527E+00 0.66091990E+03</pdfrwt>
<pdfrwt beam="2">  1       -1 0.46470270E-01 0.66091990E+03</pdfrwt>
<totfact> 0.23003078E+01</totfact>
</mgrwt>
</event>
<event>
12    1  0.1335216E-007  0.1212944E+04  0.7818608E-02  0.9101601E-01
          2   -1    0    0  501    0  0.00000000000E+00  0.00000000000E+00  0.25788450344E+04  0.25788450344E+04  0.00000000000E+00 0. -1.
         -2   -1    0    0    0  501 -0.00000000000E+00 -0.00000000000E+00 -0.59616345153E+03  0.59616345153E+03  0.00000000000E+00 0.  1.
         23    2    1    2    0    0  0.47722236934E+03  0.10504569161E+04  0.11456137356E+04  0.16284729117E+04  0.91061905780E+02 0.  0.
    5000000    2    1    2    0    0 -0.47722236934E+03 -0.10504569161E+04  0.83706784728E+03  0.15465355742E+04  0.59990730861E+03 0.  0.
         23    2    4    4    0    0 -0.35928235799E+03 -0.10595795628E+04  0.83149503055E+03  0.13970735470E+04  0.92940019287E+02 0.  0.
         23    2    4    4    0    0 -0.11794001135E+03  0.91226467151E+01  0.55728167304E+01  0.14946202720E+03  0.91185373435E+02 0.  0.
          4    1    3    3  502    0  0.40090906985E+03  0.79939184102E+03  0.86219695428E+03  0.12422314542E+04  0.00000000000E+00 0.  1.
         -4    1    3    3    0  502  0.76313299487E+02  0.25106507509E+03  0.28341678131E+03  0.38624145756E+03  0.00000000000E+00 0. -1.
         13    1    5    5    0    0 -0.11829115582E+02 -0.11399000108E+03  0.70565212680E+02  0.13458490837E+03  0.00000000000E+00 0. -1.
        -13    1    5    5    0    0 -0.34745324241E+03 -0.94558956175E+03  0.76092981787E+03  0.12624886386E+04  0.00000000000E+00 0.  1.
          3    1    6    6  503    0 -0.70130508039E+02 -0.38247187497E+02 -0.96396328993E+01  0.80461531378E+02  0.00000000000E+00 0. -1.
         -3    1    6    6    0  503 -0.47809503308E+02  0.47369834212E+02  0.15212449630E+02  0.69000495821E+02  0.00000000000E+00 0.  1.
<mgrwt>
<rscale>  0 0.12129442E+04</rscale>
<asrwt>0</asrwt>
<pdfrwt beam="1">  1        2 0.39674538E+00 0.12129442E+04</pdfrwt>
<pdfrwt beam="2">  1       -2 0.91717455E-01 0.12129442E+04</pdfrwt>
<totfact> 0.31171531E+00</totfact>
</mgrwt>
</event>
<event>
12    1  0.1335216E-007  0.7216268E+03  0.7818608E-02  0.9680946E-01
         -2   -1    0    0    0  501 -0.00000000000E+00  0.00000000000E+00  0.94620635420E+03  0.94620635420E+03  0.00000000000E+00 0.  1.
          2   -1    0    0  501    0  0.00000000000E+00 -0.00000000000E+00 -0.66538299632E+03  0.66538299632E+03  0.00000000000E+00 0. -1.
         23    2    1    2    0    0 -0.34545810387E+03 -0.50129555750E+03  0.42035830264E+03  0.74547021760E+03  0.91576226322E+02 0.  0.
    5000000    2    1    2    0    0  0.34545810387E+03  0.50129555750E+03 -0.13953494477E+03  0.86611913291E+03  0.60004484339E+03 0.  0.
         23    2    4    4    0    0  0.56383746161E+02  0.52733748426E+03 -0.19858234066E+02  0.53789791942E+03  0.87612060375E+02 0.  0.
         23    2    4    4    0    0  0.28907435771E+03 -0.26041926754E+02 -0.11967671070E+03  0.32822121349E+03  0.95731309757E+02 0.  0.
          1    1    3    3  502    0 -0.98729224551E+02 -0.16127635690E+03  0.18201477681E+03  0.26246314418E+03  0.00000000000E+00 0. -1.
         -1    1    3    3    0  502 -0.24672887932E+03 -0.34001920061E+03  0.23834352584E+03  0.48300707343E+03  0.00000000000E+00 0.  1.
         11    1    5    5    0    0  0.50453406858E+02  0.48012892792E+03 -0.43574718908E+02  0.48473507178E+03  0.00000000000E+00 0.  1.
        -11    1    5    5    0    0  0.59303393022E+01  0.47208556341E+02  0.23716484842E+02  0.53162847641E+02  0.00000000000E+00 0. -1.
          4    1    6    6  503    0  0.21943159140E+03  0.19800886487E+02 -0.70041002785E+02  0.23118832255E+03  0.00000000000E+00 0. -1.
         -4    1    6    6    0  503  0.69642766306E+02 -0.45842813240E+02 -0.49635707917E+02  0.97032890944E+02  0.00000000000E+00 0.  1.
<mgrwt>
<rscale>  0 0.72162680E+03</rscale>
<asrwt>0</asrwt>
<pdfrwt beam="1">  1        2 0.10236662E+00 0.72162680E+03</pdfrwt>
<pdfrwt beam="2">  1       -2 0.14557021E+00 0.72162680E+03</pdfrwt>
<totfact> 0.14412956E+01</totfact>
</mgrwt>
</event>
<event>
12    1  0.1335216E-007  0.9600615E+03  0.7818608E-02  0.9353467E-01
         -1   -1    0    0    0  501 -0.00000000000E+00  0.00000000000E+00  0.52661456414E+03  0.52661456414E+03  0.00000000000E+00 0.  1.
          1   -1    0    0  501    0  0.00000000000E+00 -0.00000000000E+00 -0.21730686985E+04  0.21730686985E+04  0.00000000000E+00 0. -1.
         23    2    1    2    0    0  0.77800016127E+03  0.52758273435E+03 -0.39538589186E+03  0.10237239567E+04  0.89738194638E+02 0.  0.
    5000000    2    1    2    0    0 -0.77800016127E+03 -0.52758273435E+03 -0.12510682425E+04  0.16759593059E+04  0.60003337838E+03 0.  0.
         23    2    4    4    0    0 -0.42956148321E+03 -0.44019826143E+03 -0.11243451737E+04  0.12848387763E+04  0.91438691512E+02 0.  0.
         23    2    4    4    0    0 -0.34843867806E+03 -0.87384472925E+02 -0.12672306882E+03  0.39112052961E+03  0.88718510086E+02 0.  0.
          1    1    3    3  502    0  0.17423987223E+03  0.13183395506E+03 -0.53459993308E+02  0.22493931552E+03  0.00000000000E+00 0. -1.
         -1    1    3    3    0  502  0.60376028904E+03  0.39574877929E+03 -0.34192589856E+03  0.79878464121E+03  0.00000000000E+00 0.  1.
         11    1    5    5    0    0 -0.21073362093E+03 -0.27423860418E+03 -0.58482340960E+03  0.67943645135E+03  0.00000000000E+00 0.  1.
        -11    1    5    5    0    0 -0.21882786228E+03 -0.16595965725E+03 -0.53952176406E+03  0.60540232494E+03  0.00000000000E+00 0. -1.
          4    1    6    6  503    0 -0.19930743366E+03 -0.50185856648E+02 -0.25551704895E+02  0.20711099184E+03  0.00000000000E+00 0. -1.
         -4    1    6    6    0  503 -0.14913124440E+03 -0.37198616277E+02 -0.10117136392E+03  0.18400953777E+03  0.00000000000E+00 0.  1.
<mgrwt>
<rscale>  0 0.96006151E+03</rscale>
<asrwt>0</asrwt>
<pdfrwt beam="1">  1        1 0.33431827E+00 0.96006151E+03</pdfrwt>
<pdfrwt beam="2">  1       -1 0.81017624E-01 0.96006151E+03</pdfrwt>
<totfact> 0.35175964E+00</totfact>
</mgrwt>
</event>
<event>
12    1  0.1335216E-007  0.2570128E+04  0.7818608E-02  0.8378419E-01
          1   -1    0    0  501    0  0.00000000000E+00  0.00000000000E+00  0.36683185705E+04  0.36683185705E+04  0.00000000000E+00 0. -1.
         -1   -1    0    0    0  501 -0.00000000000E+00 -0.00000000000E+00 -0.18612569950E+04  0.18612569950E+04  0.00000000000E+00 0.  1.
         23    2    1    2    0    0 -0.12066430567E+04  0.22537931890E+04  0.54233556759E+03  0.26149390756E+04  0.90594128524E+02 0.  0.
    5000000    2    1    2    0    0  0.12066430567E+04 -0.22537931890E+04  0.12647260079E+04  0.29146364900E+04  0.60000232393E+03 0.  0.
         23    2    4    4    0    0  0.70951257525E+03 -0.97591852019E+03  0.85146439343E+03  0.14795625888E+04  0.91042782901E+02 0.  0.
         23    2    4    4    0    0  0.49713048149E+03 -0.12778746688E+04  0.41326161445E+03  0.14350739012E+04  0.92463805069E+02 0.  0.
          3    1    3    3  502    0 -0.81112647592E+03  0.14562101072E+04  0.38723552749E+03  0.17112642665E+04  0.00000000000E+00 0. -1.
         -3    1    3    3    0  502 -0.39551658082E+03  0.79758308178E+03  0.15510004010E+03  0.90367480903E+03  0.00000000000E+00 0.  1.
         13    1    5    5    0    0  0.44398960177E+03 -0.54404324693E+03  0.46754435815E+03  0.84362761207E+03  0.00000000000E+00 0. -1.
        -13    1    5    5    0    0  0.26552297348E+03 -0.43187527325E+03  0.38392003528E+03  0.63593497669E+03  0.00000000000E+00 0.  1.
          4    1    6    6  503    0  0.17862392769E+03 -0.35067678704E+03  0.10367816311E+03  0.40697650794E+03  0.00000000000E+00 0. -1.
         -4    1    6    6    0  503  0.31850655380E+03 -0.92719788173E+03  0.30958345134E+03  0.10280973933E+04  0.00000000000E+00 0.  1.
<mgrwt>
<rscale>  0 0.25701281E+04</rscale>
<asrwt>0</asrwt>
<pdfrwt beam="1">  1        1 0.56435670E+00 0.25701281E+04</pdfrwt>
<pdfrwt beam="2">  1       -1 0.28634723E+00 0.25701281E+04</pdfrwt>
<totfact> 0.61870716E-03</totfact>
</mgrwt>
</event>
<event>
12    1  0.1335216E-007  0.7271302E+03  0.7818608E-02  0.9671929E-01
          1   -1    0    0  501    0  0.00000000000E+00  0.00000000000E+00  0.10947130189E+04  0.10947130189E+04  0.00000000000E+00 0. -1.
         -1   -1    0    0    0  501 -0.00000000000E+00 -0.00000000000E+00 -0.51552006419E+03  0.51552006419E+03  0.00000000000E+00 0.  1.
         23    2    1    2    0    0 -0.61115112600E+03  0.14236301787E+02  0.89376788054E+02  0.62357738778E+03  0.84570545722E+02 0.  0.
    5000000    2    1    2    0    0  0.61115112600E+03 -0.14236301787E+02  0.48981616662E+03  0.98665569528E+03  0.59988433289E+03 0.  0.
         23    2    4    4    0    0  0.29759906252E+03 -0.29143450046E+03  0.21581689802E+03  0.47815540669E+03  0.92500753511E+02 0.  0.
         23    2    4    4    0    0  0.31355206348E+03  0.27719819867E+03  0.27399926860E+03  0.50850028859E+03  0.91341154181E+02 0.  0.
          1    1    3    3  502    0 -0.32420602104E+03  0.24356551882E+02  0.86538929445E+02  0.33643984902E+03  0.00000000000E+00 0. -1.
         -1    1    3    3    0  502 -0.28694510496E+03 -0.10120250095E+02  0.28378586090E+01  0.28713753875E+03  0.00000000000E+00 0.  1.
         13    1    5    5    0    0  0.57077706672E+01 -0.21073538159E+01 -0.80980722149E+01  0.10129084840E+02  0.00000000000E+00 0.  1.
        -13    1    5    5    0    0  0.29189129186E+03 -0.28932714664E+03  0.22391497024E+03  0.46802632185E+03  0.00000000000E+00 0. -1.
          4    1    6    6  503    0  0.11101346350E+03  0.14684241078E+03  0.15076669142E+03  0.23794385456E+03  0.00000000000E+00 0. -1.
         -4    1    6    6    0  503  0.20253859997E+03  0.13035578789E+03  0.12323257718E+03  0.27055643403E+03  0.00000000000E+00 0.  1.
<mgrwt>
<rscale>  0 0.72713021E+03</rscale>
<asrwt>0</asrwt>
<pdfrwt beam="1">  1        1 0.16841739E+00 0.72713021E+03</pdfrwt>
<pdfrwt beam="2">  1       -1 0.79310779E-01 0.72713021E+03</pdfrwt>
<totfact> 0.20996549E+01</totfact>
</mgrwt>
</event>
<event>
12    1  0.1335216E-007  0.6258066E+03  0.7818608E-02  0.9853266E-01
          1   -1    0    0  501    0  0.00000000000E+00  0.00000000000E+00  0.12325990181E+04  0.12325990181E+04  0.00000000000E+00 0. -1.
         -1   -1    0    0    0  501 -0.00000000000E+00 -0.00000000000E+00 -0.54154306974E+03  0.54154306974E+03  0.00000000000E+00 0.  1.
         23    2    1    2    0    0  0.76751293676E+00  0.57045370891E+03  0.74694360390E+03  0.94435274183E+03  0.91974618854E+02 0.  0.
    5000000    2    1    2    0    0 -0.76751293676E+00 -0.57045370891E+03 -0.55887655536E+02  0.82978934601E+03  0.60000742131E+03 0.  0.
         23    2    4    4    0    0 -0.15928878393E+03 -0.24296917592E+03  0.21006046533E+03  0.37005259865E+03  0.91687455767E+02 0.  0.
         23    2    4    4    0    0  0.15852127100E+03 -0.32748453300E+03 -0.26594812086E+03  0.45973674736E+03  0.90853514884E+02 0.  0.
          1    1    3    3  502    0  0.38344105496E+02  0.17363724002E+03  0.20067168969E+03  0.26812177940E+03  0.00000000000E+00 0. -1.
         -1    1    3    3    0  502 -0.37576592559E+02  0.39681646889E+03  0.54627191421E+03  0.67623096243E+03  0.00000000000E+00 0.  1.
         11    1    5    5    0    0  0.85967215761E+01 -0.55451389293E+01  0.20576668738E+02  0.22979370835E+02  0.00000000000E+00 0.  1.
        -11    1    5    5    0    0 -0.16788550551E+03 -0.23742403699E+03  0.18948379659E+03  0.34707322782E+03  0.00000000000E+00 0. -1.
          1    1    6    6  503    0  0.30105514771E+02 -0.16172668275E+03 -0.10191016073E+03  0.19351367599E+03  0.00000000000E+00 0. -1.
         -1    1    6    6    0  503  0.12841575623E+03 -0.16575785025E+03 -0.16403796013E+03  0.26622307137E+03  0.00000000000E+00 0.  1.
<mgrwt>
<rscale>  0 0.62580656E+03</rscale>
<asrwt>0</asrwt>
<pdfrwt beam="1">  1        1 0.18963062E+00 0.62580656E+03</pdfrwt>
<pdfrwt beam="2">  1       -1 0.83314319E-01 0.62580656E+03</pdfrwt>
<totfact> 0.15216381E+01</totfact>
</mgrwt>
</event>
<event>
12    1  0.1335216E-007  0.7223643E+03  0.7818608E-02  0.9679733E-01
          1   -1    0    0  501    0  0.00000000000E+00  0.00000000000E+00  0.92770617897E+03  0.92770617897E+03  0.00000000000E+00 0. -1.
         -1   -1    0    0    0  501 -0.00000000000E+00 -0.00000000000E+00 -0.58327217029E+03  0.58327217029E+03  0.00000000000E+00 0.  1.
         23    2    1    2    0    0  0.58299441534E+03  0.17353192879E+03  0.11098984695E+03  0.62521807211E+03  0.92644875454E+02 0.  0.
    5000000    2    1    2    0    0 -0.58299441534E+03 -0.17353192879E+03  0.23344416173E+03  0.88576027716E+03  0.60006605746E+03 0.  0.
         23    2    4    4    0    0 -0.36289077040E+03 -0.38108976537E+03  0.18560749850E+03  0.56552206188E+03  0.91901787088E+02 0.  0.
         23    2    4    4    0    0 -0.22010364494E+03  0.20755783658E+03  0.47836663234E+02  0.32023821527E+03  0.93478864611E+02 0.  0.
          1    1    3    3  502    0  0.22374098661E+03  0.32805204910E+02  0.98419250866E+01  0.22634724219E+03  0.00000000000E+00 0. -1.
         -1    1    3    3    0  502  0.35925342873E+03  0.14072672388E+03  0.10114792186E+03  0.39887082992E+03  0.00000000000E+00 0.  1.
         11    1    5    5    0    0 -0.29729204429E+03 -0.33064170336E+03  0.12179221090E+03  0.46102043147E+03  0.00000000000E+00 0.  1.
        -11    1    5    5    0    0 -0.65598726109E+02 -0.50448062005E+02  0.63815287597E+02  0.10450163041E+03  0.00000000000E+00 0. -1.
          1    1    6    6  503    0 -0.11382431999E+03  0.78935254685E+02  0.64038487672E+02  0.15260300835E+03  0.00000000000E+00 0. -1.
         -1    1    6    6    0  503 -0.10627932495E+03  0.12862258190E+03 -0.16201824438E+02  0.16763520692E+03  0.00000000000E+00 0.  1.
<mgrwt>
<rscale>  0 0.72236429E+03</rscale>
<asrwt>0</asrwt>
<pdfrwt beam="1">  1        1 0.14272403E+00 0.72236429E+03</pdfrwt>
<pdfrwt beam="2">  1       -1 0.89734180E-01 0.72236429E+03</pdfrwt>
<totfact> 0.21664630E+01</totfact>
</mgrwt>
</event>
<event>
12    1  0.1335216E-007  0.1540979E+04  0.7818608E-02  0.8857650E-01
          2   -1    0    0  501    0  0.00000000000E+00  0.00000000000E+00  0.37110412064E+04  0.37110412064E+04  0.00000000000E+00 0.  1.
         -2   -1    0    0    0  501 -0.00000000000E+00 -0.00000000000E+00 -0.71602380419E+03  0.71602380419E+03  0.00000000000E+00 0. -1.
         23    2    1    2    0    0 -0.15166084038E+04  0.15295961664E+03  0.19782399326E+04  0.24990676521E+04  0.91696257570E+02 0.  0.
    5000000    2    1    2    0    0  0.15166084038E+04 -0.15295961664E+03  0.10167774696E+04  0.19279973586E+04  0.59986639924E+03 0.  0.
         23    2    4    4    0    0  0.14256286326E+03 -0.69967694572E+02  0.35349479592E+03  0.39733210241E+03  0.87718758533E+02 0.  0.
         23    2    4    4    0    0  0.13740455406E+04 -0.82991922071E+02  0.66328267370E+03  0.15306652561E+04  0.90018966987E+02 0.  0.
          1    1    3    3  502    0 -0.11081242546E+04  0.15104156657E+03  0.14310288309E+04  0.18162038523E+04  0.00000000000E+00 0. -1.
         -1    1    3    3    0  502 -0.40848414926E+03  0.19180500696E+01  0.54721110176E+03  0.68286379975E+03  0.00000000000E+00 0.  1.
         13    1    5    5    0    0  0.78008361230E+02  0.45324996360E+01  0.11268717051E+03  0.13712857606E+03  0.00000000000E+00 0. -1.
        -13    1    5    5    0    0  0.64554502031E+02 -0.74500194208E+02  0.24080762541E+03  0.26020352635E+03  0.00000000000E+00 0.  1.
          4    1    6    6  503    0  0.57105883426E+03  0.56901486732E+00  0.30510134279E+03  0.64745296766E+03  0.00000000000E+00 0. -1.
         -4    1    6    6    0  503  0.80298670632E+03 -0.83560936939E+02  0.35818133090E+03  0.88321228848E+03  0.00000000000E+00 0.  1.
<mgrwt>
<rscale>  0 0.15409794E+04</rscale>
<asrwt>0</asrwt>
<pdfrwt beam="1">  1        2 0.57092940E+00 0.15409794E+04</pdfrwt>
<pdfrwt beam="2">  1       -2 0.11015751E+00 0.15409794E+04</pdfrwt>
<totfact> 0.35934099E-01</totfact>
</mgrwt>
</event>
<event>
12    1  0.1335216E-007  0.1034537E+04  0.7818608E-02  0.9271456E-01
         -4   -1    0    0    0  501 -0.00000000000E+00  0.00000000000E+00  0.94573842783E+03  0.94573842783E+03  0.00000000000E+00 0.  1.
          4   -1    0    0  501    0  0.00000000000E+00 -0.00000000000E+00 -0.12749929061E+04  0.12749929061E+04  0.00000000000E+00 0. -1.
         23    2    1    2    0    0 -0.19895763227E+03  0.94646213735E+03 -0.46046526116E+03  0.10751765352E+04  0.92744855288E+02 0.  0.
    5000000    2    1    2    0    0  0.19895763227E+03 -0.94646213735E+03  0.13121078287E+03  0.11455547988E+04  0.59975395835E+03 0.  0.
         23    2    4    4    0    0  0.34469941133E+03 -0.38731330662E+03 -0.58225147777E+02  0.52902010718E+03  0.87423248162E+02 0.  0.
         23    2    4    4    0    0 -0.14574177906E+03 -0.55914883073E+03  0.18943593065E+03  0.61653469158E+03  0.10169057495E+03 0.  0.
          3    1    3    3  502    0 -0.66974570214E+02  0.43216593128E+03 -0.16406744783E+03  0.46708790677E+03  0.00000000000E+00 0. -1.
         -3    1    3    3    0  502 -0.13198306206E+03  0.51429620607E+03 -0.29639781333E+03  0.60808862840E+03  0.00000000000E+00 0.  1.
         11    1    5    5    0    0  0.22384981736E+03 -0.24691761932E+03  0.48913320612E+01  0.33331813121E+03  0.00000000000E+00 0.  1.
        -11    1    5    5    0    0  0.12084959397E+03 -0.14039568730E+03 -0.63116479838E+02  0.19570197598E+03  0.00000000000E+00 0. -1.
          1    1    6    6  503    0 -0.52337898916E+02 -0.34046628814E+03  0.74544353881E+02  0.35243922840E+03  0.00000000000E+00 0. -1.
         -1    1    6    6    0  503 -0.93403880140E+02 -0.21868254260E+03  0.11489157676E+03  0.26409546318E+03  0.00000000000E+00 0.  1.
<mgrwt>
<rscale>  0 0.10345368E+04</rscale>
<asrwt>0</asrwt>
<pdfrwt beam="1">  1        4 0.19615275E+00 0.10345368E+04</pdfrwt>
<pdfrwt beam="2">  1       -4 0.14549822E+00 0.10345368E+04</pdfrwt>
<totfact> 0.86420598E-02</totfact>
</mgrwt>
</event>
<event>
12    1  0.1335216E-007  0.6499205E+03  0.7818608E-02  0.9806928E-01
         -3   -1    0    0    0  501 -0.00000000000E+00  0.00000000000E+00  0.18637954296E+04  0.18637954296E+04  0.00000000000E+00 0.  1.
          3   -1    0    0  501    0  0.00000000000E+00 -0.00000000000E+00 -0.25953049774E+03  0.25953049774E+03  0.00000000000E+00 0. -1.
         23    2    1    2    0    0 -0.55983657690E+03 -0.38435553856E+02  0.61878042460E+03  0.84030133588E+03  0.91229581695E+02 0.  0.
    5000000    2    1    2    0    0  0.55983657690E+03  0.38435553856E+02  0.98548450723E+03  0.12830245914E+04  0.60006508281E+03 0.  0.
         23    2    4    4    0    0  0.60803554394E+03  0.10340340966E+03  0.55165853383E+03  0.83249041234E+03  0.91179278719E+02 0.  0.
         23    2    4    4    0    0 -0.48198967037E+02 -0.64967855805E+02  0.43382597340E+03  0.45053417910E+03  0.90730968427E+02 0.  0.
          1    1    3    3  502    0 -0.19838384427E+03 -0.12191663291E+02  0.28601951973E+03  0.34829865344E+03  0.00000000000E+00 0. -1.
         -1    1    3    3    0  502 -0.36145273263E+03 -0.26243890565E+02  0.33276090487E+03  0.49200268244E+03  0.00000000000E+00 0.  1.
         13    1    5    5    0    0  0.46109819945E+03  0.10434927221E+03  0.38013474511E+03  0.60663229768E+03  0.00000000000E+00 0.  1.
        -13    1    5    5    0    0  0.14693734448E+03 -0.94586254912E+00  0.17152378872E+03  0.22585811466E+03  0.00000000000E+00 0. -1.
          1    1    6    6  503    0  0.16541636935E+02 -0.49815163778E+02  0.23828997222E+03  0.24400263759E+03  0.00000000000E+00 0. -1.
         -1    1    6    6    0  503 -0.64740603972E+02 -0.15152692027E+02  0.19553600118E+03  0.20653154150E+03  0.00000000000E+00 0.  1.
<mgrwt>
<rscale>  0 0.64992046E+03</rscale>
<asrwt>0</asrwt>
<pdfrwt beam="1">  1        3 0.39927770E-01 0.64992046E+03</pdfrwt>
<pdfrwt beam="2">  1       -3 0.28673775E+00 0.64992046E+03</pdfrwt>
<totfact> 0.75403857E-01</totfact>
</mgrwt>
</event>
<event>
12    1  0.1335216E-007  0.7865111E+03  0.7818608E-02  0.9579750E-01
         -2   -1    0    0    0  501 -0.00000000000E+00  0.00000000000E+00  0.43485955893E+03  0.43485955893E+03  0.00000000000E+00 0.  1.
          2   -1    0    0  501    0  0.00000000000E+00 -0.00000000000E+00 -0.16781369318E+04  0.16781369318E+04  0.00000000000E+00 0. -1.
         23    2    1    2    0    0  0.70470889502E+03 -0.24061695206E+03 -0.58805056770E+03  0.95392625506E+03  0.98288786646E+02 0.  0.
    5000000    2    1    2    0    0 -0.70470889502E+03  0.24061695206E+03 -0.65522680519E+03  0.11590702357E+04  0.59967532941E+03 0.  0.
         23    2    4    4    0    0 -0.10459546236E+03  0.18056547359E+03 -0.46897547310E+03  0.52131622590E+03  0.91041265492E+02 0.  0.
         23    2    4    4    0    0 -0.60011343266E+03  0.60051478468E+02 -0.18625133209E+03  0.63775400979E+03  0.91095039251E+02 0.  0.
          1    1    3    3  502    0  0.28844294227E+03 -0.10486966148E+03 -0.18223024772E+03  0.35693814594E+03  0.00000000000E+00 0. -1.
         -1    1    3    3    0  502  0.41626595275E+03 -0.13574729058E+03 -0.40582031998E+03  0.59698810912E+03  0.00000000000E+00 0.  1.
         13    1    5    5    0    0 -0.93117983606E+02  0.89719624708E+02 -0.33451641307E+03  0.35863881628E+03  0.00000000000E+00 0. -1.
        -13    1    5    5    0    0 -0.11477478752E+02  0.90845848887E+02 -0.13445906003E+03  0.16267740962E+03  0.00000000000E+00 0.  1.
          4    1    6    6  503    0 -0.31834225574E+03  0.67927760536E+02 -0.70641374934E+02  0.33308583923E+03  0.00000000000E+00 0. -1.
         -4    1    6    6    0  503 -0.28177117692E+03 -0.78762820678E+01 -0.11560995716E+03  0.30466817056E+03  0.00000000000E+00 0.  1.
<mgrwt>
<rscale>  0 0.78651113E+03</rscale>
<asrwt>0</asrwt>
<pdfrwt beam="1">  1        2 0.25817491E+00 0.78651113E+03</pdfrwt>
<pdfrwt beam="2">  1       -2 0.66901470E-01 0.78651113E+03</pdfrwt>
<totfact> 0.21156942E+01</totfact>
</mgrwt>
</event>
<event>
12    1  0.1335216E-007  0.5033839E+03  0.7818608E-02  0.1012899E+00
         -1   -1    0    0    0  501 -0.00000000000E+00  0.00000000000E+00  0.25096209298E+03  0.25096209298E+03  0.00000000000E+00 0.  1.
          1   -1    0    0  501    0  0.00000000000E+00 -0.00000000000E+00 -0.11269181773E+04  0.11269181773E+04  0.00000000000E+00 0. -1.
         23    2    1    2    0    0 -0.31394803243E+03 -0.16700723642E+03 -0.30692470463E+03  0.47770035933E+03  0.86833604690E+02 0.  0.
    5000000    2    1    2    0    0  0.31394803243E+03  0.16700723642E+03 -0.56903137965E+03  0.90017991092E+03  0.60006031105E+03 0.  0.
         23    2    4    4    0    0  0.30131787946E+03 -0.14007320123E+03 -0.15956425525E+03  0.38036362848E+03  0.93823089543E+02 0.  0.
         23    2    4    4    0    0  0.12630152978E+02  0.30708043765E+03 -0.40946712440E+03  0.51981628244E+03  0.89931782877E+02 0.  0.
          3    1    3    3  502    0 -0.13810366266E+03 -0.12064321905E+03 -0.13810846467E+03  0.22956775896E+03  0.00000000000E+00 0. -1.
         -3    1    3    3    0  502 -0.17584436977E+03 -0.46364017370E+02 -0.16881623996E+03  0.24813260036E+03  0.00000000000E+00 0.  1.
         11    1    5    5    0    0  0.86958040005E+02 -0.50803879862E+02 -0.38558928435E+01  0.10078493360E+03  0.00000000000E+00 0. -1.
        -11    1    5    5    0    0  0.21435983945E+03 -0.89269321368E+02 -0.15570836241E+03  0.27957869488E+03  0.00000000000E+00 0.  1.
          1    1    6    6  503    0 -0.73697957743E+01  0.16199567463E+03 -0.14515170900E+03  0.21763715472E+03  0.00000000000E+00 0. -1.
         -1    1    6    6    0  503  0.19999948753E+02  0.14508476302E+03 -0.26431541540E+03  0.30217912772E+03  0.00000000000E+00 0.  1.
<mgrwt>
<rscale>  0 0.50338393E+03</rscale>
<asrwt>0</asrwt>
<pdfrwt beam="1">  1        1 0.17337202E+00 0.50338393E+03</pdfrwt>
<pdfrwt beam="2">  1       -1 0.38609553E-01 0.50338393E+03</pdfrwt>
<totfact> 0.82495941E+01</totfact>
</mgrwt>
</event>
<event>
12    1  0.1335216E-007  0.1670012E+04  0.7818608E-02  0.8778655E-01
         -1   -1    0    0    0  501 -0.00000000000E+00  0.00000000000E+00  0.16995845877E+04  0.16995845877E+04  0.00000000000E+00 0.  1.
          1   -1    0    0  501    0  0.00000000000E+00 -0.00000000000E+00 -0.16473168167E+04  0.16473168167E+04  0.00000000000E+00 0. -1.
         23    2    1    2    0    0 -0.48064665400E+03  0.15435135339E+04  0.94191846612E+02  0.16219901185E+04  0.92328789293E+02 0.  0.
    5000000    2    1    2    0    0  0.48064665400E+03 -0.15435135339E+04 -0.41924075631E+02  0.17249112859E+04  0.60008839427E+03 0.  0.
         23    2    4    4    0    0  0.32364911512E+03 -0.25334456630E+03 -0.21347322222E+02  0.42185934336E+03  0.92614137283E+02 0.  0.
         23    2    4    4    0    0  0.15699753888E+03 -0.12901689676E+04 -0.20576753409E+02  0.13030519425E+04  0.91305915098E+02 0.  0.
          2    1    3    3  502    0 -0.36327496170E+03  0.12462034987E+04  0.10371226985E+03  0.13022089283E+04  0.00000000000E+00 0. -1.
         -2    1    3    3    0  502 -0.11737169230E+03  0.29731003511E+03 -0.95204232367E+01  0.31978119018E+03  0.00000000000E+00 0.  1.
         13    1    5    5    0    0  0.14294727702E+03 -0.16543904797E+03  0.79502200220E+01  0.21878575959E+03  0.00000000000E+00 0. -1.
        -13    1    5    5    0    0  0.18070183810E+03 -0.87905518333E+02 -0.29297542244E+02  0.20307358377E+03  0.00000000000E+00 0.  1.
          2    1    6    6  503    0  0.78342995548E+02 -0.32321743694E+03  0.38618251451E+01  0.33259893293E+03  0.00000000000E+00 0. -1.
         -2    1    6    6    0  503  0.78654543327E+02 -0.96695153061E+03 -0.24438578554E+02  0.97045300961E+03  0.00000000000E+00 0.  1.
<mgrwt>
<rscale>  0 0.16700120E+04</rscale>
<asrwt>0</asrwt>
<pdfrwt beam="1">  1        1 0.25343336E+00 0.16700120E+04</pdfrwt>
<pdfrwt beam="2">  1       -1 0.26147455E+00 0.16700120E+04</pdfrwt>
<totfact> 0.28188984E-01</totfact>
</mgrwt>
</event>
<event>
12    1  0.1335216E-007  0.5733416E+03  0.7818608E-02  0.9962311E-01
          1   -1    0    0  501    0  0.00000000000E+00  0.00000000000E+00  0.68602880945E+03  0.68602880945E+03  0.00000000000E+00 0. -1.
         -1   -1    0    0    0  501 -0.00000000000E+00 -0.00000000000E+00 -0.12770648388E+04  0.12770648388E+04  0.00000000000E+00 0.  1.
         23    2    1    2    0    0 -0.39118875117E+03 -0.22735680262E+03  0.47333489106E+03  0.66094489638E+03  0.89902626298E+02 0.  0.
    5000000    2    1    2    0    0  0.39118875117E+03  0.22735680262E+03 -0.10643709204E+04  0.13021487518E+04  0.59831944732E+03 0.  0.
         23    2    4    4    0    0  0.87537829163E+02 -0.15106572241E+03 -0.10413103350E+03  0.22274715964E+03  0.91045598290E+02 0.  0.
         23    2    4    4    0    0  0.30365092201E+03  0.37842252503E+03 -0.96023988688E+03  0.10794015922E+04  0.87405188779E+02 0.  0.
          1    1    3    3  502    0 -0.30716024062E+03 -0.13260003407E+03  0.34937870208E+03  0.48373097887E+03  0.00000000000E+00 0. -1.
         -1    1    3    3    0  502 -0.84028510547E+02 -0.94756768554E+02  0.12395618898E+03  0.17721391751E+03  0.00000000000E+00 0.  1.
         13    1    5    5    0    0  0.76128431579E+02 -0.45066763410E+02 -0.62395638645E+02  0.10825787260E+03  0.00000000000E+00 0. -1.
        -13    1    5    5    0    0  0.11409397584E+02 -0.10599895900E+03 -0.41735394854E+02  0.11448928703E+03  0.00000000000E+00 0.  1.
          4    1    6    6  503    0  0.30579372621E+03  0.36215822967E+03 -0.94400821820E+03  0.10563237678E+04  0.00000000000E+00 0. -1.
         -4    1    6    6    0  503 -0.21428041969E+01  0.16264295354E+02 -0.16231668682E+02  0.23077824451E+02  0.00000000000E+00 0.  1.
<mgrwt>
<rscale>  0 0.57334160E+03</rscale>
<asrwt>0</asrwt>
<pdfrwt beam="1">  1        1 0.10554289E+00 0.57334160E+03</pdfrwt>
<pdfrwt beam="2">  1       -1 0.19647151E+00 0.57334160E+03</pdfrwt>
<totfact> 0.47795607E+00</totfact>
</mgrwt>
</event>
<event>
12    1  0.1335216E-007  0.5972619E+03  0.7818608E-02  0.9911103E-01
          2   -1    0    0  501    0  0.00000000000E+00  0.00000000000E+00  0.81682541077E+03  0.81682541077E+03  0.00000000000E+00 0.  1.
         -2   -1    0    0    0  501 -0.00000000000E+00 -0.00000000000E+00 -0.11259171897E+04  0.11259171897E+04  0.00000000000E+00 0. -1.
         23    2    1    2    0    0  0.56199037506E+03 -0.70415267409E+02  0.51913734802E+03  0.77367979975E+03  0.91023924763E+02 0.  0.
    5000000    2    1    2    0    0 -0.56199037506E+03  0.70415267409E+02 -0.82822912699E+03  0.11690628008E+04  0.59996071021E+03 0.  0.
         23    2    4    4    0    0 -0.17853988632E+03  0.11497427912E+03 -0.72306141844E+03  0.75924134382E+03  0.92379800024E+02 0.  0.
         23    2    4    4    0    0 -0.38345048874E+03 -0.44559011711E+02 -0.10516770854E+03  0.40982145695E+03  0.88733290336E+02 0.  0.
          4    1    3    3  502    0  0.26959295709E+03 -0.69606264837E+02  0.21498337406E+03  0.35177158177E+03  0.00000000000E+00 0.  1.
         -4    1    3    3    0  502  0.29239741797E+03 -0.80900257225E+00  0.30415397396E+03  0.42190821798E+03  0.00000000000E+00 0. -1.
         11    1    5    5    0    0 -0.74280072359E+02  0.19773405189E+01 -0.30139109918E+03  0.31041590438E+03  0.00000000000E+00 0. -1.
        -11    1    5    5    0    0 -0.10425981396E+03  0.11299693860E+03 -0.42167031926E+03  0.44882543944E+03  0.00000000000E+00 0.  1.
          1    1    6    6  503    0 -0.41881829675E+02 -0.33933279893E+02 -0.76306409038E+01  0.54440626574E+02  0.00000000000E+00 0. -1.
         -1    1    6    6    0  503 -0.34156865907E+03 -0.10625731818E+02 -0.97537067639E+02  0.35538083038E+03  0.00000000000E+00 0.  1.
<mgrwt>
<rscale>  0 0.59726187E+03</rscale>
<asrwt>0</asrwt>
<pdfrwt beam="1">  1        2 0.12566545E+00 0.59726187E+03</pdfrwt>
<pdfrwt beam="2">  1       -2 0.17321803E+00 0.59726187E+03</pdfrwt>
<totfact> 0.70473390E+00</totfact>
</mgrwt>
</event>
<event>
12    1  0.1335216E-007  0.5523496E+03  0.7818608E-02  0.1000952E+00
         -1   -1    0    0    0  501 -0.00000000000E+00  0.00000000000E+00  0.21352563504E+04  0.21352563504E+04  0.00000000000E+00 0.  1.
          1   -1    0    0  501    0  0.00000000000E+00 -0.00000000000E+00 -0.17583589974E+03  0.17583589974E+03  0.00000000000E+00 0. -1.
         23    2    1    2    0    0  0.35157914476E+03  0.27114211435E+03  0.51669843807E+03  0.68673008977E+03  0.86573662790E+02 0.  0.
    5000000    2    1    2    0    0 -0.35157914476E+03 -0.27114211435E+03  0.14427220126E+04  0.16243621604E+04  0.59998306746E+03 0.  0.
         23    2    4    4    0    0 -0.13563358018E+03  0.12447152051E+03  0.85210636601E+03  0.87644755412E+03  0.90473358735E+02 0.  0.
         23    2    4    4    0    0 -0.21594556457E+03 -0.39561363485E+03  0.59061564661E+03  0.74791460628E+03  0.86062659261E+02 0.  0.
          1    1    3    3  502    0  0.13685561769E+03  0.62851511029E+02  0.13926094309E+03  0.20511797289E+03  0.00000000000E+00 0. -1.
         -1    1    3    3    0  502  0.21472352706E+03  0.20829060332E+03  0.37743749499E+03  0.48161211688E+03  0.00000000000E+00 0.  1.
         13    1    5    5    0    0 -0.37557754930E+02 -0.83333109201E+01  0.20744343681E+03  0.21098058797E+03  0.00000000000E+00 0.  1.
        -13    1    5    5    0    0 -0.98075825251E+02  0.13280483143E+03  0.64466292920E+03  0.66546696615E+03  0.00000000000E+00 0. -1.
          1    1    6    6  503    0 -0.82937326768E+02 -0.12765133663E+03  0.26595698782E+03  0.30644181060E+03  0.00000000000E+00 0.  1.
         -1    1    6    6    0  503 -0.13300823781E+03 -0.26796229822E+03  0.32465865880E+03  0.44147279568E+03  0.00000000000E+00 0. -1.
<mgrwt>
<rscale>  0 0.55234964E+03</rscale>
<asrwt>0</asrwt>
<pdfrwt beam="1">  1        1 0.27051678E-01 0.55234964E+03</pdfrwt>
<pdfrwt beam="2">  1       -1 0.32850096E+00 0.55234964E+03</pdfrwt>
<totfact> 0.41164139E+00</totfact>
</mgrwt>
</event>
<event>
12    1  0.1335216E-007  0.6755060E+03  0.7818608E-02  0.9760062E-01
          2   -1    0    0  501    0  0.00000000000E+00  0.00000000000E+00  0.78920091048E+03  0.78920091048E+03  0.00000000000E+00 0. -1.
         -2   -1    0    0    0  501 -0.00000000000E+00 -0.00000000000E+00 -0.62194136487E+03  0.62194136487E+03  0.00000000000E+00 0.  1.
         23    2    1    2    0    0 -0.54298584918E+03 -0.31750676965E+02 -0.95382486629E+02  0.55964620566E+03  0.90908299155E+02 0.  0.
    5000000    2    1    2    0    0  0.54298584918E+03  0.31750676965E+02  0.26264203224E+03  0.85149606970E+03  0.60018578933E+03 0.  0.
         23    2    4    4    0    0  0.44864734056E+03 -0.23130421671E+03  0.13072734770E+03  0.52924344522E+03  0.90680251499E+02 0.  0.
         23    2    4    4    0    0  0.94338508624E+02  0.26305489367E+03  0.13191468453E+03  0.32225262448E+03  0.91365413012E+02 0.  0.
          4    1    3    3  502    0 -0.25437079269E+03 -0.59364723911E+02 -0.35706843129E+02  0.26363544767E+03  0.00000000000E+00 0. -1.
         -4    1    3    3    0  502 -0.28861505649E+03  0.27614046946E+02 -0.59675643500E+02  0.29601075799E+03  0.00000000000E+00 0.  1.
         13    1    5    5    0    0  0.28574563061E+02 -0.59467160190E+01  0.30308609893E+02  0.42077083064E+02  0.00000000000E+00 0.  1.
        -13    1    5    5    0    0  0.42007277750E+03 -0.22535750069E+03  0.10041873781E+03  0.48716636215E+03  0.00000000000E+00 0. -1.
          3    1    6    6  503    0 -0.91223062835E+01  0.10297267081E+03  0.44040590256E+02  0.11236619151E+03  0.00000000000E+00 0. -1.
         -3    1    6    6    0  503  0.10346081491E+03  0.16008222287E+03  0.87874094278E+02  0.20988643297E+03  0.00000000000E+00 0.  1.
<mgrwt>
<rscale>  0 0.67550598E+03</rscale>
<asrwt>0</asrwt>
<pdfrwt beam="1">  1        2 0.12141552E+00 0.67550598E+03</pdfrwt>
<pdfrwt beam="2">  1       -2 0.95683287E-01 0.67550598E+03</pdfrwt>
<totfact> 0.32818800E+01</totfact>
</mgrwt>
</event>
<event>
12    1  0.1335216E-007  0.1020769E+04  0.7818608E-02  0.9286054E-01
          2   -1    0    0  501    0  0.00000000000E+00  0.00000000000E+00  0.20006801095E+04  0.20006801095E+04  0.00000000000E+00 0. -1.
         -2   -1    0    0    0  501 -0.00000000000E+00 -0.00000000000E+00 -0.19084580560E+04  0.19084580560E+04  0.00000000000E+00 0.  1.
         23    2    1    2    0    0  0.31892719973E+03  0.92278318667E+03 -0.15933213747E+04  0.18709483582E+04  0.92365510726E+02 0.  0.
    5000000    2    1    2    0    0 -0.31892719973E+03 -0.92278318667E+03  0.16855434282E+04  0.20381898073E+04  0.59993139106E+03 0.  0.
         23    2    4    4    0    0 -0.31902843519E+03 -0.33381021358E+03  0.38479581501E+03  0.60761222766E+03  0.88974146820E+02 0.  0.
         23    2    4    4    0    0  0.10123545651E+00 -0.58897297308E+03  0.13007476132E+04  0.14305775796E+04  0.87856046618E+02 0.  0.
          4    1    3    3  502    0  0.65860708493E+02  0.26760060563E+03 -0.38784232778E+03  0.47578292138E+03  0.00000000000E+00 0. -1.
         -4    1    3    3    0  502  0.25306649124E+03  0.65518258104E+03 -0.12054790469E+04  0.13951654368E+04  0.00000000000E+00 0.  1.
         11    1    5    5    0    0 -0.25728753454E+03 -0.21086784352E+03  0.27353286957E+03  0.43067662299E+03  0.00000000000E+00 0. -1.
        -11    1    5    5    0    0 -0.61740900649E+02 -0.12294237007E+03  0.11126294544E+03  0.17693560467E+03  0.00000000000E+00 0.  1.
          3    1    6    6  503    0  0.35463313675E+02 -0.34889339815E+03  0.82735186842E+03  0.89860745827E+03  0.00000000000E+00 0. -1.
         -3    1    6    6    0  503 -0.35362078218E+02 -0.24007957494E+03  0.47339574474E+03  0.53197012136E+03  0.00000000000E+00 0.  1.
<mgrwt>
<rscale>  0 0.10207695E+04</rscale>
<asrwt>0</asrwt>
<pdfrwt beam="1">  1        2 0.30779694E+00 0.10207695E+04</pdfrwt>
<pdfrwt beam="2">  1       -2 0.29360893E+00 0.10207695E+04</pdfrwt>
<totfact> 0.23345176E-01</totfact>
</mgrwt>
</event>
<event>
12    1  0.1335216E-007  0.1801719E+04  0.7818608E-02  0.8705386E-01
         -1   -1    0    0    0  501 -0.00000000000E+00  0.00000000000E+00  0.24053256947E+04  0.24053256947E+04  0.00000000000E+00 0.  1.
          1   -1    0    0  501    0  0.00000000000E+00 -0.00000000000E+00 -0.13787015379E+04  0.13787015379E+04  0.00000000000E+00 0. -1.
         23    2    1    2    0    0 -0.96833929021E+03  0.14685372021E+04  0.29139050870E+03  0.17853631135E+04  0.91271701545E+02 0.  0.
    5000000    2    1    2    0    0  0.96833929021E+03 -0.14685372021E+04  0.73523364810E+03  0.19986641191E+04  0.59983935264E+03 0.  0.
         23    2    4    4    0    0 -0.36744557785E+02 -0.27574513793E+03  0.16095729349E+03  0.33365781397E+03  0.89636727276E+02 0.  0.
         23    2    4    4    0    0  0.10050838480E+04 -0.11927920642E+04  0.57427635461E+03  0.16650063052E+04  0.97499820424E+02 0.  0.
          4    1    3    3  502    0 -0.16941411912E+03  0.32390611323E+03  0.57503411055E+02  0.37003102063E+03  0.00000000000E+00 0. -1.
         -4    1    3    3    0  502 -0.79892517110E+03  0.11446310888E+04  0.23388709765E+03  0.14153320928E+04  0.00000000000E+00 0.  1.
         13    1    5    5    0    0 -0.15421109898E+02 -0.23991025350E+03  0.16527270039E+03  0.29173584946E+03  0.00000000000E+00 0.  1.
        -13    1    5    5    0    0 -0.21323447887E+02 -0.35834884431E+02 -0.43154068988E+01  0.41921964513E+02  0.00000000000E+00 0. -1.
          1    1    6    6  503    0  0.69569842715E+03 -0.84019926612E+03  0.35457280573E+03  0.11470191729E+04  0.00000000000E+00 0. -1.
         -1    1    6    6    0  503  0.30938542084E+03 -0.35259279804E+03  0.21970354888E+03  0.51798713232E+03  0.00000000000E+00 0.  1.
<mgrwt>
<rscale>  0 0.18017192E+04</rscale>
<asrwt>0</asrwt>
<pdfrwt beam="1">  1        1 0.21210793E+00 0.18017192E+04</pdfrwt>
<pdfrwt beam="2">  1       -1 0.37005011E+00 0.18017192E+04</pdfrwt>
<totfact> 0.83144936E-02</totfact>
</mgrwt>
</event>
<event>
12    1  0.1335216E-007  0.4329807E+03  0.7818608E-02  0.1032923E+00
          2   -1    0    0  501    0  0.00000000000E+00  0.00000000000E+00  0.66439995711E+03  0.66439995711E+03  0.00000000000E+00 0. -1.
         -2   -1    0    0    0  501 -0.00000000000E+00 -0.00000000000E+00 -0.42930910925E+03  0.42930910925E+03  0.00000000000E+00 0.  1.
         23    2    1    2    0    0  0.30348191873E+03 -0.17436850325E+03  0.43968733020E+01  0.36173349692E+03  0.91247686976E+02 0.  0.
    5000000    2    1    2    0    0 -0.30348191873E+03  0.17436850325E+03  0.23069397455E+03  0.73197556944E+03  0.60005239308E+03 0.  0.
         23    2    4    4    0    0 -0.28843720490E+03  0.26385410829E+03  0.36740327941E+03  0.54422400278E+03  0.91540066858E+02 0.  0.
         23    2    4    4    0    0 -0.15044713826E+02 -0.89485605038E+02 -0.13670930486E+03  0.18775156666E+03  0.91253492125E+02 0.  0.
          4    1    3    3  502    0  0.49442323798E+02 -0.36189304197E+02  0.35606727527E+02  0.70866410704E+02  0.00000000000E+00 0. -1.
         -4    1    3    3    0  502  0.25403959493E+03 -0.13817919905E+03 -0.31209854225E+02  0.29086708622E+03  0.00000000000E+00 0.  1.
         13    1    5    5    0    0 -0.52384745578E+02  0.39489282062E+02  0.21260314204E+02  0.68960611418E+02  0.00000000000E+00 0. -1.
        -13    1    5    5    0    0 -0.23605245933E+03  0.22436482623E+03  0.34614296521E+03  0.47526339136E+03  0.00000000000E+00 0.  1.
          1    1    6    6  503    0 -0.48943178362E+02 -0.35411571147E+02 -0.91094965046E+02  0.10930556590E+03  0.00000000000E+00 0. -1.
         -1    1    6    6    0  503  0.33898464536E+02 -0.54074033892E+02 -0.45614339816E+02  0.78446000766E+02  0.00000000000E+00 0.  1.
<mgrwt>
<rscale>  0 0.43298067E+03</rscale>
<asrwt>0</asrwt>
<pdfrwt beam="1">  1        2 0.10221538E+00 0.43298067E+03</pdfrwt>
<pdfrwt beam="2">  1       -2 0.66047555E-01 0.43298067E+03</pdfrwt>
<totfact> 0.95743032E+01</totfact>
</mgrwt>
</event>
<event>
12    1  0.1335216E-007  0.1174372E+04  0.7818608E-02  0.9135590E-01
          2   -1    0    0  501    0  0.00000000000E+00  0.00000000000E+00  0.11684214194E+04  0.11684214194E+04  0.00000000000E+00 0. -1.
         -2   -1    0    0    0  501 -0.00000000000E+00 -0.00000000000E+00 -0.17781144145E+04  0.17781144145E+04  0.00000000000E+00 0.  1.
         23    2    1    2    0    0  0.47537363327E+03 -0.10419198429E+04  0.49016507777E+03  0.12491344073E+04  0.92184129809E+02 0.  0.
    5000000    2    1    2    0    0 -0.47537363327E+03  0.10419198429E+04 -0.10998580729E+04  0.16974014266E+04  0.59992230527E+03 0.  0.
         23    2    4    4    0    0 -0.42583436037E+03  0.52959059175E+03 -0.91365180181E+03  0.11424415049E+04  0.92800213975E+02 0.  0.
         23    2    4    4    0    0 -0.49539272906E+02  0.51232925110E+03 -0.18620627111E+03  0.55495992177E+03  0.91500482340E+02 0.  0.
          3    1    3    3  502    0  0.13840544044E+03 -0.24878599353E+03  0.15789481763E+03  0.32554770765E+03  0.00000000000E+00 0. -1.
         -3    1    3    3    0  502  0.33696819283E+03 -0.79313384932E+03  0.33227026014E+03  0.92358669961E+03  0.00000000000E+00 0.  1.
         13    1    5    5    0    0 -0.16105333160E+03  0.17039354897E+03 -0.25028746046E+03  0.34295181879E+03  0.00000000000E+00 0. -1.
        -13    1    5    5    0    0 -0.26478102877E+03  0.35919704278E+03 -0.66336434135E+03  0.79948968606E+03  0.00000000000E+00 0.  1.
          1    1    6    6  503    0 -0.64970991356E+02  0.23429181359E+03 -0.10549086791E+03  0.26503246376E+03  0.00000000000E+00 0. -1.
         -1    1    6    6    0  503  0.15431718450E+02  0.27803743751E+03 -0.80715403208E+02  0.28992745801E+03  0.00000000000E+00 0.  1.
<mgrwt>
<rscale>  0 0.11743715E+04</rscale>
<asrwt>0</asrwt>
<pdfrwt beam="1">  1        2 0.17975714E+00 0.11743715E+04</pdfrwt>
<pdfrwt beam="2">  1       -2 0.27355606E+00 0.11743715E+04</pdfrwt>
<totfact> 0.89175068E-01</totfact>
</mgrwt>
</event>
<event>
12    1  0.1335216E-007  0.6772630E+03  0.7818608E-02  0.9756926E-01
         -2   -1    0    0    0  501 -0.00000000000E+00  0.00000000000E+00  0.48025214342E+03  0.48025214342E+03  0.00000000000E+00 0.  1.
          2   -1    0    0  501    0  0.00000000000E+00 -0.00000000000E+00 -0.36597225031E+04  0.36597225031E+04  0.00000000000E+00 0. -1.
         23    2    1    2    0    0 -0.55629466888E+03  0.35644270012E+03 -0.31782169643E+04  0.32474968988E+04  0.93047722436E+02 0.  0.
    5000000    2    1    2    0    0  0.55629466888E+03 -0.35644270012E+03 -0.12533954342E+01  0.89247774775E+03  0.59999983511E+03 0.  0.
         23    2    4    4    0    0  0.27048515964E+03 -0.70351208901E+02 -0.26896657371E+03  0.39903835268E+03  0.93686044614E+02 0.  0.
         23    2    4    4    0    0  0.28580950924E+03 -0.28609149121E+03  0.26771317828E+03  0.49343939506E+03  0.90976226899E+02 0.  0.
          4    1    3    3  502    0 -0.73631033925E+02  0.86356452942E+02 -0.48979673755E+03  0.50277212556E+03  0.00000000000E+00 0. -1.
         -4    1    3    3    0  502 -0.48266363495E+03  0.27008624717E+03 -0.26884202267E+04  0.27447247732E+04  0.00000000000E+00 0.  1.
         11    1    5    5    0    0  0.49633993008E+02 -0.88650038770E+01 -0.69628800397E+01  0.50897969056E+02  0.00000000000E+00 0.  1.
        -11    1    5    5    0    0  0.22085116663E+03 -0.61486205024E+02 -0.26200369368E+03  0.34814038362E+03  0.00000000000E+00 0. -1.
          4    1    6    6  503    0  0.52908127471E+02 -0.25356699657E+02  0.71652605655E+02  0.92608466498E+02  0.00000000000E+00 0. -1.
         -4    1    6    6    0  503  0.23290138177E+03 -0.26073479156E+03  0.19606057263E+03  0.40083092857E+03  0.00000000000E+00 0.  1.
<mgrwt>
<rscale>  0 0.67726297E+03</rscale>
<asrwt>0</asrwt>
<pdfrwt beam="1">  1        2 0.56303420E+00 0.67726297E+03</pdfrwt>
<pdfrwt beam="2">  1       -2 0.73884949E-01 0.67726297E+03</pdfrwt>
<totfact> 0.11511265E+00</totfact>
</mgrwt>
</event>
<event>
12    1  0.1335216E-007  0.4578585E+03  0.7818608E-02  0.1025404E+00
          1   -1    0    0  501    0  0.00000000000E+00  0.00000000000E+00  0.26619742307E+04  0.26619742307E+04  0.00000000000E+00 0. -1.
         -1   -1    0    0    0  501 -0.00000000000E+00 -0.00000000000E+00 -0.97031890822E+02  0.97031890822E+02  0.00000000000E+00 0.  1.
         23    2    1    2    0    0  0.30511789277E+03 -0.17526240898E+02  0.11252559064E+04  0.11694851632E+04  0.89947731615E+02 0.  0.
    5000000    2    1    2    0    0 -0.30511789277E+03  0.17526240898E+02  0.14396864335E+04  0.15895209583E+04  0.60039632963E+03 0.  0.
         23    2    4    4    0    0 -0.36415417326E+03  0.18313760382E+03  0.62863760948E+03  0.75477149484E+03  0.91362582774E+02 0.  0.
         23    2    4    4    0    0  0.59036280491E+02 -0.16561136292E+03  0.81104882399E+03  0.83474946349E+03  0.89967027058E+02 0.  0.
          4    1    3    3  502    0  0.17823282400E+03 -0.45112412267E+02  0.75701720883E+03  0.77902318563E+03  0.00000000000E+00 0. -1.
         -4    1    3    3    0  502  0.12688506877E+03  0.27586171369E+02  0.36823869755E+03  0.39046197753E+03  0.00000000000E+00 0.  1.
         13    1    5    5    0    0 -0.17194340620E+03  0.13594330642E+03  0.30987638488E+03  0.37956355384E+03  0.00000000000E+00 0. -1.
        -13    1    5    5    0    0 -0.19221076706E+03  0.47194297403E+02  0.31876122460E+03  0.37520794100E+03  0.00000000000E+00 0.  1.
          2    1    6    6  503    0  0.29070208555E+02 -0.17806030170E+02  0.62825192480E+02  0.71478224278E+02  0.00000000000E+00 0. -1.
         -2    1    6    6    0  503  0.29966071936E+02 -0.14780533275E+03  0.74822363151E+03  0.76327123922E+03  0.00000000000E+00 0.  1.
<mgrwt>
<rscale>  0 0.45785846E+03</rscale>
<asrwt>0</asrwt>
<pdfrwt beam="1">  1        1 0.40953444E+00 0.45785846E+03</pdfrwt>
<pdfrwt beam="2">  1       -1 0.14927985E-01 0.45785846E+03</pdfrwt>
<totfact> 0.38111161E+01</totfact>
</mgrwt>
</event>
<event>
12    1  0.1335216E-007  0.1328772E+04  0.7818608E-02  0.9007055E-01
          2   -1    0    0  501    0  0.00000000000E+00  0.00000000000E+00  0.21545865750E+04  0.21545865750E+04  0.00000000000E+00 0. -1.
         -2   -1    0    0    0  501 -0.00000000000E+00 -0.00000000000E+00 -0.93228396770E+03  0.93228396770E+03  0.00000000000E+00 0.  1.
         23    2    1    2    0    0  0.28622278174E+03  0.12296505073E+04  0.11115300977E+04  0.16846339839E+04  0.92350694260E+02 0.  0.
    5000000    2    1    2    0    0 -0.28622278174E+03 -0.12296505073E+04  0.11077250962E+03  0.14022365588E+04  0.60002747185E+03 0.  0.
         23    2    4    4    0    0 -0.36576346622E+02  0.36005339151E+02  0.25928803075E+02  0.10645875476E+03  0.89593247829E+02 0.  0.
         23    2    4    4    0    0 -0.24964643512E+03 -0.12656558465E+04  0.84843706543E+02  0.12957778040E+04  0.87370467525E+02 0.  0.
          2    1    3    3  502    0  0.22179378897E+03  0.93748523144E+03  0.89869408685E+03  0.13174680663E+04  0.00000000000E+00 0. -1.
         -2    1    3    3    0  502  0.64428992771E+02  0.29216527589E+03  0.21283601084E+03  0.36716591761E+03  0.00000000000E+00 0.  1.
         11    1    5    5    0    0  0.21882530421E+02  0.38633073081E+02  0.15441697182E+02  0.47008568211E+02  0.00000000000E+00 0. -1.
        -11    1    5    5    0    0 -0.58458877043E+02 -0.26277339303E+01  0.10487105892E+02  0.59450186549E+02  0.00000000000E+00 0.  1.
          3    1    6    6  503    0 -0.66818849877E+02 -0.20041936132E+03  0.32004484242E+02  0.21367490752E+03  0.00000000000E+00 0. -1.
         -3    1    6    6    0  503 -0.18282758524E+03 -0.10652364852E+04  0.52839222301E+02  0.10821028965E+04  0.00000000000E+00 0.  1.
<mgrwt>
<rscale>  0 0.13287719E+04</rscale>
<asrwt>0</asrwt>
<pdfrwt beam="1">  1        2 0.33147486E+00 0.13287719E+04</pdfrwt>
<pdfrwt beam="2">  1       -2 0.14342830E+00 0.13287719E+04</pdfrwt>
<totfact> 0.17750133E+00</totfact>
</mgrwt>
</event>
<event>
12    1  0.1335216E-007  0.8237184E+03  0.7818608E-02  0.9526306E-01
         -1   -1    0    0    0  501 -0.00000000000E+00  0.00000000000E+00  0.17470122930E+04  0.17470122930E+04  0.00000000000E+00 0.  1.
          1   -1    0    0  501    0  0.00000000000E+00 -0.00000000000E+00 -0.47969178926E+03  0.47969178926E+03  0.00000000000E+00 0. -1.
         23    2    1    2    0    0 -0.14248754927E+03 -0.71940672091E+03  0.13756201362E+03  0.75217749391E+03  0.94862758595E+02 0.  0.
    5000000    2    1    2    0    0  0.14248754927E+03  0.71940672091E+03  0.11297584901E+04  0.14745265883E+04  0.60002140122E+03 0.  0.
         23    2    4    4    0    0  0.22861308212E+03  0.76320498643E+03  0.10466514147E+04  0.13185381716E+04  0.91202704502E+02 0.  0.
         23    2    4    4    0    0 -0.86125532850E+02 -0.43798265519E+02  0.83107075363E+02  0.15598841674E+03  0.89942785766E+02 0.  0.
          4    1    3    3  502    0 -0.11540080725E+03 -0.38461537608E+03  0.10275463823E+03  0.41449348548E+03  0.00000000000E+00 0. -1.
         -4    1    3    3    0  502 -0.27086742028E+02 -0.33479134484E+03  0.34807375388E+02  0.33768400844E+03  0.00000000000E+00 0.  1.
         11    1    5    5    0    0  0.17840427964E+01  0.12663282410E+02  0.43395589810E+02  0.45240675780E+02  0.00000000000E+00 0. -1.
        -11    1    5    5    0    0  0.22682903933E+03  0.75054170402E+03  0.10032558249E+04  0.12732974958E+04  0.00000000000E+00 0.  1.
          3    1    6    6  503    0 -0.36973997242E+02  0.11912324881E+02  0.70695822316E+02  0.80665229492E+02  0.00000000000E+00 0. -1.
         -3    1    6    6    0  503 -0.49151535608E+02 -0.55710590400E+02  0.12411253047E+02  0.75323187251E+02  0.00000000000E+00 0.  1.
<mgrwt>
<rscale>  0 0.82371840E+03</rscale>
<asrwt>0</asrwt>
<pdfrwt beam="1">  1        1 0.73798738E-01 0.82371840E+03</pdfrwt>
<pdfrwt beam="2">  1       -1 0.26877112E+00 0.82371840E+03</pdfrwt>
<totfact> 0.25544884E+00</totfact>
</mgrwt>
</event>
<event>
12    1  0.1335216E-007  0.5949635E+03  0.7818608E-02  0.9915911E-01
          1   -1    0    0  501    0  0.00000000000E+00  0.00000000000E+00  0.20903838816E+04  0.20903838816E+04  0.00000000000E+00 0. -1.
         -1   -1    0    0    0  501 -0.00000000000E+00 -0.00000000000E+00 -0.46585744945E+03  0.46585744945E+03  0.00000000000E+00 0.  1.
         23    2    1    2    0    0 -0.22835398669E+03 -0.38698872890E+03 -0.26037956806E+03  0.52774910058E+03  0.93892354182E+02 0.  0.
    5000000    2    1    2    0    0  0.22835398669E+03  0.38698872890E+03  0.18849060003E+04  0.20284922305E+04  0.60000356660E+03 0.  0.
         23    2    4    4    0    0  0.19680456274E+03  0.52872357885E+03  0.15552240215E+04  0.16570598692E+04  0.94047830983E+02 0.  0.
         23    2    4    4    0    0  0.31549423948E+02 -0.14173484995E+03  0.32968197877E+03  0.37143236127E+03  0.90485678612E+02 0.  0.
          4    1    3    3  502    0 -0.56440504677E+02 -0.74751851064E+02 -0.99617022678E+02  0.13673668496E+03  0.00000000000E+00 0. -1.
         -4    1    3    3    0  502 -0.17191348201E+03 -0.31223687784E+03 -0.16076254538E+03  0.39101241563E+03  0.00000000000E+00 0.  1.
         13    1    5    5    0    0  0.10261271167E+03  0.38521526722E+03  0.10277474339E+04  0.11023542800E+04  0.00000000000E+00 0.  1.
        -13    1    5    5    0    0  0.94191851075E+02  0.14350831162E+03  0.52747658756E+03  0.55470558925E+03  0.00000000000E+00 0. -1.
          2    1    6    6  503    0  0.43245405492E+02 -0.20742953573E+02  0.11725705806E+03  0.12668722463E+03  0.00000000000E+00 0. -1.
         -2    1    6    6    0  503 -0.11695981544E+02 -0.12099189637E+03  0.21242492071E+03  0.24474513665E+03  0.00000000000E+00 0.  1.
<mgrwt>
<rscale>  0 0.59496351E+03</rscale>
<asrwt>0</asrwt>
<pdfrwt beam="1">  1        1 0.32159751E+00 0.59496351E+03</pdfrwt>
<pdfrwt beam="2">  1       -1 0.71670378E-01 0.59496351E+03</pdfrwt>
<totfact> 0.55092626E+00</totfact>
</mgrwt>
</event>
<event>
12    1  0.1335216E-007  0.7154982E+03  0.7818608E-02  0.9691089E-01
         -2   -1    0    0    0  501 -0.00000000000E+00  0.00000000000E+00  0.17141295209E+04  0.17141295209E+04  0.00000000000E+00 0.  1.
          2   -1    0    0  501    0  0.00000000000E+00 -0.00000000000E+00 -0.49643233652E+03  0.49643233652E+03  0.00000000000E+00 0. -1.
         23    2    1    2    0    0 -0.15650988401E+03 -0.67455034539E+03  0.10767384498E+04  0.12834931031E+04  0.92061631856E+02 0.  0.
    5000000    2    1    2    0    0  0.15650988401E+03  0.67455034539E+03  0.14095873457E+03  0.92706875437E+03  0.60006132871E+03 0.  0.
         23    2    4    4    0    0  0.15598526473E+03  0.59885588355E+03 -0.12331706454E+03  0.63752137870E+03  0.90921052631E+02 0.  0.
         23    2    4    4    0    0  0.52461927019E+00  0.75694461843E+02  0.26427579911E+03  0.28954737567E+03  0.90917863949E+02 0.  0.
          1    1    3    3  502    0 -0.56261895202E+02 -0.25415286376E+03  0.32522576908E+03  0.41657037807E+03  0.00000000000E+00 0. -1.
         -1    1    3    3    0  502 -0.10024798880E+03 -0.42039748163E+03  0.75151268076E+03  0.86692272503E+03  0.00000000000E+00 0.  1.
         11    1    5    5    0    0  0.82798174877E+02  0.46195026716E+03 -0.10759163392E+03  0.48148680853E+03  0.00000000000E+00 0.  1.
        -11    1    5    5    0    0  0.73187089858E+02  0.13690561639E+03 -0.15725430618E+02  0.15603457017E+03  0.00000000000E+00 0. -1.
          3    1    6    6  503    0 -0.42177619124E+02  0.32826546903E+02  0.16337262488E+03  0.17189283957E+03  0.00000000000E+00 0. -1.
         -3    1    6    6    0  503  0.42702238394E+02  0.42867914939E+02  0.10090317423E+03  0.11765453610E+03  0.00000000000E+00 0.  1.
<mgrwt>
<rscale>  0 0.71549820E+03</rscale>
<asrwt>0</asrwt>
<pdfrwt beam="1">  1        2 0.76374206E-01 0.71549820E+03</pdfrwt>
<pdfrwt beam="2">  1       -2 0.26371223E+00 0.71549820E+03</pdfrwt>
<totfact> 0.34111456E+00</totfact>
</mgrwt>
</event>
<event>
12    1  0.1335216E-007  0.1207053E+04  0.7818608E-02  0.9106705E-01
          2   -1    0    0  501    0  0.00000000000E+00  0.00000000000E+00  0.52772939621E+04  0.52772939621E+04  0.00000000000E+00 0. -1.
         -2   -1    0    0    0  501 -0.00000000000E+00 -0.00000000000E+00 -0.30546698094E+03  0.30546698094E+03  0.00000000000E+00 0.  1.
         23    2    1    2    0    0  0.11554789390E+03  0.11645286014E+04  0.29025038551E+04  0.31308691859E+04  0.91296503331E+02 0.  0.
    5000000    2    1    2    0    0 -0.11554789390E+03 -0.11645286014E+04  0.20693231261E+04  0.24518917571E+04  0.60016398527E+03 0.  0.
         23    2    4    4    0    0 -0.12787178879E+03 -0.85405793044E+02  0.60393053390E+03  0.62967324247E+03  0.90060860859E+02 0.  0.
         23    2    4    4    0    0  0.12323894890E+02 -0.10791228083E+04  0.14653925922E+04  0.18222185146E+04  0.91907301099E+02 0.  0.
          2    1    3    3  502    0  0.98609167874E+01  0.45410016667E+03  0.10520706748E+04  0.11459305842E+04  0.00000000000E+00 0. -1.
         -2    1    3    3    0  502  0.10568697711E+03  0.71042843469E+03  0.18504331803E+04  0.19849386017E+04  0.00000000000E+00 0.  1.
         13    1    5    5    0    0 -0.99020861222E+02 -0.44563731889E+02  0.25470252242E+03  0.27688342688E+03  0.00000000000E+00 0.  1.
        -13    1    5    5    0    0 -0.28850927565E+02 -0.40842061155E+02  0.34922801148E+03  0.35278981559E+03  0.00000000000E+00 0. -1.
          4    1    6    6  503    0  0.26289497572E+02 -0.88075995954E+02  0.12869542400E+03  0.15814876195E+03  0.00000000000E+00 0. -1.
         -4    1    6    6    0  503 -0.13965602682E+02 -0.99104681236E+03  0.13366971682E+04  0.16640697527E+04  0.00000000000E+00 0.  1.
<mgrwt>
<rscale>  0 0.12070530E+04</rscale>
<asrwt>0</asrwt>
<pdfrwt beam="1">  1        2 0.81189131E+00 0.12070530E+04</pdfrwt>
<pdfrwt beam="2">  1       -2 0.46994924E-01 0.12070530E+04</pdfrwt>
<totfact> 0.65242895E-02</totfact>
</mgrwt>
</event>
<event>
12    1  0.1335216E-007  0.1722362E+04  0.7818608E-02  0.8748712E-01
          2   -1    0    0  501    0  0.00000000000E+00  0.00000000000E+00  0.15992494272E+04  0.15992494272E+04  0.00000000000E+00 0. -1.
         -2   -1    0    0    0  501 -0.00000000000E+00 -0.00000000000E+00 -0.21204640621E+04  0.21204640621E+04  0.00000000000E+00 0.  1.
         23    2    1    2    0    0  0.10044774967E+04 -0.13905384105E+04 -0.77541491115E+03  0.18846979614E+04  0.90807536905E+02 0.  0.
    5000000    2    1    2    0    0 -0.10044774967E+04  0.13905384105E+04  0.25420027617E+03  0.18350155279E+04  0.60007674046E+03 0.  0.
         23    2    4    4    0    0 -0.24046125486E+03  0.22347408952E+03  0.27362418276E+03  0.43687105249E+03  0.90685386570E+02 0.  0.
         23    2    4    4    0    0 -0.76401624189E+03  0.11670643210E+04 -0.19423906586E+02  0.13981444754E+04  0.93116800881E+02 0.  0.
          1    1    3    3  502    0  0.47306051717E+03 -0.71686428229E+03 -0.35797083659E+03  0.93049651906E+03  0.00000000000E+00 0. -1.
         -1    1    3    3    0  502  0.53141697958E+03 -0.67367412824E+03 -0.41744407457E+03  0.95420144238E+03  0.00000000000E+00 0.  1.
         13    1    5    5    0    0 -0.23759641054E+03  0.20493676187E+03  0.22895031920E+03  0.38841907694E+03  0.00000000000E+00 0. -1.
        -13    1    5    5    0    0 -0.28648443130E+01  0.18537327651E+02  0.44673863556E+02  0.48451975547E+02  0.00000000000E+00 0.  1.
          4    1    6    6  503    0 -0.38978324581E+03  0.56633509313E+03  0.34177930719E+02  0.68835641014E+03  0.00000000000E+00 0. -1.
         -4    1    6    6    0  503 -0.37423299608E+03  0.60072922788E+03 -0.53601837305E+02  0.70978806523E+03  0.00000000000E+00 0.  1.
<mgrwt>
<rscale>  0 0.17223617E+04</rscale>
<asrwt>0</asrwt>
<pdfrwt beam="1">  1        2 0.24603837E+00 0.17223617E+04</pdfrwt>
<pdfrwt beam="2">  1       -2 0.32622524E+00 0.17223617E+04</pdfrwt>
<totfact> 0.22468536E-01</totfact>
</mgrwt>
</event>
<event>
12    1  0.1335216E-007  0.7489397E+03  0.7818608E-02  0.9637015E-01
         -2   -1    0    0    0  501 -0.00000000000E+00  0.00000000000E+00  0.96128926073E+03  0.96128926073E+03  0.00000000000E+00 0. -1.
          2   -1    0    0  501    0  0.00000000000E+00 -0.00000000000E+00 -0.24872978141E+04  0.24872978141E+04  0.00000000000E+00 0.  1.
         23    2    1    2    0    0 -0.33083980001E+03  0.62495494745E+03  0.72340958242E+03  0.10155283600E+04  0.89178284229E+02 0.  0.
    5000000    2    1    2    0    0  0.33083980001E+03 -0.62495494745E+03 -0.22494181358E+04  0.24330587149E+04  0.59989090730E+03 0.  0.
         23    2    4    4    0    0 -0.47962196559E+02 -0.76995879330E+02 -0.10547703176E+04  0.10622806576E+04  0.87584444540E+02 0.  0.
         23    2    4    4    0    0  0.37880199657E+03 -0.54795906812E+03 -0.11946478182E+04  0.13707780573E+04  0.89994331711E+02 0.  0.
          3    1    3    3  502    0 -0.26130880981E+03  0.51675702989E+03  0.54196375139E+03  0.79312346445E+03  0.00000000000E+00 0. -1.
         -3    1    3    3    0  502 -0.69530990195E+02  0.10819791755E+03  0.18144583103E+03  0.22240489554E+03  0.00000000000E+00 0.  1.
         13    1    5    5    0    0  0.13776880109E+02 -0.57045065757E+02 -0.39631802296E+03  0.40063938557E+03  0.00000000000E+00 0. -1.
        -13    1    5    5    0    0 -0.61739076669E+02 -0.19950813573E+02 -0.65845229465E+03  0.66164127205E+03  0.00000000000E+00 0.  1.
          1    1    6    6  503    0  0.30238396344E+03 -0.41875739407E+03 -0.99402542244E+03  0.11202144245E+04  0.00000000000E+00 0. -1.
         -1    1    6    6    0  503  0.76418033133E+02 -0.12920167405E+03 -0.20062239579E+03  0.25056363275E+03  0.00000000000E+00 0.  1.
<mgrwt>
<rscale>  0 0.74893965E+03</rscale>
<asrwt>0</asrwt>
<pdfrwt beam="1">  1        2 0.38266120E+00 0.74893965E+03</pdfrwt>
<pdfrwt beam="2">  1       -2 0.14789066E+00 0.74893965E+03</pdfrwt>
<totfact> 0.11587384E+00</totfact>
</mgrwt>
</event>
<event>
12    1  0.1335216E-007  0.3762080E+03  0.7818608E-02  0.1052344E+00
         -2   -1    0    0    0  501 -0.00000000000E+00  0.00000000000E+00  0.11241647687E+03  0.11241647687E+03  0.00000000000E+00 0.  1.
          2   -1    0    0  501    0  0.00000000000E+00 -0.00000000000E+00 -0.28355635989E+04  0.28355635989E+04  0.00000000000E+00 0. -1.
         23    2    1    2    0    0 -0.23677495601E+03 -0.17119037093E+03 -0.16901347273E+04  0.17181662132E+04  0.10085245189E+03 0.  0.
    5000000    2    1    2    0    0  0.23677495601E+03  0.17119037093E+03 -0.10330123948E+04  0.12298138626E+04  0.59996583729E+03 0.  0.
         23    2    4    4    0    0  0.22976282061E+03  0.23558881722E+03 -0.21336278210E+03  0.40263317779E+03  0.91086522254E+02 0.  0.
         23    2    4    4    0    0  0.70121353968E+01 -0.64398446297E+02 -0.81964961267E+03  0.82718068477E+03  0.90587348937E+02 0.  0.
          1    1    3    3  502    0 -0.22788689507E+03 -0.13414075193E+03 -0.13308524850E+04  0.13568693802E+04  0.00000000000E+00 0. -1.
         -1    1    3    3    0  502 -0.88880609382E+01 -0.37049618999E+02 -0.35928224232E+03  0.36129683300E+03  0.00000000000E+00 0.  1.
         13    1    5    5    0    0  0.70969800822E+02  0.13573355912E+03 -0.83089691059E+02  0.17425328823E+03  0.00000000000E+00 0.  1.
        -13    1    5    5    0    0  0.15879301979E+03  0.99855258105E+02 -0.13027309104E+03  0.22837988956E+03  0.00000000000E+00 0. -1.
          4    1    6    6  503    0  0.42622635592E+02 -0.94568250512E+01 -0.41199187422E+03  0.41429871473E+03  0.00000000000E+00 0. -1.
         -4    1    6    6    0  503 -0.35610500195E+02 -0.54941621246E+02 -0.40765773845E+03  0.41288197004E+03  0.00000000000E+00 0.  1.
<mgrwt>
<rscale>  0 0.37620803E+03</rscale>
<asrwt>0</asrwt>
<pdfrwt beam="1">  1        2 0.43624055E+00 0.37620803E+03</pdfrwt>
<pdfrwt beam="2">  1       -2 0.17294843E-01 0.37620803E+03</pdfrwt>
<totfact> 0.68108996E+01</totfact>
</mgrwt>
</event>
<event>
12    1  0.1335216E-007  0.4260527E+03  0.7818608E-02  0.1035114E+00
          3   -1    0    0  501    0  0.00000000000E+00  0.00000000000E+00  0.43870664445E+03  0.43870664445E+03  0.00000000000E+00 0. -1.
         -3   -1    0    0    0  501 -0.00000000000E+00 -0.00000000000E+00 -0.50066312737E+03  0.50066312737E+03  0.00000000000E+00 0.  1.
         23    2    1    2    0    0  0.91722573027E+02  0.20966644841E+03  0.10971581097E+03  0.27466434462E+03  0.10502329759E+03 0.  0.
    5000000    2    1    2    0    0 -0.91722573027E+02 -0.20966644841E+03 -0.17167229390E+03  0.66470542719E+03  0.59999073197E+03 0.  0.
         23    2    4    4    0    0 -0.27686505369E+03 -0.29996984359E+03 -0.92050587088E+02  0.42793896746E+03  0.89567205338E+02 0.  0.
         23    2    4    4    0    0  0.18514248066E+03  0.90303395175E+02 -0.79621706809E+02  0.23676645973E+03  0.85359820371E+02 0.  0.
          2    1    3    3  502    0 -0.86525272428E+01  0.32284198121E+02  0.53771858274E+02  0.63313098315E+02  0.00000000000E+00 0. -1.
         -2    1    3    3    0  502  0.10037510027E+03  0.17738225029E+03  0.55943952699E+02  0.21135124631E+03  0.00000000000E+00 0.  1.
         11    1    5    5    0    0 -0.63354255059E+02 -0.75289718841E+02 -0.62534225902E+02  0.11658830476E+03  0.00000000000E+00 0.  1.
        -11    1    5    5    0    0 -0.21351079863E+03 -0.22468012475E+03 -0.29516361186E+02  0.31135066270E+03  0.00000000000E+00 0. -1.
          1    1    6    6  503    0  0.61289897026E+02  0.22246530036E+02  0.14728706727E+02  0.66845301839E+02  0.00000000000E+00 0. -1.
         -1    1    6    6    0  503  0.12385258363E+03  0.68056865139E+02 -0.94350413536E+02  0.16992115789E+03  0.00000000000E+00 0.  1.
<mgrwt>
<rscale>  0 0.42605268E+03</rscale>
<asrwt>0</asrwt>
<pdfrwt beam="1">  1        3 0.67493330E-01 0.42605268E+03</pdfrwt>
<pdfrwt beam="2">  1       -3 0.77025097E-01 0.42605268E+03</pdfrwt>
<totfact> 0.86980425E+00</totfact>
</mgrwt>
</event>
<event>
12    1  0.1387288E-007  0.1305349E+04  0.7818608E-02  0.9025334E-01
         -1   -1    0    0    0  501 -0.00000000000E+00  0.00000000000E+00  0.65901736086E+03  0.65901736086E+03  0.00000000000E+00 0.  1.
          1   -1    0    0  501    0  0.00000000000E+00 -0.00000000000E+00 -0.26254083383E+04  0.26254083383E+04  0.00000000000E+00 0. -1.
         23    2    1    2    0    0 -0.84591017383E+03  0.90502721898E+03 -0.77592764119E+03  0.14645939843E+04  0.91288253174E+02 0.  0.
    5000000    2    1    2    0    0  0.84591017383E+03 -0.90502721898E+03 -0.11904633363E+04  0.18198317149E+04  0.59995518685E+03 0.  0.
         23    2    4    4    0    0  0.43223434156E+02 -0.41139119401E+03 -0.44799997299E+03  0.61652439487E+03  0.91035014695E+02 0.  0.
         23    2    4    4    0    0  0.80268673968E+03 -0.49363602497E+03 -0.74246336327E+03  0.12033073200E+04  0.93349522783E+02 0.  0.
          1    1    3    3  502    0 -0.54527703830E+03  0.51984713880E+03 -0.45850828754E+03  0.88192853790E+03  0.00000000000E+00 0. -1.
         -1    1    3    3    0  502 -0.30063313553E+03  0.38518008018E+03 -0.31741935365E+03  0.58266544639E+03  0.00000000000E+00 0.  1.
         11    1    5    5    0    0  0.61054093310E+02 -0.18068144717E+03 -0.22782713991E+03  0.29711713741E+03  0.00000000000E+00 0. -1.
        -11    1    5    5    0    0 -0.17830659154E+02 -0.23070974684E+03 -0.22017283308E+03  0.31940725746E+03  0.00000000000E+00 0.  1.
          1    1    6    6  503    0  0.36413389240E+03 -0.27661307603E+03 -0.34247919208E+03  0.57131452146E+03  0.00000000000E+00 0. -1.
         -1    1    6    6    0  503  0.43855284728E+03 -0.21702294894E+03 -0.39998417119E+03  0.63199279855E+03  0.00000000000E+00 0.  1.
<mgrwt>
<rscale>  0 0.13053491E+04</rscale>
<asrwt>0</asrwt>
<pdfrwt beam="1">  1        1 0.40390897E+00 0.13053491E+04</pdfrwt>
<pdfrwt beam="2">  1       -1 0.10138729E+00 0.13053491E+04</pdfrwt>
<totfact> 0.10003735E+00</totfact>
</mgrwt>
</event>
<event>
12    1  0.1335216E-007  0.9250327E+03  0.7818608E-02  0.9394819E-01
          1   -1    0    0  501    0  0.00000000000E+00  0.00000000000E+00  0.14120168183E+04  0.14120168183E+04  0.00000000000E+00 0. -1.
         -1   -1    0    0    0  501 -0.00000000000E+00 -0.00000000000E+00 -0.65927619963E+03  0.65927619963E+03  0.00000000000E+00 0.  1.
         23    2    1    2    0    0  0.80536793976E+03  0.31206589419E+03  0.44300791161E+03  0.97494689821E+03  0.90899966347E+02 0.  0.
    5000000    2    1    2    0    0 -0.80536793976E+03 -0.31206589419E+03  0.30973270706E+03  0.10963461197E+04  0.60003151891E+03 0.  0.
         23    2    4    4    0    0 -0.74249001820E+03 -0.97811456180E+02  0.38293894868E+03  0.84624402853E+03  0.92888154910E+02 0.  0.
         23    2    4    4    0    0 -0.62877921561E+02 -0.21425443801E+03 -0.73206241621E+02  0.25010209119E+03  0.85634718297E+02 0.  0.
          1    1    3    3  502    0  0.58399154894E+03  0.18845089778E+03  0.28905159503E+03  0.67831459862E+03  0.00000000000E+00 0. -1.
         -1    1    3    3    0  502  0.22137639081E+03  0.12361499641E+03  0.15395631658E+03  0.29663229959E+03  0.00000000000E+00 0.  1.
         11    1    5    5    0    0 -0.54676952534E+03 -0.10156146583E+03  0.31436227073E+03  0.63882335778E+03  0.00000000000E+00 0.  1.
        -11    1    5    5    0    0 -0.19572049285E+03  0.37500096530E+01  0.68576677945E+02  0.20742067075E+03  0.00000000000E+00 0. -1.
          4    1    6    6  503    0 -0.28216669784E+01 -0.11463173628E+03 -0.68739065033E+02  0.13369164457E+03  0.00000000000E+00 0. -1.
         -4    1    6    6    0  503 -0.60056254582E+02 -0.99622701734E+02 -0.44671765876E+01  0.11641044662E+03  0.00000000000E+00 0.  1.
<mgrwt>
<rscale>  0 0.92503271E+03</rscale>
<asrwt>0</asrwt>
<pdfrwt beam="1">  1        1 0.21723336E+00 0.92503271E+03</pdfrwt>
<pdfrwt beam="2">  1       -1 0.10142711E+00 0.92503271E+03</pdfrwt>
<totfact> 0.70482627E+00</totfact>
</mgrwt>
</event>
<event>
12    1  0.1335216E-007  0.1062133E+04  0.7818608E-02  0.9242906E-01
         -2   -1    0    0    0  501 -0.00000000000E+00  0.00000000000E+00  0.10029543238E+04  0.10029543238E+04  0.00000000000E+00 0.  1.
          2   -1    0    0  501    0  0.00000000000E+00 -0.00000000000E+00 -0.14201334505E+04  0.14201334505E+04  0.00000000000E+00 0. -1.
         23    2    1    2    0    0  0.90506893266E+03  0.38884322544E+03 -0.72828804665E+03  0.12284299261E+04  0.91037232379E+02 0.  0.
    5000000    2    1    2    0    0 -0.90506893266E+03 -0.38884322544E+03  0.31110891991E+03  0.11946578482E+04  0.60005815326E+03 0.  0.
         23    2    4    4    0    0 -0.60715847285E+02  0.12126375918E+03  0.43227826840E+02  0.16836540737E+03  0.89927481807E+02 0.  0.
         23    2    4    4    0    0 -0.84435308537E+03 -0.51010698462E+03  0.26788109307E+03  0.10262924408E+04  0.91512979769E+02 0.  0.
          1    1    3    3  502    0  0.57414436319E+03  0.19907771693E+03 -0.45624462110E+03  0.75989001930E+03  0.00000000000E+00 0. -1.
         -1    1    3    3    0  502  0.33092456947E+03  0.18976550851E+03 -0.27204342555E+03  0.46853990682E+03  0.00000000000E+00 0.  1.
         13    1    5    5    0    0  0.30518427463E+01 -0.35119689061E+01  0.26890697565E+02  0.27290241576E+02  0.00000000000E+00 0.  1.
        -13    1    5    5    0    0 -0.63767690031E+02  0.12477572809E+03  0.16337129275E+02  0.14107516580E+03  0.00000000000E+00 0. -1.
          2    1    6    6  503    0 -0.16340380715E+03 -0.14074017249E+03  0.46663513290E+02  0.22064923252E+03  0.00000000000E+00 0. -1.
         -2    1    6    6    0  503 -0.68094927823E+03 -0.36936681213E+03  0.22121757978E+03  0.80564320826E+03  0.00000000000E+00 0.  1.
<mgrwt>
<rscale>  0 0.10621331E+04</rscale>
<asrwt>0</asrwt>
<pdfrwt beam="1">  1        2 0.21848207E+00 0.10621331E+04</pdfrwt>
<pdfrwt beam="2">  1       -2 0.15430067E+00 0.10621331E+04</pdfrwt>
<totfact> 0.38583108E+00</totfact>
</mgrwt>
</event>
<event>
12    1  0.1335216E-007  0.5144760E+03  0.7818608E-02  0.1010068E+00
          1   -1    0    0  501    0  0.00000000000E+00  0.00000000000E+00  0.29388475650E+03  0.29388475650E+03  0.00000000000E+00 0. -1.
         -1   -1    0    0    0  501 -0.00000000000E+00 -0.00000000000E+00 -0.17720992467E+04  0.17720992467E+04  0.00000000000E+00 0.  1.
         23    2    1    2    0    0  0.46804305582E+03 -0.95613993025E+02 -0.11168338786E+04  0.12181250042E+04  0.91127798884E+02 0.  0.
    5000000    2    1    2    0    0 -0.46804305582E+03  0.95613993025E+02 -0.36138061159E+03  0.84785899897E+03  0.60005216268E+03 0.  0.
         23    2    4    4    0    0 -0.15552535805E+03  0.14763375623E+03  0.12193530883E+03  0.26268040439E+03  0.90271326217E+02 0.  0.
         23    2    4    4    0    0 -0.31251769777E+03 -0.52019763204E+02 -0.48331592042E+03  0.58517859458E+03  0.92012724344E+02 0.  0.
          3    1    3    3  502    0  0.41134960732E+03 -0.11376565801E+03 -0.98163725624E+03  0.10704031144E+04  0.00000000000E+00 0. -1.
         -3    1    3    3    0  502  0.56693448501E+02  0.18151664984E+02 -0.13519662233E+03  0.14772188983E+03  0.00000000000E+00 0.  1.
         13    1    5    5    0    0 -0.69187409665E+02  0.98468039340E+02  0.23107348417E+02  0.12254306173E+03  0.00000000000E+00 0. -1.
        -13    1    5    5    0    0 -0.86337948387E+02  0.49165716889E+02  0.98827960411E+02  0.14013734266E+03  0.00000000000E+00 0.  1.
          1    1    6    6  503    0 -0.12803408586E+03  0.96916018229E+01 -0.25288093024E+03  0.28361138758E+03  0.00000000000E+00 0. -1.
         -1    1    6    6    0  503 -0.18448361191E+03 -0.61711365027E+02 -0.23043499018E+03  0.30156720700E+03  0.00000000000E+00 0.  1.
<mgrwt>
<rscale>  0 0.51447605E+03</rscale>
<asrwt>0</asrwt>
<pdfrwt beam="1">  1        1 0.45213040E-01 0.51447605E+03</pdfrwt>
<pdfrwt beam="2">  1       -1 0.27263065E+00 0.51447605E+03</pdfrwt>
<totfact> 0.48552820E+00</totfact>
</mgrwt>
</event>
<event>
12    1  0.1335216E-007  0.4181540E+03  0.7818608E-02  0.1037669E+00
         -2   -1    0    0    0  501 -0.00000000000E+00  0.00000000000E+00  0.61971592451E+03  0.61971592451E+03  0.00000000000E+00 0.  1.
          2   -1    0    0  501    0  0.00000000000E+00 -0.00000000000E+00 -0.13627378999E+04  0.13627378999E+04  0.00000000000E+00 0. -1.
         23    2    1    2    0    0 -0.19089667928E+03  0.31793674999E+03  0.45388777686E+03  0.59319448904E+03  0.91325071502E+02 0.  0.
    5000000    2    1    2    0    0  0.19089667928E+03 -0.31793674999E+03 -0.11969097522E+04  0.13892593353E+04  0.59993601884E+03 0.  0.
         23    2    4    4    0    0  0.17331669392E+03 -0.45079826215E+02 -0.10420061149E+04  0.10612897278E+04  0.92131839081E+02 0.  0.
         23    2    4    4    0    0  0.17579985356E+02 -0.27285692378E+03 -0.15490363735E+03  0.32796960754E+03  0.93856112572E+02 0.  0.
          4    1    3    3  502    0 -0.16820902019E+03  0.22966271334E+03  0.29456147802E+03  0.40964094120E+03  0.00000000000E+00 0. -1.
         -4    1    3    3    0  502 -0.22687659084E+02  0.88274036659E+02  0.15932629884E+03  0.18355354784E+03  0.00000000000E+00 0.  1.
         11    1    5    5    0    0  0.94120566139E+02 -0.46887283804E+02 -0.79417254150E+03  0.80110369119E+03  0.00000000000E+00 0.  1.
        -11    1    5    5    0    0  0.79196127781E+02  0.18074575889E+01 -0.24783357335E+03  0.26018603659E+03  0.00000000000E+00 0. -1.
          4    1    6    6  503    0 -0.12197023085E+02 -0.96616432174E+02 -0.10042395472E+02  0.97899704009E+02  0.00000000000E+00 0. -1.
         -4    1    6    6    0  503  0.29777008440E+02 -0.17624049160E+03 -0.14486124188E+03  0.23006990353E+03  0.00000000000E+00 0.  1.
<mgrwt>
<rscale>  0 0.41815396E+03</rscale>
<asrwt>0</asrwt>
<pdfrwt beam="1">  1        2 0.20965198E+00 0.41815396E+03</pdfrwt>
<pdfrwt beam="2">  1       -2 0.95340912E-01 0.41815396E+03</pdfrwt>
<totfact> 0.15167737E+01</totfact>
</mgrwt>
</event>
<event>
12    1  0.1335216E-007  0.2226595E+04  0.7818608E-02  0.8507439E-01
          2   -1    0    0  501    0  0.00000000000E+00  0.00000000000E+00  0.42386524592E+04  0.42386524592E+04  0.00000000000E+00 0. -1.
         -2   -1    0    0    0  501 -0.00000000000E+00 -0.00000000000E+00 -0.11898008117E+04  0.11898008117E+04  0.00000000000E+00 0.  1.
         23    2    1    2    0    0 -0.18890794672E+04  0.11153222226E+04  0.17623959145E+04  0.28153984528E+04  0.88680295333E+02 0.  0.
    5000000    2    1    2    0    0  0.18890794672E+04 -0.11153222226E+04  0.12864557330E+04  0.26130548181E+04  0.60043503895E+03 0.  0.
         23    2    4    4    0    0  0.16066007192E+04 -0.11397375784E+04  0.10606180560E+04  0.22390317312E+04  0.90469962032E+02 0.  0.
         23    2    4    4    0    0  0.28247874802E+03  0.24415355814E+02  0.22583767701E+03  0.37402308696E+03  0.92196857523E+02 0.  0.
          3    1    3    3  502    0 -0.11569792029E+04  0.67551528596E+03  0.11307960554E+04  0.17531746908E+04  0.00000000000E+00 0. -1.
         -3    1    3    3    0  502 -0.73210026429E+03  0.43980693660E+03  0.63159985910E+03  0.10622237620E+04  0.00000000000E+00 0.  1.
         13    1    5    5    0    0  0.64340469070E+03 -0.40380499339E+03  0.41970494971E+03  0.86785961625E+03  0.00000000000E+00 0.  1.
        -13    1    5    5    0    0  0.96319602852E+03 -0.73593258498E+03  0.64091310626E+03  0.13711721149E+04  0.00000000000E+00 0. -1.
          1    1    6    6  503    0  0.80640805768E+02  0.29052783904E+02  0.11586219599E+03  0.14412165787E+03  0.00000000000E+00 0. -1.
         -1    1    6    6    0  503  0.20183794225E+03 -0.46374280898E+01  0.10997548103E+03  0.22990142909E+03  0.00000000000E+00 0.  1.
<mgrwt>
<rscale>  0 0.22265954E+04</rscale>
<asrwt>0</asrwt>
<pdfrwt beam="1">  1        2 0.65210037E+00 0.22265954E+04</pdfrwt>
<pdfrwt beam="2">  1       -2 0.18304628E+00 0.22265954E+04</pdfrwt>
<totfact> 0.32665533E-02</totfact>
</mgrwt>
</event>
<event>
12    1  0.1335216E-007  0.1529400E+04  0.7818608E-02  0.8865134E-01
          1   -1    0    0  501    0  0.00000000000E+00  0.00000000000E+00  0.20980084021E+04  0.20980084021E+04  0.00000000000E+00 0. -1.
         -1   -1    0    0    0  501 -0.00000000000E+00 -0.00000000000E+00 -0.14401705976E+04  0.14401705976E+04  0.00000000000E+00 0.  1.
         23    2    1    2    0    0 -0.18883924853E+03 -0.14594516716E+04  0.11564259149E+04  0.18725000759E+04  0.57238046601E+02 0.  0.
    5000000    2    1    2    0    0  0.18883924853E+03  0.14594516716E+04 -0.49858811041E+03  0.16656789238E+04  0.60019724227E+03 0.  0.
         23    2    4    4    0    0 -0.18979720423E+03  0.31697350472E+03 -0.15295800249E+03  0.41014884320E+03  0.91272896454E+02 0.  0.
         23    2    4    4    0    0  0.37863645275E+03  0.11424781669E+04 -0.34563010792E+03  0.12555300806E+04  0.90959806946E+02 0.  0.
          1    1    3    3  502    0 -0.29585052849E+02 -0.11344760739E+03  0.86330872087E+02  0.14559757707E+03  0.00000000000E+00 0. -1.
         -1    1    3    3    0  502 -0.15925419568E+03 -0.13460040643E+04  0.10700950428E+04  0.17269024988E+04  0.00000000000E+00 0.  1.
         13    1    5    5    0    0 -0.11460921467E+03  0.26593507502E+03 -0.11228576046E+03  0.31058787519E+03  0.00000000000E+00 0.  1.
        -13    1    5    5    0    0 -0.75187989555E+02  0.51038429700E+02 -0.40672242027E+02  0.99560968010E+02  0.00000000000E+00 0. -1.
          1    1    6    6  503    0  0.35715400095E+03  0.10052552703E+04 -0.32421634830E+03  0.11149947889E+04  0.00000000000E+00 0. -1.
         -1    1    6    6    0  503  0.21482451807E+02  0.13722289667E+03 -0.21413759622E+02  0.14053529167E+03  0.00000000000E+00 0.  1.
<mgrwt>
<rscale>  0 0.15293998E+04</rscale>
<asrwt>0</asrwt>
<pdfrwt beam="1">  1        1 0.32277052E+00 0.15293998E+04</pdfrwt>
<pdfrwt beam="2">  1       -1 0.22156471E+00 0.15293998E+04</pdfrwt>
<totfact> 0.25839139E-01</totfact>
</mgrwt>
</event>
<event>
12    1  0.1335216E-007  0.6071738E+03  0.7818608E-02  0.9890634E-01
          2   -1    0    0  501    0  0.00000000000E+00  0.00000000000E+00  0.10879789201E+04  0.10879789201E+04  0.00000000000E+00 0. -1.
         -2   -1    0    0    0  501 -0.00000000000E+00 -0.00000000000E+00 -0.51103163519E+03  0.51103163519E+03  0.00000000000E+00 0.  1.
         23    2    1    2    0    0  0.54686894518E+03  0.15919549275E+03  0.50843694750E+03  0.76900487014E+03  0.91932108687E+02 0.  0.
    5000000    2    1    2    0    0 -0.54686894518E+03 -0.15919549275E+03  0.68510337357E+02  0.83000568511E+03  0.59983908082E+03 0.  0.
         23    2    4    4    0    0 -0.46436647768E+03 -0.17563995824E+02  0.27878968558E+03  0.54874668388E+03  0.86339531698E+02 0.  0.
         23    2    4    4    0    0 -0.82502467495E+02 -0.14163149692E+03 -0.21027934822E+03  0.28125900123E+03  0.89571666397E+02 0.  0.
          3    1    3    3  502    0  0.33225919510E+03  0.88969883015E+02  0.24649322389E+03  0.42316748722E+03  0.00000000000E+00 0. -1.
         -3    1    3    3    0  502  0.21460975007E+03  0.70225609733E+02  0.26194372361E+03  0.34583738292E+03  0.00000000000E+00 0.  1.
         11    1    5    5    0    0 -0.31081920507E+02 -0.21730214198E+02  0.11486864682E+02  0.39626204104E+02  0.00000000000E+00 0.  1.
        -11    1    5    5    0    0 -0.43328455718E+03  0.41662183739E+01  0.26730282090E+03  0.50912047977E+03  0.00000000000E+00 0. -1.
          3    1    6    6  503    0  0.27739276038E+01  0.38310012772E+01  0.56020170186E+01  0.73317010178E+01  0.00000000000E+00 0. -1.
         -3    1    6    6    0  503 -0.85276395099E+02 -0.14546249820E+03 -0.21588136524E+03  0.27392730021E+03  0.00000000000E+00 0.  1.
<mgrwt>
<rscale>  0 0.60717378E+03</rscale>
<asrwt>0</asrwt>
<pdfrwt beam="1">  1        2 0.16738137E+00 0.60717378E+03</pdfrwt>
<pdfrwt beam="2">  1       -2 0.78620252E-01 0.60717378E+03</pdfrwt>
<totfact> 0.32911663E+01</totfact>
</mgrwt>
</event>
<event>
12    1  0.1335216E-007  0.3680070E+03  0.7818608E-02  0.1055458E+00
         -1   -1    0    0    0  501 -0.00000000000E+00  0.00000000000E+00  0.59664250232E+03  0.59664250232E+03  0.00000000000E+00 0.  1.
          1   -1    0    0  501    0  0.00000000000E+00 -0.00000000000E+00 -0.73944531718E+03  0.73944531718E+03  0.00000000000E+00 0. -1.
         23    2    1    2    0    0 -0.34038349960E+03 -0.46478918011E+02  0.34067157503E+03  0.49239068991E+03  0.91489086011E+02 0.  0.
    5000000    2    1    2    0    0  0.34038349960E+03  0.46478918011E+02 -0.48347438989E+03  0.84369712958E+03  0.60004678498E+03 0.  0.
         23    2    4    4    0    0  0.19457481384E+03 -0.25190407111E+01  0.97505147032E+02  0.23574979289E+03  0.90581495918E+02 0.  0.
         23    2    4    4    0    0  0.14580868576E+03  0.48997958722E+02 -0.58097953693E+03  0.60794733670E+03  0.91661164450E+02 0.  0.
          1    1    3    3  502    0 -0.14780060217E+03  0.22048401578E+02  0.12058573800E+03  0.19202101506E+03  0.00000000000E+00 0. -1.
         -1    1    3    3    0  502 -0.19258289743E+03 -0.68527319589E+02  0.22008583703E+03  0.30036967486E+03  0.00000000000E+00 0.  1.
         13    1    5    5    0    0  0.12307987888E+03  0.42393133172E+02  0.57106201014E+02  0.14215116081E+03  0.00000000000E+00 0.  1.
        -13    1    5    5    0    0  0.71494934961E+02 -0.44912173883E+02  0.40398946018E+02  0.93598632081E+02  0.00000000000E+00 0. -1.
          3    1    6    6  503    0  0.49139826272E+02  0.51063868599E+02 -0.35735613312E+03  0.36431531271E+03  0.00000000000E+00 0. -1.
         -3    1    6    6    0  503  0.96668859489E+02 -0.20659098773E+01 -0.22362340381E+03  0.24363202398E+03  0.00000000000E+00 0.  1.
<mgrwt>
<rscale>  0 0.36800697E+03</rscale>
<asrwt>0</asrwt>
<pdfrwt beam="1">  1        1 0.11376082E+00 0.36800697E+03</pdfrwt>
<pdfrwt beam="2">  1       -1 0.91791154E-01 0.36800697E+03</pdfrwt>
<totfact> 0.31393624E+01</totfact>
</mgrwt>
</event>
<event>
12    1  0.1335216E-007  0.9904531E+03  0.7818608E-02  0.9319078E-01
         -1   -1    0    0    0  501 -0.00000000000E+00  0.00000000000E+00  0.56124217029E+03  0.56124217029E+03  0.00000000000E+00 0.  1.
          1   -1    0    0  501    0  0.00000000000E+00 -0.00000000000E+00 -0.19327741397E+04  0.19327741397E+04  0.00000000000E+00 0. -1.
         23    2    1    2    0    0 -0.79875185152E+03 -0.46108029547E+03 -0.34405518541E+03  0.98862759901E+03  0.91711502782E+02 0.  0.
    5000000    2    1    2    0    0  0.79875185152E+03  0.46108029547E+03 -0.10274767840E+04  0.15053887110E+04  0.59990588459E+03 0.  0.
         23    2    4    4    0    0  0.61863326131E+03  0.57066358275E+03 -0.92409954653E+03  0.12532825517E+04  0.91614113088E+02 0.  0.
         23    2    4    4    0    0  0.18011859020E+03 -0.10958328728E+03 -0.10337723752E+03  0.25210615937E+03  0.91757609875E+02 0.  0.
          1    1    3    3  502    0 -0.11939908774E+03 -0.33193816749E+02 -0.43457591609E+02  0.13132605945E+03  0.00000000000E+00 0. -1.
         -1    1    3    3    0  502 -0.67935276378E+03 -0.42788647872E+03 -0.30059759380E+03  0.85730153956E+03  0.00000000000E+00 0.  1.
         11    1    5    5    0    0  0.36840008637E+03  0.31211467273E+03 -0.46895290790E+03  0.67309064947E+03  0.00000000000E+00 0.  1.
        -11    1    5    5    0    0  0.25023317494E+03  0.25854891001E+03 -0.45514663863E+03  0.58019190219E+03  0.00000000000E+00 0. -1.
          3    1    6    6  503    0  0.36826089289E+02 -0.30305114064E+02 -0.70437761999E+02  0.85064911133E+02  0.00000000000E+00 0. -1.
         -3    1    6    6    0  503  0.14329250092E+03 -0.79278173211E+02 -0.32939475522E+02  0.16704124824E+03  0.00000000000E+00 0.  1.
<mgrwt>
<rscale>  0 0.99045311E+03</rscale>
<asrwt>0</asrwt>
<pdfrwt beam="1">  1        1 0.29734987E+00 0.99045311E+03</pdfrwt>
<pdfrwt beam="2">  1       -1 0.86344950E-01 0.99045311E+03</pdfrwt>
<totfact> 0.44308756E+00</totfact>
</mgrwt>
</event>
<event>
12    1  0.1335216E-007  0.6059614E+03  0.7818608E-02  0.9893115E-01
         -2   -1    0    0    0  501 -0.00000000000E+00  0.00000000000E+00  0.49739745269E+03  0.49739745269E+03  0.00000000000E+00 0.  1.
          2   -1    0    0  501    0  0.00000000000E+00 -0.00000000000E+00 -0.91727018705E+03  0.91727018705E+03  0.00000000000E+00 0. -1.
         23    2    1    2    0    0 -0.46792844061E+03 -0.33026777644E+02  0.10576111520E+03  0.48920714187E+03  0.89946765313E+02 0.  0.
    5000000    2    1    2    0    0  0.46792844061E+03  0.33026777644E+02 -0.52563384955E+03  0.92546049787E+03  0.60011531871E+03 0.  0.
         23    2    4    4    0    0  0.43456683373E+03 -0.21399284907E+03 -0.38079969873E+03  0.62284215480E+03  0.91009157856E+02 0.  0.
         23    2    4    4    0    0  0.33361606881E+02  0.24701962671E+03 -0.14483415082E+03  0.30261834307E+03  0.92028460409E+02 0.  0.
          3    1    3    3  502    0 -0.32069507679E+02  0.75023494104E+01  0.30805655522E+02  0.45096862214E+02  0.00000000000E+00 0. -1.
         -3    1    3    3    0  502 -0.43585893293E+03 -0.40529127055E+02  0.74955459676E+02  0.44411027965E+03  0.00000000000E+00 0.  1.
         11    1    5    5    0    0  0.10386654191E+03 -0.93288399718E+02 -0.12832376880E+03  0.18962587822E+03  0.00000000000E+00 0. -1.
        -11    1    5    5    0    0  0.33070029182E+03 -0.12070444935E+03 -0.25247592992E+03  0.43321627658E+03  0.00000000000E+00 0.  1.
          3    1    6    6  503    0  0.14440201631E+02  0.15387157103E+03 -0.13821731428E+03  0.20733790237E+03  0.00000000000E+00 0. -1.
         -3    1    6    6    0  503  0.18921405249E+02  0.93148055683E+02 -0.66168365440E+01  0.95280440700E+02  0.00000000000E+00 0.  1.
<mgrwt>
<rscale>  0 0.60596144E+03</rscale>
<asrwt>0</asrwt>
<pdfrwt beam="1">  1        2 0.14111849E+00 0.60596144E+03</pdfrwt>
<pdfrwt beam="2">  1       -2 0.76522686E-01 0.60596144E+03</pdfrwt>
<totfact> 0.44848376E+01</totfact>
</mgrwt>
</event>
<event>
12    1  0.1335216E-007  0.8450246E+03  0.7818608E-02  0.9497039E-01
         -1   -1    0    0    0  501 -0.00000000000E+00  0.00000000000E+00  0.59530908343E+03  0.59530908343E+03  0.00000000000E+00 0.  1.
          1   -1    0    0  501    0  0.00000000000E+00 -0.00000000000E+00 -0.15736889251E+04  0.15736889251E+04  0.00000000000E+00 0. -1.
         23    2    1    2    0    0 -0.44300053884E+03  0.69738953837E+03 -0.75614719615E+03  0.11236976328E+04  0.91302475758E+02 0.  0.
    5000000    2    1    2    0    0  0.44300053884E+03 -0.69738953837E+03 -0.22223264547E+03  0.10453003757E+04  0.60055297939E+03 0.  0.
         23    2    4    4    0    0  0.17684823935E+02 -0.15344280385E+03 -0.29495020753E+03  0.34467642906E+03  0.89155867916E+02 0.  0.
         23    2    4    4    0    0  0.42531571490E+03 -0.54394673452E+03  0.72717562056E+02  0.70062394662E+03  0.93885906314E+02 0.  0.
          2    1    3    3  502    0 -0.28263675516E+03  0.39681742168E+03 -0.49417150899E+03  0.69394025810E+03  0.00000000000E+00 0. -1.
         -2    1    3    3    0  502 -0.16036378367E+03  0.30057211668E+03 -0.26197568716E+03  0.42975737470E+03  0.00000000000E+00 0.  1.
         11    1    5    5    0    0 -0.25218540405E+02 -0.23819679008E+02 -0.10617399455E+03  0.11169722023E+03  0.00000000000E+00 0.  1.
        -11    1    5    5    0    0  0.42903364340E+02 -0.12962312484E+03 -0.18877621298E+03  0.23297920884E+03  0.00000000000E+00 0. -1.
          1    1    6    6  503    0  0.30789748630E+03 -0.41191966283E+03  0.14102123172E+02  0.51446821143E+03  0.00000000000E+00 0. -1.
         -1    1    6    6    0  503  0.11741822860E+03 -0.13202707170E+03  0.58615438884E+02  0.18615573519E+03  0.00000000000E+00 0.  1.
<mgrwt>
<rscale>  0 0.84502456E+03</rscale>
<asrwt>0</asrwt>
<pdfrwt beam="1">  1        1 0.24210599E+00 0.84502456E+03</pdfrwt>
<pdfrwt beam="2">  1       -1 0.91586013E-01 0.84502456E+03</pdfrwt>
<totfact> 0.69401852E+00</totfact>
</mgrwt>
</event>
<event>
12    1  0.1335216E-007  0.7636548E+03  0.7818608E-02  0.9614168E-01
         -2   -1    0    0    0  501 -0.00000000000E+00  0.00000000000E+00  0.94735514805E+03  0.94735514805E+03  0.00000000000E+00 0.  1.
          2   -1    0    0  501    0  0.00000000000E+00 -0.00000000000E+00 -0.81968420748E+03  0.81968420748E+03  0.00000000000E+00 0. -1.
         23    2    1    2    0    0 -0.71488498839E+03  0.10142111620E+03  0.34121977867E+03  0.80425228828E+03  0.95100033638E+02 0.  0.
    5000000    2    1    2    0    0  0.71488498839E+03 -0.10142111620E+03 -0.21354883810E+03  0.96278706725E+03  0.60000753425E+03 0.  0.
         23    2    4    4    0    0 -0.16784738824E+02  0.50479482431E+02 -0.18097056833E+03  0.20981498892E+03  0.91880778013E+02 0.  0.
         23    2    4    4    0    0  0.73166972722E+03 -0.15190059864E+03 -0.32578269773E+02  0.75297207833E+03  0.86551865889E+02 0.  0.
          1    1    3    3  502    0 -0.16514956177E+03 -0.58104929871E+01  0.48197264628E+02  0.17213691033E+03  0.00000000000E+00 0. -1.
         -1    1    3    3    0  502 -0.54973542662E+03  0.10723160919E+03  0.29302251405E+03  0.63211537794E+03  0.00000000000E+00 0.  1.
         13    1    5    5    0    0 -0.89378564868E+01  0.22626103361E+02 -0.17917796452E+03  0.18082192567E+03  0.00000000000E+00 0. -1.
        -13    1    5    5    0    0 -0.78468823376E+01  0.27853379070E+02 -0.17926038071E+01  0.28993063247E+02  0.00000000000E+00 0.  1.
          1    1    6    6  503    0  0.67017883764E+03 -0.12574152681E+03 -0.50638857174E+02  0.68375061232E+03  0.00000000000E+00 0. -1.
         -1    1    6    6    0  503  0.61490889573E+02 -0.26159071825E+02  0.18060587401E+02  0.69221466010E+02  0.00000000000E+00 0.  1.
<mgrwt>
<rscale>  0 0.76365482E+03</rscale>
<asrwt>0</asrwt>
<pdfrwt beam="1">  1        2 0.12610526E+00 0.76365482E+03</pdfrwt>
<pdfrwt beam="2">  1       -2 0.14574694E+00 0.76365482E+03</pdfrwt>
<totfact> 0.10935824E+01</totfact>
</mgrwt>
</event>
<event>
12    1  0.1335216E-007  0.7107798E+03  0.7818608E-02  0.9698973E-01
          2   -1    0    0  501    0  0.00000000000E+00  0.00000000000E+00  0.12659902851E+04  0.12659902851E+04  0.00000000000E+00 0. -1.
         -2   -1    0    0    0  501 -0.00000000000E+00 -0.00000000000E+00 -0.46603438295E+03  0.46603438295E+03  0.00000000000E+00 0.  1.
         23    2    1    2    0    0 -0.57013294415E+03 -0.30565198726E+03  0.31747221318E+03  0.72627225349E+03  0.90598392503E+02 0.  0.
    5000000    2    1    2    0    0  0.57013294415E+03  0.30565198726E+03  0.48248368896E+03  0.10057524145E+04  0.60022720525E+03 0.  0.
         23    2    4    4    0    0  0.21022741739E+03 -0.76160909434E+02  0.39917408811E+03  0.46636717782E+03  0.90345673839E+02 0.  0.
         23    2    4    4    0    0  0.35990552676E+03  0.38181289670E+03  0.83309600852E+02  0.53938523673E+03  0.93181906644E+02 0.  0.
          2    1    3    3  502    0 -0.26908673804E+03 -0.93293626287E+02  0.13801001455E+03  0.31647770444E+03  0.00000000000E+00 0. -1.
         -2    1    3    3    0  502 -0.30104620611E+03 -0.21235836098E+03  0.17946219864E+03  0.40979454905E+03  0.00000000000E+00 0.  1.
         11    1    5    5    0    0  0.16362891855E+03 -0.18479382657E+02  0.30380255722E+03  0.34556027599E+03  0.00000000000E+00 0. -1.
        -11    1    5    5    0    0  0.46598498840E+02 -0.57681526777E+02  0.95371530889E+02  0.12080690183E+03  0.00000000000E+00 0.  1.
          4    1    6    6  503    0  0.27285949523E+03  0.33012658170E+03  0.91013745306E+02  0.43785770054E+03  0.00000000000E+00 0. -1.
         -4    1    6    6    0  503  0.87046031532E+02  0.51686314997E+02 -0.77041444548E+01  0.10152753619E+03  0.00000000000E+00 0.  1.
<mgrwt>
<rscale>  0 0.71077981E+03</rscale>
<asrwt>0</asrwt>
<pdfrwt beam="1">  1        2 0.19476774E+00 0.71077981E+03</pdfrwt>
<pdfrwt beam="2">  1       -2 0.71697598E-01 0.71077981E+03</pdfrwt>
<totfact> 0.31256935E+01</totfact>
</mgrwt>
</event>
<event>
12    1  0.1335216E-007  0.1922558E+04  0.7818608E-02  0.8643709E-01
         -2   -1    0    0    0  501 -0.00000000000E+00  0.00000000000E+00  0.20225774066E+04  0.20225774066E+04  0.00000000000E+00 0.  1.
          2   -1    0    0  501    0  0.00000000000E+00 -0.00000000000E+00 -0.18930401798E+04  0.18930401798E+04  0.00000000000E+00 0. -1.
         23    2    1    2    0    0  0.12813034300E+04  0.14014576397E+04  0.26581115664E+03  0.19195758701E+04  0.91071149451E+02 0.  0.
    5000000    2    1    2    0    0 -0.12813034300E+04 -0.14014576397E+04 -0.13627392985E+03  0.19960417163E+04  0.59982493563E+03 0.  0.
         23    2    4    4    0    0 -0.16432657618E+02 -0.84120114136E+02  0.86759598138E+02  0.15409586392E+03  0.94191727714E+02 0.  0.
         23    2    4    4    0    0 -0.12648707724E+04 -0.13173375256E+04 -0.22303352799E+03  0.18419458524E+04  0.88001938459E+02 0.  0.
          4    1    3    3  502    0  0.12189948404E+04  0.13062574628E+04  0.23821645301E+03  0.18024993921E+04  0.00000000000E+00 0. -1.
         -4    1    3    3    0  502  0.62308589627E+02  0.95200176914E+02  0.27594703634E+02  0.11707647797E+03  0.00000000000E+00 0.  1.
         13    1    5    5    0    0  0.29753907839E+02 -0.13091909192E+02 -0.44673923089E+00  0.32509886096E+02  0.00000000000E+00 0. -1.
        -13    1    5    5    0    0 -0.46186565458E+02 -0.71028204944E+02  0.87206337369E+02  0.12158597782E+03  0.00000000000E+00 0.  1.
          1    1    6    6  503    0 -0.11626654365E+04 -0.12349479997E+04 -0.22246840396E+03  0.17106664403E+04  0.00000000000E+00 0. -1.
         -1    1    6    6    0  503 -0.10220533590E+03 -0.82389525871E+02 -0.56512402570E+00  0.13127941204E+03  0.00000000000E+00 0.  1.
<mgrwt>
<rscale>  0 0.19225576E+04</rscale>
<asrwt>0</asrwt>
<pdfrwt beam="1">  1        2 0.29123695E+00 0.19225576E+04</pdfrwt>
<pdfrwt beam="2">  1       -2 0.31116575E+00 0.19225576E+04</pdfrwt>
<totfact> 0.18674381E-01</totfact>
</mgrwt>
</event>
<event>
12    1  0.1335216E-007  0.8381805E+03  0.7818608E-02  0.9506339E-01
         -2   -1    0    0    0  501 -0.00000000000E+00  0.00000000000E+00  0.74594853450E+03  0.74594853450E+03  0.00000000000E+00 0.  1.
          2   -1    0    0  501    0  0.00000000000E+00 -0.00000000000E+00 -0.11842719469E+04  0.11842719469E+04  0.00000000000E+00 0. -1.
         23    2    1    2    0    0 -0.72813466790E+03 -0.28678928137E+03 -0.51470826864E+03  0.94117918930E+03  0.92008032570E+02 0.  0.
    5000000    2    1    2    0    0  0.72813466790E+03  0.28678928137E+03  0.76384856264E+02  0.98904129209E+03  0.59994986848E+03 0.  0.
         23    2    4    4    0    0  0.15034165185E+03  0.25775556497E+03 -0.16813648906E+03  0.35401139744E+03  0.89518975709E+02 0.  0.
         23    2    4    4    0    0  0.57779301605E+03  0.29033716407E+02  0.24452134532E+03  0.63502989465E+03  0.93725944620E+02 0.  0.
          1    1    3    3  502    0 -0.24435396198E+03 -0.81240420779E+02 -0.21921790399E+03  0.33817947030E+03  0.00000000000E+00 0. -1.
         -1    1    3    3    0  502 -0.48378070592E+03 -0.20554886059E+03 -0.29549036465E+03  0.60299971900E+03  0.00000000000E+00 0.  1.
         13    1    5    5    0    0  0.64891415471E+02  0.19269939929E+03 -0.97780535542E+02  0.22562133635E+03  0.00000000000E+00 0. -1.
        -13    1    5    5    0    0  0.85450236377E+02  0.65056165677E+02 -0.70355953519E+02  0.12839006108E+03  0.00000000000E+00 0.  1.
          4    1    6    6  503    0  0.21843823200E+03 -0.21943459984E+02  0.12647712095E+03  0.25336384659E+03  0.00000000000E+00 0. -1.
         -4    1    6    6    0  503  0.35935478405E+03  0.50977176391E+02  0.11804422437E+03  0.38166604805E+03  0.00000000000E+00 0.  1.
<mgrwt>
<rscale>  0 0.83818046E+03</rscale>
<asrwt>0</asrwt>
<pdfrwt beam="1">  1        2 0.18219568E+00 0.83818046E+03</pdfrwt>
<pdfrwt beam="2">  1       -2 0.11476131E+00 0.83818046E+03</pdfrwt>
<totfact> 0.11576237E+01</totfact>
</mgrwt>
</event>
<event>
12    1  0.1335216E-007  0.6059019E+03  0.7818608E-02  0.9893237E-01
          2   -1    0    0  501    0  0.00000000000E+00  0.00000000000E+00  0.14169061806E+04  0.14169061806E+04  0.00000000000E+00 0. -1.
         -2   -1    0    0    0  501 -0.00000000000E+00 -0.00000000000E+00 -0.43817796592E+03  0.43817796592E+03  0.00000000000E+00 0.  1.
         23    2    1    2    0    0 -0.12047372848E+03  0.55085492093E+03  0.84635224571E+03  0.10210952665E+04  0.91478720778E+02 0.  0.
    5000000    2    1    2    0    0  0.12047372848E+03 -0.55085492093E+03  0.13237596899E+03  0.83398888001E+03  0.60004915769E+03 0.  0.
         23    2    4    4    0    0  0.20554046341E+03 -0.37152766844E+03  0.32559781756E+03  0.54297019788E+03  0.92320130366E+02 0.  0.
         23    2    4    4    0    0 -0.85066734930E+02 -0.17932725249E+03 -0.19322184857E+03  0.29101868213E+03  0.89233276887E+02 0.  0.
          4    1    3    3  502    0  0.26609747731E+01  0.18778977100E+03  0.27130931079E+03  0.32997093963E+03  0.00000000000E+00 0. -1.
         -4    1    3    3    0  502 -0.12313470325E+03  0.36306514994E+03  0.57504293493E+03  0.69112432691E+03  0.00000000000E+00 0.  1.
         13    1    5    5    0    0  0.38617676668E+02 -0.19928677144E+02  0.18662142239E+02  0.47294319711E+02  0.00000000000E+00 0. -1.
        -13    1    5    5    0    0  0.16692278674E+03 -0.35159899130E+03  0.30693567533E+03  0.49567587817E+03  0.00000000000E+00 0.  1.
          2    1    6    6  503    0 -0.76627006813E+02 -0.89901781899E+02 -0.15114143486E+03  0.19182742737E+03  0.00000000000E+00 0.  1.
         -2    1    6    6    0  503 -0.84397281172E+01 -0.89425470593E+02 -0.42080413715E+02  0.99191254755E+02  0.00000000000E+00 0. -1.
<mgrwt>
<rscale>  0 0.60590189E+03</rscale>
<asrwt>0</asrwt>
<pdfrwt beam="1">  1        2 0.21798556E+00 0.60590189E+03</pdfrwt>
<pdfrwt beam="2">  1       -2 0.67411996E-01 0.60590189E+03</pdfrwt>
<totfact> 0.29713481E+01</totfact>
</mgrwt>
</event>
<event>
12    1  0.1517815E-007  0.1259261E+04  0.7818608E-02  0.9062510E-01
          2   -1    0    0  501    0  0.00000000000E+00  0.00000000000E+00  0.12349843830E+04  0.12349843830E+04  0.00000000000E+00 0.  1.
         -2   -1    0    0    0  501 -0.00000000000E+00 -0.00000000000E+00 -0.13884166512E+04  0.13884166512E+04  0.00000000000E+00 0. -1.
         23    2    1    2    0    0  0.76601061184E+03  0.97044754725E+03  0.80929530374E+01  0.12397052856E+04  0.90901044678E+02 0.  0.
    5000000    2    1    2    0    0 -0.76601061184E+03 -0.97044754725E+03 -0.16152522130E+03  0.13836957486E+04  0.59998568995E+03 0.  0.
         23    2    4    4    0    0  0.17187765660E+01 -0.16211192507E+03  0.13463239719E+03  0.22653404732E+03  0.83117758508E+02 0.  0.
         23    2    4    4    0    0 -0.76772938841E+03 -0.80833562218E+03 -0.29615761849E+03  0.11571617013E+04  0.92189890934E+02 0.  0.
          3    1    3    3  502    0  0.38921031698E+03  0.41994324029E+03  0.39537817584E+01  0.57258416699E+03  0.00000000000E+00 0. -1.
         -3    1    3    3    0  502  0.37680029487E+03  0.55050430697E+03  0.41391712790E+01  0.66712111864E+03  0.00000000000E+00 0.  1.
         13    1    5    5    0    0 -0.81139508100E+01 -0.20929614310E+02  0.65079730884E+02  0.68842256826E+02  0.00000000000E+00 0.  1.
        -13    1    5    5    0    0  0.98327273760E+01 -0.14118231076E+03  0.69552666306E+02  0.15769179050E+03  0.00000000000E+00 0. -1.
          1    1    6    6  503    0 -0.11497214388E+03 -0.12686596902E+03 -0.80406048024E+02  0.18915258529E+03  0.00000000000E+00 0. -1.
         -1    1    6    6    0  503 -0.65275724453E+03 -0.68146965317E+03 -0.21575157047E+03  0.96800911599E+03  0.00000000000E+00 0.  1.
<mgrwt>
<rscale>  0 0.12592609E+04</rscale>
<asrwt>0</asrwt>
<pdfrwt beam="1">  1        2 0.18999760E+00 0.12592609E+04</pdfrwt>
<pdfrwt beam="2">  1       -2 0.21360256E+00 0.12592609E+04</pdfrwt>
<totfact> 0.18917044E+00</totfact>
</mgrwt>
</event>
<event>
12    1  0.1335216E-007  0.6289962E+03  0.7818608E-02  0.9847010E-01
          1   -1    0    0  501    0  0.00000000000E+00  0.00000000000E+00  0.12487062976E+04  0.12487062976E+04  0.00000000000E+00 0. -1.
         -1   -1    0    0    0  501 -0.00000000000E+00 -0.00000000000E+00 -0.37721309858E+03  0.37721309858E+03  0.00000000000E+00 0.  1.
         23    2    1    2    0    0 -0.60546110268E+02  0.52922088943E+03  0.18775521674E+03  0.57190966584E+03  0.89933659942E+02 0.  0.
    5000000    2    1    2    0    0  0.60546110268E+02 -0.52922088943E+03  0.68373798231E+03  0.10540097304E+04  0.59974853227E+03 0.  0.
         23    2    4    4    0    0  0.19583222036E+03 -0.48270288940E+02  0.25357265521E+02  0.22264616339E+03  0.90818741642E+02 0.  0.
         23    2    4    4    0    0 -0.13528611009E+03 -0.48095060049E+03  0.65838071679E+03  0.83136356697E+03  0.89913294624E+02 0.  0.
          3    1    3    3  502    0 -0.73402003075E+02  0.43846671344E+03  0.12851074839E+03  0.46276984053E+03  0.00000000000E+00 0. -1.
         -3    1    3    3    0  502  0.12855892807E+02  0.90754175996E+02  0.59244468347E+02  0.10913982532E+03  0.00000000000E+00 0.  1.
         11    1    5    5    0    0  0.10200813202E+03 -0.67590108783E+02  0.32429563597E+02  0.12659288447E+03  0.00000000000E+00 0. -1.
        -11    1    5    5    0    0  0.93824088339E+02  0.19319819843E+02 -0.70722980762E+01  0.96053278921E+02  0.00000000000E+00 0.  1.
          2    1    6    6  503    0 -0.12521317168E+02 -0.15159317431E+03  0.15279717046E+03  0.21560206210E+03  0.00000000000E+00 0. -1.
         -2    1    6    6    0  503 -0.12276479292E+03 -0.32935742618E+03  0.50558354633E+03  0.61576150487E+03  0.00000000000E+00 0.  1.
<mgrwt>
<rscale>  0 0.62899615E+03</rscale>
<asrwt>0</asrwt>
<pdfrwt beam="1">  1        1 0.19210866E+00 0.62899615E+03</pdfrwt>
<pdfrwt beam="2">  1       -1 0.58032785E-01 0.62899615E+03</pdfrwt>
<totfact> 0.30963376E+01</totfact>
</mgrwt>
</event>
<event>
12    1  0.1622916E-007  0.8325855E+03  0.7818608E-02  0.9514013E-01
          1   -1    0    0  501    0  0.00000000000E+00  0.00000000000E+00  0.17047731456E+04  0.17047731456E+04  0.00000000000E+00 0. -1.
         -1   -1    0    0    0  501 -0.00000000000E+00 -0.00000000000E+00 -0.55444589458E+03  0.55444589458E+03  0.00000000000E+00 0.  1.
         23    2    1    2    0    0 -0.41413546814E+03 -0.67301056611E+03  0.77763391361E+02  0.79807122319E+03  0.80119436948E+02 0.  0.
    5000000    2    1    2    0    0  0.41413546814E+03  0.67301056611E+03  0.10725638596E+04  0.14611478170E+04  0.60009024484E+03 0.  0.
         23    2    4    4    0    0  0.43966981502E+03  0.44189747587E+03  0.10325711629E+04  0.12098035428E+04  0.94013192495E+02 0.  0.
         23    2    4    4    0    0 -0.25534346883E+02  0.23111309025E+03  0.39992696764E+02  0.25134427416E+03  0.86656015405E+02 0.  0.
          1    1    3    3  502    0 -0.19715597815E+03 -0.35209552073E+03  0.76287190881E+02  0.41068414984E+03  0.00000000000E+00 0. -1.
         -1    1    3    3    0  502 -0.21697949000E+03 -0.32091504538E+03  0.14762004798E+01  0.38738707335E+03  0.00000000000E+00 0.  1.
         13    1    5    5    0    0  0.86460700613E+02  0.14523727108E+03  0.28770057873E+03  0.33367789957E+03  0.00000000000E+00 0.  1.
        -13    1    5    5    0    0  0.35320911441E+03  0.29666020479E+03  0.74487058412E+03  0.87612564322E+03  0.00000000000E+00 0. -1.
          4    1    6    6  503    0  0.16110917938E+02  0.16527564069E+03  0.55093675544E+01  0.16615039034E+03  0.00000000000E+00 0. -1.
         -4    1    6    6    0  503 -0.41645264821E+02  0.65837449563E+02  0.34483329210E+02  0.85193883820E+02  0.00000000000E+00 0.  1.
<mgrwt>
<rscale>  0 0.83258550E+03</rscale>
<asrwt>0</asrwt>
<pdfrwt beam="1">  1        1 0.26227279E+00 0.83258550E+03</pdfrwt>
<pdfrwt beam="2">  1       -1 0.85299369E-01 0.83258550E+03</pdfrwt>
<totfact> 0.66218648E+00</totfact>
</mgrwt>
</event>
<event>
12    1  0.1335216E-007  0.8240849E+03  0.7818608E-02  0.9525795E-01
          1   -1    0    0  501    0  0.00000000000E+00  0.00000000000E+00  0.19084123894E+04  0.19084123894E+04  0.00000000000E+00 0. -1.
         -1   -1    0    0    0  501 -0.00000000000E+00 -0.00000000000E+00 -0.44310640705E+03  0.44310640705E+03  0.00000000000E+00 0.  1.
         23    2    1    2    0    0 -0.20664303212E+03 -0.69540460590E+03  0.11424321786E+04  0.13562335795E+04  0.89046789735E+02 0.  0.
    5000000    2    1    2    0    0  0.20664303212E+03  0.69540460590E+03  0.32287380374E+03  0.99528521696E+03  0.60004688261E+03 0.  0.
         23    2    4    4    0    0 -0.86114273351E+01  0.69800678632E+03  0.20407567954E+03  0.73287624881E+03  0.90405103031E+02 0.  0.
         23    2    4    4    0    0  0.21525445946E+03 -0.26021804273E+01  0.11879812420E+03  0.26240896815E+03  0.91674525329E+02 0.  0.
          3    1    3    3  502    0 -0.47214462066E+02 -0.63226954540E+02  0.12656309249E+03  0.14914781121E+03  0.00000000000E+00 0. -1.
         -3    1    3    3    0  502 -0.15942857006E+03 -0.63217765136E+03  0.10158690861E+04  0.12070857683E+04  0.00000000000E+00 0.  1.
         11    1    5    5    0    0  0.44340081607E+01  0.42154009344E+03  0.77910107200E+02  0.42870233917E+03  0.00000000000E+00 0.  1.
        -11    1    5    5    0    0 -0.13045435496E+02  0.27646669289E+03  0.12616557234E+03  0.30417390964E+03  0.00000000000E+00 0. -1.
          4    1    6    6  503    0  0.54348894467E+02 -0.18141094598E+02  0.76013063332E+02  0.95188693867E+02  0.00000000000E+00 0. -1.
         -4    1    6    6    0  503  0.16090556499E+03  0.15538914171E+02  0.42785060864E+02  0.16722027428E+03  0.00000000000E+00 0.  1.
<mgrwt>
<rscale>  0 0.82408489E+03</rscale>
<asrwt>0</asrwt>
<pdfrwt beam="1">  1        1 0.29360190E+00 0.82408489E+03</pdfrwt>
<pdfrwt beam="2">  1       -1 0.68170217E-01 0.82408489E+03</pdfrwt>
<totfact> 0.77454599E+00</totfact>
</mgrwt>
</event>
<event>
12    1  0.1335216E-007  0.1067917E+04  0.7818608E-02  0.9237039E-01
         -2   -1    0    0    0  501 -0.00000000000E+00  0.00000000000E+00  0.13127908396E+04  0.13127908396E+04  0.00000000000E+00 0.  1.
          2   -1    0    0  501    0  0.00000000000E+00 -0.00000000000E+00 -0.92463534687E+03  0.92463534687E+03  0.00000000000E+00 0. -1.
         23    2    1    2    0    0  0.99989675288E+03 -0.18890920322E+03  0.16108391930E+03  0.10343483258E+04  0.91914234167E+02 0.  0.
    5000000    2    1    2    0    0 -0.99989675288E+03  0.18890920322E+03  0.22707157341E+03  0.12030778607E+04  0.60029545722E+03 0.  0.
         23    2    4    4    0    0 -0.52459532259E+02 -0.81648380854E+02  0.16397718267E+03  0.21156398904E+03  0.91936632539E+02 0.  0.
         23    2    4    4    0    0 -0.94743722063E+03  0.27055758407E+03  0.63094390738E+02  0.99151387165E+03  0.90995396649E+02 0.  0.
          4    1    3    3  502    0  0.59711178640E+03 -0.69291577542E+02  0.79900095369E+02  0.60640566736E+03  0.00000000000E+00 0. -1.
         -4    1    3    3    0  502  0.40278496649E+03 -0.11961762567E+03  0.81183823927E+02  0.42794265839E+03  0.00000000000E+00 0.  1.
         11    1    5    5    0    0  0.21713100530E+02 -0.36287777677E+02  0.29999941650E+02  0.51848414077E+02  0.00000000000E+00 0. -1.
        -11    1    5    5    0    0 -0.74172632789E+02 -0.45360603177E+02  0.13397724102E+03  0.15971557497E+03  0.00000000000E+00 0.  1.
          1    1    6    6  503    0 -0.57229784279E+03  0.16353981759E+03 -0.65414102747E+01  0.59524186920E+03  0.00000000000E+00 0. -1.
         -1    1    6    6    0  503 -0.37513937784E+03  0.10701776648E+03  0.69635801013E+02  0.39627200245E+03  0.00000000000E+00 0.  1.
<mgrwt>
<rscale>  0 0.10679166E+04</rscale>
<asrwt>0</asrwt>
<pdfrwt beam="1">  1        2 0.14225159E+00 0.10679166E+04</pdfrwt>
<pdfrwt beam="2">  1       -2 0.20196782E+00 0.10679166E+04</pdfrwt>
<totfact> 0.35910690E+00</totfact>
</mgrwt>
</event>
<event>
12    1  0.1335216E-007  0.1217316E+04  0.7818608E-02  0.9097833E-01
          1   -1    0    0  501    0  0.00000000000E+00  0.00000000000E+00  0.15003303033E+04  0.15003303033E+04  0.00000000000E+00 0. -1.
         -1   -1    0    0    0  501 -0.00000000000E+00 -0.00000000000E+00 -0.10470838265E+04  0.10470838265E+04  0.00000000000E+00 0.  1.
         23    2    1    2    0    0  0.58968469401E+03 -0.99452674866E+03 -0.24346981946E+02  0.11598833083E+04  0.89022588607E+02 0.  0.
    5000000    2    1    2    0    0 -0.58968469401E+03  0.99452674866E+03  0.47759345877E+03  0.13875308215E+04  0.60027891558E+03 0.  0.
         23    2    4    4    0    0 -0.11269585417E+03  0.69187430559E+03  0.39237578052E+03  0.80919402242E+03  0.97189518453E+02 0.  0.
         23    2    4    4    0    0 -0.47698883984E+03  0.30265244306E+03  0.85217678245E+02  0.57833679903E+03  0.89969693822E+02 0.  0.
          4    1    3    3  502    0  0.34022272355E+03 -0.65136847886E+03 -0.31967049921E+02  0.73556392595E+03  0.00000000000E+00 0. -1.
         -4    1    3    3    0  502  0.24946197046E+03 -0.34315826980E+03  0.76200679746E+01  0.42431938239E+03  0.00000000000E+00 0.  1.
         13    1    5    5    0    0 -0.10293075739E+03  0.35706514536E+03  0.18339444397E+03  0.41439568160E+03  0.00000000000E+00 0. -1.
        -13    1    5    5    0    0 -0.97650967780E+01  0.33480916023E+03  0.20898133655E+03  0.39479834082E+03  0.00000000000E+00 0.  1.
          1    1    6    6  503    0 -0.32220566749E+03  0.16586188685E+03  0.82930710581E+02  0.37175820156E+03  0.00000000000E+00 0. -1.
         -1    1    6    6    0  503 -0.15478317235E+03  0.13679055621E+03  0.22869676641E+01  0.20657859747E+03  0.00000000000E+00 0.  1.
<mgrwt>
<rscale>  0 0.12173163E+04</rscale>
<asrwt>0</asrwt>
<pdfrwt beam="1">  1        1 0.23082005E+00 0.12173163E+04</pdfrwt>
<pdfrwt beam="2">  1       -1 0.16108982E+00 0.12173163E+04</pdfrwt>
<totfact> 0.18347231E+00</totfact>
</mgrwt>
</event>
<event>
12    1  0.1335216E-007  0.7133334E+03  0.7818608E-02  0.9694698E-01
          2   -1    0    0  501    0  0.00000000000E+00  0.00000000000E+00  0.24229570946E+04  0.24229570946E+04  0.00000000000E+00 0. -1.
         -2   -1    0    0    0  501 -0.00000000000E+00 -0.00000000000E+00 -0.27195089915E+03  0.27195089915E+03  0.00000000000E+00 0.  1.
         23    2    1    2    0    0 -0.69419325985E+03 -0.25248605213E+02  0.10390817569E+04  0.12530536203E+04  0.88942137735E+02 0.  0.
    5000000    2    1    2    0    0  0.69419325985E+03  0.25248605213E+02  0.11119244386E+04  0.14418543734E+04  0.60002191876E+03 0.  0.
         23    2    4    4    0    0  0.34194440499E+03 -0.93036805177E+02  0.96474097644E+03  0.10317677649E+04  0.90762028467E+02 0.  0.
         23    2    4    4    0    0  0.35224885486E+03  0.11828541039E+03  0.14718346215E+03  0.41008660855E+03  0.91855108317E+02 0.  0.
          2    1    3    3  502    0 -0.33153810336E+03 -0.12073059604E+02  0.57612019055E+03  0.66481406928E+03  0.00000000000E+00 0.  1.
         -2    1    3    3    0  502 -0.36265515649E+03 -0.13175545609E+02  0.46296156634E+03  0.58823955106E+03  0.00000000000E+00 0. -1.
         13    1    5    5    0    0  0.13629900431E+03 -0.42062818828E+02  0.26895776638E+03  0.30444207889E+03  0.00000000000E+00 0. -1.
        -13    1    5    5    0    0  0.20564540068E+03 -0.50973986349E+02  0.69578321006E+03  0.72732568599E+03  0.00000000000E+00 0.  1.
          1    1    6    6  503    0  0.19815168231E+03  0.31472433261E+02  0.11190841467E+03  0.22973483962E+03  0.00000000000E+00 0. -1.
         -1    1    6    6    0  503  0.15409717255E+03  0.86812977129E+02  0.35275047479E+02  0.18035176894E+03  0.00000000000E+00 0.  1.
<mgrwt>
<rscale>  0 0.71333340E+03</rscale>
<asrwt>0</asrwt>
<pdfrwt beam="1">  1        2 0.37276262E+00 0.71333340E+03</pdfrwt>
<pdfrwt beam="2">  1       -2 0.41838601E-01 0.71333340E+03</pdfrwt>
<totfact> 0.21906125E+01</totfact>
</mgrwt>
</event>
<event>
12    1  0.1335216E-007  0.7048139E+03  0.7818608E-02  0.9709035E-01
          2   -1    0    0  501    0  0.00000000000E+00  0.00000000000E+00  0.23859938612E+04  0.23859938612E+04  0.00000000000E+00 0. -1.
         -2   -1    0    0    0  501 -0.00000000000E+00 -0.00000000000E+00 -0.48289336415E+03  0.48289336415E+03  0.00000000000E+00 0.  1.
         23    2    1    2    0    0  0.51356724282E+03  0.46679906361E+03 -0.59358388439E+02  0.70261655927E+03  0.92162532533E+02 0.  0.
    5000000    2    1    2    0    0 -0.51356724282E+03 -0.46679906361E+03  0.19624588855E+04  0.21662706661E+04  0.59985918584E+03 0.  0.
         23    2    4    4    0    0 -0.25119516819E+03 -0.16838017834E+03  0.24080581398E+03  0.39704048692E+03  0.90569372449E+02 0.  0.
         23    2    4    4    0    0 -0.26237207463E+03 -0.29841888526E+03  0.17216530715E+04  0.17692301792E+04  0.90516250577E+02 0.  0.
          1    1    3    3  502    0  0.16513305764E+03  0.19649906748E+03  0.64146723752E+01  0.25675271813E+03  0.00000000000E+00 0. -1.
         -1    1    3    3    0  502  0.34843418518E+03  0.27029999613E+03 -0.65773060814E+02  0.44586384114E+03  0.00000000000E+00 0.  1.
         11    1    5    5    0    0 -0.13344313826E+03 -0.45261683672E+02  0.14223415095E+03  0.20021549604E+03  0.00000000000E+00 0.  1.
        -11    1    5    5    0    0 -0.11775202993E+03 -0.12311849467E+03  0.98571663029E+02  0.19682499088E+03  0.00000000000E+00 0. -1.
          4    1    6    6  503    0 -0.95586229473E+02 -0.14750375716E+03  0.59850292439E+03  0.62377867560E+03  0.00000000000E+00 0. -1.
         -4    1    6    6    0  503 -0.16678584516E+03 -0.15091512811E+03  0.11231501471E+04  0.11454515036E+04  0.00000000000E+00 0.  1.
<mgrwt>
<rscale>  0 0.70481391E+03</rscale>
<asrwt>0</asrwt>
<pdfrwt beam="1">  1        2 0.36707597E+00 0.70481391E+03</pdfrwt>
<pdfrwt beam="2">  1       -2 0.74291288E-01 0.70481391E+03</pdfrwt>
<totfact> 0.69633028E+00</totfact>
</mgrwt>
</event>
<event>
12    1  0.1335216E-007  0.5797845E+03  0.7818608E-02  0.9948258E-01
          2   -1    0    0  501    0  0.00000000000E+00  0.00000000000E+00  0.18299408781E+04  0.18299408781E+04  0.00000000000E+00 0. -1.
         -2   -1    0    0    0  501 -0.00000000000E+00 -0.00000000000E+00 -0.38109152950E+03  0.38109152950E+03  0.00000000000E+00 0.  1.
         23    2    1    2    0    0 -0.23763969788E+03  0.51549108176E+03  0.12279162359E+04  0.13555718635E+04  0.87138472035E+02 0.  0.
    5000000    2    1    2    0    0  0.23763969788E+03 -0.51549108176E+03  0.22093311276E+03  0.85546054416E+03  0.60066431634E+03 0.  0.
         23    2    4    4    0    0  0.17028065586E+03 -0.38328529227E+03  0.41340346290E+03  0.59601217362E+03  0.91787640446E+02 0.  0.
         23    2    4    4    0    0  0.67359042029E+02 -0.13220578949E+03 -0.19247035014E+03  0.25944837054E+03  0.90846078480E+02 0.  0.
          3    1    3    3  502    0 -0.91318262341E+02  0.15871697256E+03  0.48755270530E+03  0.52080489903E+03  0.00000000000E+00 0. -1.
         -3    1    3    3    0  502 -0.14632143554E+03  0.35677410921E+03  0.74036353059E+03  0.83476696444E+03  0.00000000000E+00 0.  1.
         13    1    5    5    0    0  0.84513022566E+02 -0.95955753703E+02  0.14783489066E+03  0.19546128146E+03  0.00000000000E+00 0. -1.
        -13    1    5    5    0    0  0.85767633289E+02 -0.28732953857E+03  0.26556857224E+03  0.40055089216E+03  0.00000000000E+00 0.  1.
          3    1    6    6  503    0  0.59399107530E+02 -0.42444145035E+02 -0.13225769946E+03  0.15106905206E+03  0.00000000000E+00 0. -1.
         -3    1    6    6    0  503  0.79599344990E+01 -0.89761644459E+02 -0.60212650680E+02  0.10837931848E+03  0.00000000000E+00 0.  1.
<mgrwt>
<rscale>  0 0.57978449E+03</rscale>
<asrwt>0</asrwt>
<pdfrwt beam="1">  1        2 0.28152936E+00 0.57978449E+03</pdfrwt>
<pdfrwt beam="2">  1       -2 0.58629467E-01 0.57978449E+03</pdfrwt>
<totfact> 0.23857011E+01</totfact>
</mgrwt>
</event>
<event>
12    1  0.1335216E-007  0.9832570E+03  0.7818608E-02  0.9327101E-01
          2   -1    0    0  501    0  0.00000000000E+00  0.00000000000E+00  0.86133098825E+03  0.86133098825E+03  0.00000000000E+00 0. -1.
         -2   -1    0    0    0  501 -0.00000000000E+00 -0.00000000000E+00 -0.12536488655E+04  0.12536488655E+04  0.00000000000E+00 0.  1.
         23    2    1    2    0    0  0.73563017305E+03 -0.50510213878E+03 -0.51260414314E+03  0.10329279018E+04  0.88865745336E+02 0.  0.
    5000000    2    1    2    0    0 -0.73563017305E+03  0.50510213878E+03  0.12028626589E+03  0.10820519519E+04  0.60007309454E+03 0.  0.
         23    2    4    4    0    0 -0.25611480726E+03  0.52038579656E+03  0.75154385469E+02  0.59252197898E+03  0.95068092174E+02 0.  0.
         23    2    4    4    0    0 -0.47951536579E+03 -0.15283657782E+02  0.45131880424E+02  0.48952997295E+03  0.86221410115E+02 0.  0.
          2    1    3    3  502    0  0.23775342590E+03 -0.14542168307E+03 -0.11648600303E+03  0.30206480486E+03  0.00000000000E+00 0. -1.
         -2    1    3    3    0  502  0.49787674715E+03 -0.35968045571E+03 -0.39611814011E+03  0.73086309696E+03  0.00000000000E+00 0.  1.
         13    1    5    5    0    0  0.47761338443E+01  0.46595382035E+02  0.74992812326E+01  0.47436065398E+02  0.00000000000E+00 0.  1.
        -13    1    5    5    0    0 -0.26089094111E+03  0.47379041453E+03  0.67655104236E+02  0.54508591358E+03  0.00000000000E+00 0. -1.
          2    1    6    6  503    0 -0.26492249145E+03  0.29875301885E+02  0.53349907283E+01  0.26665506233E+03  0.00000000000E+00 0. -1.
         -2    1    6    6    0  503 -0.21459287433E+03 -0.45158959667E+02  0.39796889696E+02  0.22287491062E+03  0.00000000000E+00 0.  1.
<mgrwt>
<rscale>  0 0.98325697E+03</rscale>
<asrwt>0</asrwt>
<pdfrwt beam="1">  1        2 0.13251246E+00 0.98325697E+03</pdfrwt>
<pdfrwt beam="2">  1       -2 0.19286906E+00 0.98325697E+03</pdfrwt>
<totfact> 0.45936027E+00</totfact>
</mgrwt>
</event>
<event>
12    1  0.1335216E-007  0.3154794E+03  0.7818608E-02  0.1077749E+00
          2   -1    0    0  501    0  0.00000000000E+00  0.00000000000E+00  0.38005703660E+03  0.38005703660E+03  0.00000000000E+00 0. -1.
         -2   -1    0    0    0  501 -0.00000000000E+00 -0.00000000000E+00 -0.54140231676E+03  0.54140231676E+03  0.00000000000E+00 0.  1.
         23    2    1    2    0    0 -0.14002302227E+03 -0.18138761671E+03 -0.12450222599E+03  0.27803157269E+03  0.96399361398E+02 0.  0.
    5000000    2    1    2    0    0  0.14002302227E+03  0.18138761671E+03 -0.36843054167E+02  0.64342778066E+03  0.60011164297E+03 0.  0.
         23    2    4    4    0    0  0.21877448630E+03  0.19833287734E+03 -0.25060679775E+03  0.39773670595E+03  0.90512507942E+02 0.  0.
         23    2    4    4    0    0 -0.78751464026E+02 -0.16945260632E+02  0.21376374358E+03  0.24569107471E+03  0.90444630457E+02 0.  0.
          3    1    3    3  502    0  0.96717203229E+01 -0.33632652275E+02 -0.29938579870E+01  0.35123505786E+02  0.00000000000E+00 0. -1.
         -3    1    3    3    0  502 -0.14969474259E+03 -0.14775496443E+03 -0.12150836800E+03  0.24290806691E+03  0.00000000000E+00 0.  1.
         13    1    5    5    0    0  0.92519020331E+02  0.13234292904E+03 -0.16817288903E+03  0.23314489185E+03  0.00000000000E+00 0. -1.
        -13    1    5    5    0    0  0.12625546596E+03  0.65989948298E+02 -0.82433908716E+02  0.16459181410E+03  0.00000000000E+00 0.  1.
          4    1    6    6  503    0 -0.47443221044E+02 -0.33525163331E+01  0.24741422444E+02  0.53611907011E+02  0.00000000000E+00 0. -1.
         -4    1    6    6    0  503 -0.31308242983E+02 -0.13592744299E+02  0.18902232114E+03  0.19207916770E+03  0.00000000000E+00 0.  1.
<mgrwt>
<rscale>  0 0.31547935E+03</rscale>
<asrwt>0</asrwt>
<pdfrwt beam="1">  1        2 0.58470314E-01 0.31547935E+03</pdfrwt>
<pdfrwt beam="2">  1       -2 0.83292663E-01 0.31547935E+03</pdfrwt>
<totfact> 0.11050332E+02</totfact>
</mgrwt>
</event>
<event>
12    1  0.1335216E-007  0.6987969E+03  0.7818608E-02  0.9719292E-01
         -2   -1    0    0    0  501 -0.00000000000E+00  0.00000000000E+00  0.38590210013E+03  0.38590210013E+03  0.00000000000E+00 0. -1.
          2   -1    0    0  501    0  0.00000000000E+00 -0.00000000000E+00 -0.13061479195E+04  0.13061479195E+04  0.00000000000E+00 0.  1.
         23    2    1    2    0    0 -0.57210190304E+03 -0.20031255604E+02 -0.27982757559E+03  0.64395923550E+03  0.93156783241E+02 0.  0.
    5000000    2    1    2    0    0  0.57210190304E+03  0.20031255604E+02 -0.64041824382E+03  0.10480907842E+04  0.60054718898E+03 0.  0.
         23    2    4    4    0    0  0.46776875174E+03  0.26574919303E+03 -0.42807418934E+03  0.69423815655E+03  0.96378772201E+02 0.  0.
         23    2    4    4    0    0  0.10433315130E+03 -0.24571793743E+03 -0.21234405449E+03  0.35385262762E+03  0.94122119434E+02 0.  0.
          3    1    3    3  502    0 -0.13222532649E+03 -0.40428895751E+02 -0.48361799202E+02  0.14648172650E+03  0.00000000000E+00 0. -1.
         -3    1    3    3    0  502 -0.43987657655E+03  0.20397640148E+02 -0.23146577639E+03  0.49747750900E+03  0.00000000000E+00 0.  1.
         13    1    5    5    0    0  0.21899836556E+03  0.12770958888E+03 -0.14108748623E+03  0.29013049130E+03  0.00000000000E+00 0. -1.
        -13    1    5    5    0    0  0.24877038618E+03  0.13803960415E+03 -0.28698670311E+03  0.40410766525E+03  0.00000000000E+00 0.  1.
          2    1    6    6  503    0 -0.14320733039E+02 -0.50675584137E+02 -0.23915333297E+02  0.57836332777E+02  0.00000000000E+00 0. -1.
         -2    1    6    6    0  503  0.11865388434E+03 -0.19504235329E+03 -0.18842872119E+03  0.29601629485E+03  0.00000000000E+00 0.  1.
<mgrwt>
<rscale>  0 0.69879692E+03</rscale>
<asrwt>0</asrwt>
<pdfrwt beam="1">  1        2 0.20094583E+00 0.69879692E+03</pdfrwt>
<pdfrwt beam="2">  1       -2 0.59369554E-01 0.69879692E+03</pdfrwt>
<totfact> 0.44500501E+01</totfact>
</mgrwt>
</event>
<event>
12    1  0.1567841E-007  0.6919136E+03  0.7818608E-02  0.9731162E-01
          1   -1    0    0  501    0  0.00000000000E+00  0.00000000000E+00  0.12070409357E+04  0.12070409357E+04  0.00000000000E+00 0. -1.
         -1   -1    0    0    0  501 -0.00000000000E+00 -0.00000000000E+00 -0.52777136580E+03  0.52777136580E+03  0.00000000000E+00 0.  1.
         23    2    1    2    0    0 -0.44510403597E+03 -0.45743209429E+03  0.30643232174E+02  0.64515829591E+03  0.89042098950E+02 0.  0.
    5000000    2    1    2    0    0  0.44510403597E+03  0.45743209429E+03  0.64862633770E+03  0.10896540056E+04  0.59938969143E+03 0.  0.
         23    2    4    4    0    0  0.29027057212E+03  0.59525955333E+02  0.56498025459E+03  0.64452368879E+03  0.91693799876E+02 0.  0.
         23    2    4    4    0    0  0.15483346384E+03  0.39790613896E+03  0.83646083113E+02  0.44513031679E+03  0.94029967344E+02 0.  0.
          1    1    3    3  502    0 -0.25358554207E+03 -0.31911745405E+03  0.61622425804E+01  0.40765126010E+03  0.00000000000E+00 0. -1.
         -1    1    3    3    0  502 -0.19151849389E+03 -0.13831464024E+03  0.24480989593E+02  0.23750703581E+03  0.00000000000E+00 0.  1.
         11    1    5    5    0    0  0.10636836180E+03 -0.91871134090E+01  0.13720067324E+03  0.17384664558E+03  0.00000000000E+00 0. -1.
        -11    1    5    5    0    0  0.18390221033E+03  0.68713068742E+02  0.42777958135E+03  0.47067704321E+03  0.00000000000E+00 0.  1.
          3    1    6    6  503    0  0.97417434525E+02  0.12747393047E+03  0.22726747899E+02  0.16203784918E+03  0.00000000000E+00 0. -1.
         -3    1    6    6    0  503  0.57416029319E+02  0.27043220849E+03  0.60919335214E+02  0.28309246760E+03  0.00000000000E+00 0.  1.
<mgrwt>
<rscale>  0 0.69191360E+03</rscale>
<asrwt>0</asrwt>
<pdfrwt beam="1">  1        1 0.18569860E+00 0.69191360E+03</pdfrwt>
<pdfrwt beam="2">  1       -1 0.81195595E-01 0.69191360E+03</pdfrwt>
<totfact> 0.16602822E+01</totfact>
</mgrwt>
</event>
<event>
12    1  0.1335216E-007  0.8176650E+03  0.7818608E-02  0.9534794E-01
         -2   -1    0    0    0  501 -0.00000000000E+00  0.00000000000E+00  0.30065911281E+03  0.30065911281E+03  0.00000000000E+00 0.  1.
          2   -1    0    0  501    0  0.00000000000E+00 -0.00000000000E+00 -0.23766691094E+04  0.23766691094E+04  0.00000000000E+00 0. -1.
         23    2    1    2    0    0 -0.12021645520E+03  0.71549682852E+03 -0.11027476046E+04  0.13232219684E+04  0.92067315407E+02 0.  0.
    5000000    2    1    2    0    0  0.12021645520E+03 -0.71549682852E+03 -0.97326239201E+03  0.13541062538E+04  0.59998029563E+03 0.  0.
         23    2    4    4    0    0 -0.14383542690E+03 -0.26782864238E+02 -0.74729400695E+02  0.18814085518E+03  0.91687219451E+02 0.  0.
         23    2    4    4    0    0  0.26405188210E+03 -0.68871396428E+03 -0.89853299131E+03  0.11659653986E+04  0.89796733006E+02 0.  0.
          2    1    3    3  502    0 -0.81849730690E+02  0.58595941770E+03 -0.83555777247E+03  0.10238186406E+04  0.00000000000E+00 0. -1.
         -2    1    3    3    0  502 -0.38366724507E+02  0.12953741082E+03 -0.26718983214E+03  0.29940332789E+03  0.00000000000E+00 0.  1.
         11    1    5    5    0    0 -0.23738193187E+02  0.26845729357E+02  0.19595445313E+01  0.35889201931E+02  0.00000000000E+00 0.  1.
        -11    1    5    5    0    0 -0.12009723371E+03 -0.53628593595E+02 -0.76688945226E+02  0.15225165325E+03  0.00000000000E+00 0. -1.
          1    1    6    6  503    0  0.88937666768E+02 -0.33394701588E+03 -0.37834587140E+03  0.51242181491E+03  0.00000000000E+00 0. -1.
         -1    1    6    6    0  503  0.17511421533E+03 -0.35476694841E+03 -0.52018711991E+03  0.65354358371E+03  0.00000000000E+00 0.  1.
<mgrwt>
<rscale>  0 0.81766499E+03</rscale>
<asrwt>0</asrwt>
<pdfrwt beam="1">  1        2 0.36564141E+00 0.81766499E+03</pdfrwt>
<pdfrwt beam="2">  1       -2 0.46255247E-01 0.81766499E+03</pdfrwt>
<totfact> 0.18765503E+01</totfact>
</mgrwt>
</event>
<event>
12    1  0.1335216E-007  0.4811750E+03  0.7818608E-02  0.1018813E+00
         -1   -1    0    0    0  501 -0.00000000000E+00  0.00000000000E+00  0.53358894412E+03  0.53358894412E+03  0.00000000000E+00 0.  1.
          1   -1    0    0  501    0  0.00000000000E+00 -0.00000000000E+00 -0.73917391347E+03  0.73917391347E+03  0.00000000000E+00 0. -1.
         23    2    1    2    0    0 -0.27871278881E+03  0.11908378470E+03 -0.45672998685E+03  0.55528489854E+03  0.88753992734E+02 0.  0.
    5000000    2    1    2    0    0  0.27871278881E+03 -0.11908378470E+03  0.25114501750E+03  0.71747795906E+03  0.59986584792E+03 0.  0.
         23    2    4    4    0    0 -0.90035263278E+02 -0.23883384185E+03  0.62832972661E+02  0.27818894809E+03  0.91066765285E+02 0.  0.
         23    2    4    4    0    0  0.36874805209E+03  0.11975005715E+03  0.18831204484E+03  0.43928901097E+03  0.84842246690E+02 0.  0.
          2    1    3    3  502    0 -0.38127897526E+02  0.12565070411E+02 -0.12844931665E+03  0.13457653775E+03  0.00000000000E+00 0. -1.
         -2    1    3    3    0  502 -0.24058489129E+03  0.10651871429E+03 -0.32828067020E+03  0.42070836079E+03  0.00000000000E+00 0.  1.
         13    1    5    5    0    0 -0.31385723783E+01 -0.92835981160E+02  0.55336203689E+02  0.10812245592E+03  0.00000000000E+00 0. -1.
        -13    1    5    5    0    0 -0.86896690899E+02 -0.14599786069E+03  0.74967689719E+01  0.17006649217E+03  0.00000000000E+00 0.  1.
          1    1    6    6  503    0  0.18243784544E+03  0.10234055836E+03  0.11118929079E+03  0.23689705722E+03  0.00000000000E+00 0. -1.
         -1    1    6    6    0  503  0.18631020665E+03  0.17409498782E+02  0.77122754046E+02  0.20239195375E+03  0.00000000000E+00 0.  1.
<mgrwt>
<rscale>  0 0.48117499E+03</rscale>
<asrwt>0</asrwt>
<pdfrwt beam="1">  1        1 0.11371906E+00 0.48117499E+03</pdfrwt>
<pdfrwt beam="2">  1       -1 0.82090607E-01 0.48117499E+03</pdfrwt>
<totfact> 0.39128626E+01</totfact>
</mgrwt>
</event>
<event>
12    1  0.1335216E-007  0.5422130E+03  0.7818608E-02  0.1003313E+00
         -1   -1    0    0    0  501 -0.00000000000E+00  0.00000000000E+00  0.26808408235E+04  0.26808408235E+04  0.00000000000E+00 0.  1.
          1   -1    0    0  501    0  0.00000000000E+00 -0.00000000000E+00 -0.16234412745E+03  0.16234412745E+03  0.00000000000E+00 0. -1.
         23    2    1    2    0    0 -0.51840115196E+03  0.43346891101E+01  0.99578012673E+03  0.11264534371E+04  0.92524274195E+02 0.  0.
    5000000    2    1    2    0    0  0.51840115196E+03 -0.43346891101E+01  0.15227165693E+04  0.17167315138E+04  0.59978562522E+03 0.  0.
         23    2    4    4    0    0  0.13098505859E+03 -0.78627890773E+02  0.42433345268E+02  0.18232356652E+03  0.90010351272E+02 0.  0.
         23    2    4    4    0    0  0.38741609337E+03  0.74293201663E+02  0.14802832240E+04  0.15344079473E+04  0.86940302296E+02 0.  0.
          4    1    3    3  502    0 -0.39866946113E+03  0.24313336450E+02  0.82872955624E+03  0.91995714843E+03  0.00000000000E+00 0.  1.
         -4    1    3    3    0  502 -0.11973169083E+03 -0.19978647340E+02  0.16705057049E+03  0.20649628868E+03  0.00000000000E+00 0. -1.
         11    1    5    5    0    0  0.28682709144E+02 -0.53399100416E+02  0.47236433378E+02  0.76846876107E+02  0.00000000000E+00 0.  1.
        -11    1    5    5    0    0  0.10230234944E+03 -0.25228790357E+02 -0.48030881094E+01  0.10547669041E+03  0.00000000000E+00 0. -1.
          1    1    6    6  503    0  0.29206084047E+03  0.77736587877E+02  0.99727801780E+03  0.10420681151E+04  0.00000000000E+00 0. -1.
         -1    1    6    6    0  503  0.95355252908E+02 -0.34433862138E+01  0.48300520622E+03  0.49233983224E+03  0.00000000000E+00 0.  1.
<mgrwt>
<rscale>  0 0.54221301E+03</rscale>
<asrwt>0</asrwt>
<pdfrwt beam="1">  1        1 0.24976022E-01 0.54221301E+03</pdfrwt>
<pdfrwt beam="2">  1       -1 0.41243702E+00 0.54221301E+03</pdfrwt>
<totfact> 0.12758833E+00</totfact>
</mgrwt>
</event>
<event>
12    1  0.1335216E-007  0.1215241E+04  0.7818608E-02  0.9099620E-01
          2   -1    0    0  501    0  0.00000000000E+00  0.00000000000E+00  0.15787388152E+04  0.15787388152E+04  0.00000000000E+00 0. -1.
         -2   -1    0    0    0  501 -0.00000000000E+00 -0.00000000000E+00 -0.98914057191E+03  0.98914057191E+03  0.00000000000E+00 0.  1.
         23    2    1    2    0    0 -0.90914565285E+03  0.72646690012E+03  0.10791614106E+03  0.11722371260E+04  0.90520776562E+02 0.  0.
    5000000    2    1    2    0    0  0.90914565285E+03 -0.72646690012E+03  0.48168210223E+03  0.13956422611E+04  0.60124844976E+03 0.  0.
         23    2    4    4    0    0  0.21684395946E+03 -0.48813795064E+03  0.35520259134E+03  0.64802859896E+03  0.92044677050E+02 0.  0.
         23    2    4    4    0    0  0.69230169339E+03 -0.23832894948E+03  0.12647951089E+03  0.74761366215E+03  0.82745382501E+02 0.  0.
          3    1    3    3  502    0 -0.65979888217E+03  0.53430816380E+03  0.11860873863E+03  0.85725597793E+03  0.00000000000E+00 0. -1.
         -3    1    3    3    0  502 -0.24934677068E+03  0.19215873631E+03 -0.10692597571E+02  0.31498114806E+03  0.00000000000E+00 0.  1.
         13    1    5    5    0    0  0.14477892947E+03 -0.32625439970E+03  0.28755137230E+03  0.45835429905E+03  0.00000000000E+00 0. -1.
        -13    1    5    5    0    0  0.72065029987E+02 -0.16188355094E+03  0.67651219041E+02  0.18967429992E+03  0.00000000000E+00 0.  1.
          4    1    6    6  503    0  0.36386525297E+03 -0.13737617833E+03  0.26853560056E+02  0.38986055248E+03  0.00000000000E+00 0. -1.
         -4    1    6    6    0  503  0.32843644043E+03 -0.10095277114E+03  0.99625950832E+02  0.35775310967E+03  0.00000000000E+00 0.  1.
<mgrwt>
<rscale>  0 0.12152408E+04</rscale>
<asrwt>0</asrwt>
<pdfrwt beam="1">  1        2 0.24288289E+00 0.12152408E+04</pdfrwt>
<pdfrwt beam="2">  1       -2 0.15217547E+00 0.12152408E+04</pdfrwt>
<totfact> 0.32073440E+00</totfact>
</mgrwt>
</event>
<event>
12    1  0.1335216E-007  0.1071290E+04  0.7818608E-02  0.9233635E-01
          1   -1    0    0  501    0  0.00000000000E+00  0.00000000000E+00  0.13989458914E+04  0.13989458914E+04  0.00000000000E+00 0. -1.
         -1   -1    0    0    0  501 -0.00000000000E+00 -0.00000000000E+00 -0.12288955622E+04  0.12288955622E+04  0.00000000000E+00 0.  1.
         23    2    1    2    0    0 -0.99660861654E+03  0.14526628351E+03  0.80559376600E+03  0.12943131005E+04  0.10924311683E+03 0.  0.
    5000000    2    1    2    0    0  0.99660861654E+03 -0.14526628351E+03 -0.63554343680E+03  0.13335283530E+04  0.60004281562E+03 0.  0.
         23    2    4    4    0    0  0.34369851785E+02 -0.14352654748E+03  0.51970149066E+01  0.17378738609E+03  0.91618175365E+02 0.  0.
         23    2    4    4    0    0  0.96223876476E+03 -0.17397360245E+01 -0.64074045170E+03  0.11597409669E+04  0.92435473993E+02 0.  0.
          1    1    3    3  502    0 -0.29346330133E+03  0.11779132416E+02  0.18575212368E+03  0.34751015616E+03  0.00000000000E+00 0. -1.
         -1    1    3    3    0  502 -0.70314531522E+03  0.13348715109E+03  0.61984164232E+03  0.94680294432E+03  0.00000000000E+00 0.  1.
         13    1    5    5    0    0  0.39042473288E+02 -0.18671022863E+02  0.20543110111E+02  0.47905544441E+02  0.00000000000E+00 0. -1.
        -13    1    5    5    0    0 -0.46726215030E+01 -0.12485552462E+03 -0.15346095204E+02  0.12588184165E+03  0.00000000000E+00 0.  1.
          2    1    6    6  503    0  0.28411354132E+03  0.32509705195E+02 -0.15882265140E+03  0.32711163216E+03  0.00000000000E+00 0. -1.
         -2    1    6    6    0  503  0.67812522344E+03 -0.34249441220E+02 -0.48191780030E+03  0.83262933478E+03  0.00000000000E+00 0.  1.
<mgrwt>
<rscale>  0 0.10712904E+04</rscale>
<asrwt>0</asrwt>
<pdfrwt beam="1">  1        1 0.21522245E+00 0.10712904E+04</pdfrwt>
<pdfrwt beam="2">  1       -1 0.18906086E+00 0.10712904E+04</pdfrwt>
<totfact> 0.13750384E+00</totfact>
</mgrwt>
</event>
<event>
12    1  0.1335216E-007  0.5192019E+03  0.7818608E-02  0.1008885E+00
         -1   -1    0    0    0  501 -0.00000000000E+00  0.00000000000E+00  0.69958940913E+03  0.69958940913E+03  0.00000000000E+00 0.  1.
          1   -1    0    0  501    0  0.00000000000E+00 -0.00000000000E+00 -0.66115160825E+03  0.66115160825E+03  0.00000000000E+00 0. -1.
         23    2    1    2    0    0  0.32380680243E+03 -0.39266629279E+03  0.20470420630E+03  0.55655445661E+03  0.93868995441E+02 0.  0.
    5000000    2    1    2    0    0 -0.32380680243E+03  0.39266629279E+03 -0.16626640542E+03  0.80418656077E+03  0.60002820280E+03 0.  0.
         23    2    4    4    0    0 -0.19168528078E+03  0.25315525633E+03  0.19600396627E+03  0.38422369355E+03  0.91539397081E+02 0.  0.
         23    2    4    4    0    0 -0.13212152165E+03  0.13951103646E+03 -0.36227037169E+03  0.41996286721E+03  0.90606632518E+02 0.  0.
          4    1    3    3  502    0  0.80249051794E+02 -0.87436261238E+02  0.91874393711E+02  0.15008635619E+03  0.00000000000E+00 0. -1.
         -4    1    3    3    0  502  0.24355775064E+03 -0.30523003155E+03  0.11282981258E+03  0.40646810043E+03  0.00000000000E+00 0.  1.
         13    1    5    5    0    0 -0.13804482950E+03  0.20544940695E+03  0.10642240367E+03  0.26942821265E+03  0.00000000000E+00 0.  1.
        -13    1    5    5    0    0 -0.53640451281E+02  0.47705849382E+02  0.89581562596E+02  0.11479548090E+03  0.00000000000E+00 0. -1.
          1    1    6    6  503    0 -0.82298448605E+02  0.13727084845E+03 -0.24644395308E+03  0.29385530876E+03  0.00000000000E+00 0.  1.
         -1    1    6    6    0  503 -0.49823073050E+02  0.22401880017E+01 -0.11582641861E+03  0.12610755845E+03  0.00000000000E+00 0. -1.
<mgrwt>
<rscale>  0 0.51920185E+03</rscale>
<asrwt>0</asrwt>
<pdfrwt beam="1">  1        1 0.10171563E+00 0.51920185E+03</pdfrwt>
<pdfrwt beam="2">  1       -1 0.10762914E+00 0.51920185E+03</pdfrwt>
<totfact> 0.25204869E+01</totfact>
</mgrwt>
</event>
<event>
12    1  0.1355276E-007  0.1337551E+04  0.7818608E-02  0.9000306E-01
          2   -1    0    0  501    0  0.00000000000E+00  0.00000000000E+00  0.13365429814E+04  0.13365429814E+04  0.00000000000E+00 0. -1.
         -2   -1    0    0    0  501 -0.00000000000E+00 -0.00000000000E+00 -0.15069015404E+04  0.15069015404E+04  0.00000000000E+00 0.  1.
         23    2    1    2    0    0  0.13027973413E+04 -0.10553916439E+03 -0.43672897618E+03  0.13808938254E+04  0.87841507517E+02 0.  0.
    5000000    2    1    2    0    0 -0.13027973413E+04  0.10553916439E+03  0.26637041722E+03  0.14625506964E+04  0.59973486860E+03 0.  0.
         23    2    4    4    0    0 -0.67011798998E+02 -0.45312591342E+02 -0.10378699007E+03  0.16058088952E+03  0.92036246293E+02 0.  0.
         23    2    4    4    0    0 -0.12357855424E+04  0.15085175573E+03  0.37015740729E+03  0.13019698069E+04  0.90480456709E+02 0.  0.
          4    1    3    3  502    0  0.86791373778E+03 -0.39164383999E+02 -0.26075994740E+03  0.90708536278E+03  0.00000000000E+00 0. -1.
         -4    1    3    3    0  502  0.43488360357E+03 -0.66374780387E+02 -0.17596902879E+03  0.47380846259E+03  0.00000000000E+00 0.  1.
         13    1    5    5    0    0 -0.83288188118E+02 -0.12952063259E+02 -0.85272543870E+02  0.11990031260E+03  0.00000000000E+00 0. -1.
        -13    1    5    5    0    0  0.16276389120E+02 -0.32360528083E+02 -0.18514446200E+02  0.40680576922E+02  0.00000000000E+00 0.  1.
          3    1    6    6  503    0 -0.91794564676E+03  0.90991435862E+02  0.23854756461E+03  0.95278989939E+03  0.00000000000E+00 0. -1.
         -3    1    6    6    0  503 -0.31783989559E+03  0.59860319867E+02  0.13160984268E+03  0.34917990752E+03  0.00000000000E+00 0.  1.
<mgrwt>
<rscale>  0 0.13375506E+04</rscale>
<asrwt>0</asrwt>
<pdfrwt beam="1">  1        2 0.20562200E+00 0.13375506E+04</pdfrwt>
<pdfrwt beam="2">  1       -2 0.23183101E+00 0.13375506E+04</pdfrwt>
<totfact> 0.12546306E+00</totfact>
</mgrwt>
</event>
<event>
12    1  0.1335216E-007  0.5963383E+03  0.7818608E-02  0.9913032E-01
         -1   -1    0    0    0  501 -0.00000000000E+00  0.00000000000E+00  0.20998725436E+03  0.20998725436E+03  0.00000000000E+00 0.  1.
          1   -1    0    0  501    0  0.00000000000E+00 -0.00000000000E+00 -0.23677793324E+04  0.23677793324E+04  0.00000000000E+00 0. -1.
         23    2    1    2    0    0  0.21097808644E+03 -0.39510503591E+03 -0.23400193113E+03  0.51340194252E+03  0.90580949667E+02 0.  0.
    5000000    2    1    2    0    0 -0.21097808644E+03  0.39510503591E+03 -0.19237901469E+04  0.20643646443E+04  0.60001092714E+03 0.  0.
         23    2    4    4    0    0 -0.21401032341E+03 -0.92400601266E+02 -0.72573090193E+03  0.76761174108E+03  0.90576781771E+02 0.  0.
         23    2    4    4    0    0  0.30322369694E+01  0.48750563718E+03 -0.11980592450E+04  0.12967529032E+04  0.92472680399E+02 0.  0.
          1    1    3    3  502    0  0.54604308865E+02 -0.45945596569E+02 -0.59472105657E+02  0.92895423687E+02  0.00000000000E+00 0. -1.
         -1    1    3    3    0  502  0.15637377758E+03 -0.34915943934E+03 -0.17452982547E+03  0.42050651883E+03  0.00000000000E+00 0.  1.
         13    1    5    5    0    0 -0.84837565997E+01 -0.35961181355E+02 -0.10813795101E+03  0.11427596921E+03  0.00000000000E+00 0. -1.
        -13    1    5    5    0    0 -0.20552656681E+03 -0.56439419910E+02 -0.61759295092E+03  0.65333577187E+03  0.00000000000E+00 0.  1.
          1    1    6    6  503    0  0.18239638309E+02  0.25560239770E+03 -0.73995897863E+03  0.78307378974E+03  0.00000000000E+00 0. -1.
         -1    1    6    6    0  503 -0.15207401340E+02  0.23190323948E+03 -0.45810026638E+03  0.51367911345E+03  0.00000000000E+00 0.  1.
<mgrwt>
<rscale>  0 0.59633835E+03</rscale>
<asrwt>0</asrwt>
<pdfrwt beam="1">  1        1 0.36427373E+00 0.59633835E+03</pdfrwt>
<pdfrwt beam="2">  1       -1 0.32305733E-01 0.59633835E+03</pdfrwt>
<totfact> 0.16097508E+01</totfact>
</mgrwt>
</event>
<event>
12    1  0.1335216E-007  0.1228660E+04  0.7818608E-02  0.9088134E-01
         -1   -1    0    0    0  501 -0.00000000000E+00  0.00000000000E+00  0.62805871849E+03  0.62805871849E+03  0.00000000000E+00 0.  1.
          1   -1    0    0  501    0  0.00000000000E+00 -0.00000000000E+00 -0.25810942611E+04  0.25810942611E+04  0.00000000000E+00 0. -1.
         23    2    1    2    0    0  0.11572702959E+04 -0.84983155060E+02 -0.53468144400E+03  0.12808735522E+04  0.90863280262E+02 0.  0.
    5000000    2    1    2    0    0 -0.11572702959E+04  0.84983155060E+02 -0.14183540986E+04  0.19282794274E+04  0.60003043812E+03 0.  0.
         23    2    4    4    0    0 -0.28613673415E+03 -0.22449405114E+03 -0.35658265916E+03  0.51741253876E+03  0.91064443281E+02 0.  0.
         23    2    4    4    0    0 -0.87113356175E+03  0.30947720620E+03 -0.10617714394E+04  0.14108668886E+04  0.92395693894E+02 0.  0.
          4    1    3    3  502    0  0.41258921853E+03 -0.19374780443E+02 -0.23708616707E+03  0.47625108502E+03  0.00000000000E+00 0. -1.
         -4    1    3    3    0  502  0.74468107736E+03 -0.65608374617E+02 -0.29759527693E+03  0.80462246716E+03  0.00000000000E+00 0.  1.
         13    1    5    5    0    0 -0.10476130262E+03 -0.42708911793E+02 -0.14975403712E+03  0.18768391861E+03  0.00000000000E+00 0. -1.
        -13    1    5    5    0    0 -0.18137543153E+03 -0.18178513935E+03 -0.20682862204E+03  0.32972862015E+03  0.00000000000E+00 0.  1.
          2    1    6    6  503    0 -0.77395087368E+03  0.25233866300E+03 -0.96313283023E+03  0.12610708166E+04  0.00000000000E+00 0. -1.
         -2    1    6    6    0  503 -0.97182688069E+02  0.57138543197E+02 -0.98638609197E+02  0.14979607206E+03  0.00000000000E+00 0.  1.
<mgrwt>
<rscale>  0 0.12286597E+04</rscale>
<asrwt>0</asrwt>
<pdfrwt beam="1">  1        1 0.39709142E+00 0.12286597E+04</pdfrwt>
<pdfrwt beam="2">  1       -1 0.96624420E-01 0.12286597E+04</pdfrwt>
<totfact> 0.12107618E+00</totfact>
</mgrwt>
</event>
<event>
12    1  0.1335216E-007  0.6155506E+03  0.7818608E-02  0.9873659E-01
         -1   -1    0    0    0  501 -0.00000000000E+00  0.00000000000E+00  0.19516531155E+03  0.19516531155E+03  0.00000000000E+00 0.  1.
          1   -1    0    0  501    0  0.00000000000E+00 -0.00000000000E+00 -0.27024067896E+04  0.27024067896E+04  0.00000000000E+00 0. -1.
         23    2    1    2    0    0 -0.37413457241E+02  0.51210998520E+03 -0.43240201836E+03  0.67749054857E+03  0.91463294263E+02 0.  0.
    5000000    2    1    2    0    0  0.37413457241E+02 -0.51210998520E+03 -0.20748394597E+04  0.22200815526E+04  0.60012241495E+03 0.  0.
         23    2    4    4    0    0 -0.15138544421E+03 -0.13027723952E+02 -0.19433574248E+03  0.26292352645E+03  0.90967717587E+02 0.  0.
         23    2    4    4    0    0  0.18879890145E+03 -0.49908226124E+03 -0.18805037172E+04  0.19571580262E+04  0.97186316686E+02 0.  0.
          2    1    3    3  502    0 -0.33050116862E+02  0.85936265366E+02 -0.10773349982E+03  0.14171753213E+03  0.00000000000E+00 0. -1.
         -2    1    3    3    0  502 -0.43633403784E+01  0.42617371983E+03 -0.32466851855E+03  0.53577301644E+03  0.00000000000E+00 0.  1.
         11    1    5    5    0    0 -0.16265304983E+03 -0.61343131662E+01 -0.17081733334E+03  0.23594958315E+03  0.00000000000E+00 0. -1.
        -11    1    5    5    0    0  0.11267605620E+02 -0.68934107859E+01 -0.23518409136E+02  0.26973943296E+02  0.00000000000E+00 0.  1.
          2    1    6    6  503    0  0.12128172080E+03 -0.39136658440E+03 -0.15440628793E+04  0.15975003081E+04  0.00000000000E+00 0. -1.
         -2    1    6    6    0  503  0.67517180658E+02 -0.10771567685E+03 -0.33644083795E+03  0.35965771806E+03  0.00000000000E+00 0.  1.
<mgrwt>
<rscale>  0 0.61555059E+03</rscale>
<asrwt>0</asrwt>
<pdfrwt beam="1">  1        1 0.41575484E+00 0.61555059E+03</pdfrwt>
<pdfrwt beam="2">  1       -1 0.30025437E-01 0.61555059E+03</pdfrwt>
<totfact> 0.10779744E+01</totfact>
</mgrwt>
</event>
<event>
12    1  0.1335216E-007  0.4474749E+03  0.7818608E-02  0.1028478E+00
          1   -1    0    0  501    0  0.00000000000E+00  0.00000000000E+00  0.76993483241E+03  0.76993483241E+03  0.00000000000E+00 0.  1.
         -1   -1    0    0    0  501 -0.00000000000E+00 -0.00000000000E+00 -0.46003390735E+03  0.46003390735E+03  0.00000000000E+00 0. -1.
         23    2    1    2    0    0 -0.27969692684E+03  0.29247074054E+03  0.29007612427E+03  0.50586213928E+03  0.89346746572E+02 0.  0.
    5000000    2    1    2    0    0  0.27969692684E+03 -0.29247074054E+03  0.19824800791E+02  0.72410660049E+03  0.60013985136E+03 0.  0.
         23    2    4    4    0    0  0.56044157656E+01 -0.12975034381E+02 -0.23077955421E+03  0.25030872422E+03  0.95893137315E+02 0.  0.
         23    2    4    4    0    0  0.27409251108E+03 -0.27949570616E+03  0.25060435500E+03  0.47379787627E+03  0.91854942301E+02 0.  0.
          2    1    3    3  502    0 -0.18868087716E+03  0.17799604755E+03  0.23365028998E+03  0.34910675209E+03  0.00000000000E+00 0.  1.
         -2    1    3    3    0  502 -0.91016049681E+02  0.11447469300E+03  0.56425834294E+02  0.15675538719E+03  0.00000000000E+00 0. -1.
         13    1    5    5    0    0  0.12700511942E+02  0.40777633588E+02 -0.10133733061E+03  0.10996987306E+03  0.00000000000E+00 0. -1.
        -13    1    5    5    0    0 -0.70960961761E+01 -0.53752667969E+02 -0.12944222360E+03  0.14033885116E+03  0.00000000000E+00 0.  1.
          4    1    6    6  503    0  0.21475667123E+03 -0.23402098187E+03  0.24040534872E+03  0.39834781220E+03  0.00000000000E+00 0. -1.
         -4    1    6    6    0  503  0.59335839842E+02 -0.45474724296E+02  0.10199006284E+02  0.75450064073E+02  0.00000000000E+00 0.  1.
<mgrwt>
<rscale>  0 0.44747485E+03</rscale>
<asrwt>0</asrwt>
<pdfrwt beam="1">  1        1 0.11845151E+00 0.44747485E+03</pdfrwt>
<pdfrwt beam="2">  1       -1 0.70774447E-01 0.44747485E+03</pdfrwt>
<totfact> 0.50265922E+01</totfact>
</mgrwt>
</event>
<event>
12    1  0.1335216E-007  0.5466762E+03  0.7818608E-02  0.1002266E+00
         -2   -1    0    0    0  501 -0.00000000000E+00  0.00000000000E+00  0.18245672083E+03  0.18245672083E+03  0.00000000000E+00 0.  1.
          2   -1    0    0  501    0  0.00000000000E+00 -0.00000000000E+00 -0.16892266221E+04  0.16892266221E+04  0.00000000000E+00 0. -1.
         23    2    1    2    0    0  0.25998202823E+03 -0.28455328598E+03 -0.55504819259E+03  0.68240982160E+03  0.95097008170E+02 0.  0.
    5000000    2    1    2    0    0 -0.25998202823E+03  0.28455328598E+03 -0.95172170868E+03  0.11892735213E+04  0.60003005773E+03 0.  0.
         23    2    4    4    0    0  0.17315935526E+03  0.56497939026E+02 -0.37751765590E+03  0.42874036259E+03  0.90125127271E+02 0.  0.
         23    2    4    4    0    0 -0.43314138349E+03  0.22805534695E+03 -0.57420405278E+03  0.76053315873E+03  0.95287417523E+02 0.  0.
          1    1    3    3  502    0  0.87870648172E+02 -0.50103390545E+02 -0.99162267257E+02  0.14165011755E+03  0.00000000000E+00 0. -1.
         -1    1    3    3    0  502  0.17211138006E+03 -0.23444989543E+03 -0.45588592533E+03  0.54075970405E+03  0.00000000000E+00 0.  1.
         11    1    5    5    0    0  0.14985517316E+03  0.80211596275E+02 -0.31525766639E+03  0.35815900005E+03  0.00000000000E+00 0.  1.
        -11    1    5    5    0    0  0.23304182102E+02 -0.23713657249E+02 -0.62259989514E+02  0.70581362539E+02  0.00000000000E+00 0. -1.
          1    1    6    6  503    0 -0.23655631972E+03  0.17579869062E+03 -0.32190877942E+03  0.43645083834E+03  0.00000000000E+00 0. -1.
         -1    1    6    6    0  503 -0.19658506378E+03  0.52256656329E+02 -0.25229527336E+03  0.32408232039E+03  0.00000000000E+00 0.  1.
<mgrwt>
<rscale>  0 0.54667619E+03</rscale>
<asrwt>0</asrwt>
<pdfrwt beam="1">  1        2 0.25988102E+00 0.54667619E+03</pdfrwt>
<pdfrwt beam="2">  1       -2 0.28070264E-01 0.54667619E+03</pdfrwt>
<totfact> 0.12023794E+02</totfact>
</mgrwt>
</event>
<event>
12    1  0.1335216E-007  0.1106735E+04  0.7818608E-02  0.9198652E-01
         -1   -1    0    0    0  501 -0.00000000000E+00  0.00000000000E+00  0.33057146251E+04  0.33057146251E+04  0.00000000000E+00 0.  1.
          1   -1    0    0  501    0  0.00000000000E+00 -0.00000000000E+00 -0.60425120047E+03  0.60425120047E+03  0.00000000000E+00 0. -1.
         23    2    1    2    0    0  0.50546203757E+03  0.90508755607E+03  0.99221760525E+02  0.10453107004E+04  0.90300315775E+02 0.  0.
    5000000    2    1    2    0    0 -0.50546203757E+03 -0.90508755607E+03  0.26022416641E+04  0.28646551252E+04  0.59992662232E+03 0.  0.
         23    2    4    4    0    0 -0.28955263428E+03 -0.51377297884E+02  0.56764425940E+03  0.64586808801E+03  0.91897916830E+02 0.  0.
         23    2    4    4    0    0 -0.21590940329E+03 -0.85371025819E+03  0.20345974047E+04  0.22187870372E+04  0.89393745185E+02 0.  0.
          2    1    3    3  502    0  0.15211899627E+03  0.30045219979E+03 -0.78726426880E+01  0.33685856363E+03  0.00000000000E+00 0. -1.
         -2    1    3    3    0  502  0.35334304130E+03  0.60463535628E+03  0.10709440321E+03  0.70845213678E+03  0.00000000000E+00 0.  1.
         13    1    5    5    0    0 -0.12146894518E+03 -0.31548619364E+02  0.15218300449E+03  0.19725538493E+03  0.00000000000E+00 0.  1.
        -13    1    5    5    0    0 -0.16808368910E+03 -0.19828678520E+02  0.41546125491E+03  0.44861270308E+03  0.00000000000E+00 0. -1.
          3    1    6    6  503    0 -0.12423459592E+03 -0.40335409157E+03  0.87626899759E+03  0.97261303412E+03  0.00000000000E+00 0.  1.
         -3    1    6    6    0  503 -0.91674807373E+02 -0.45035616662E+03  0.11583284071E+04  0.12461740031E+04  0.00000000000E+00 0. -1.
<mgrwt>
<rscale>  0 0.11067354E+04</rscale>
<asrwt>0</asrwt>
<pdfrwt beam="1">  1        1 0.92961725E-01 0.11067354E+04</pdfrwt>
<pdfrwt beam="2">  1       -1 0.50857147E+00 0.11067354E+04</pdfrwt>
<totfact> 0.44500858E-02</totfact>
</mgrwt>
</event>
<event>
12    1  0.1335216E-007  0.6567345E+03  0.7818608E-02  0.9794224E-01
          2   -1    0    0  501    0  0.00000000000E+00  0.00000000000E+00  0.29613791473E+04  0.29613791473E+04  0.00000000000E+00 0. -1.
         -2   -1    0    0    0  501 -0.00000000000E+00 -0.00000000000E+00 -0.24127031032E+03  0.24127031032E+03  0.00000000000E+00 0.  1.
         23    2    1    2    0    0 -0.51646369973E+03  0.93986712860E+02  0.21866747667E+03  0.57723321686E+03  0.99067986552E+02 0.  0.
    5000000    2    1    2    0    0  0.51646369973E+03 -0.93986712860E+02  0.25014413603E+04  0.26254162407E+04  0.60002775172E+03 0.  0.
         23    2    4    4    0    0  0.51356602002E+02 -0.27205554008E+03  0.90069167868E+03  0.94646452454E+03  0.88870010233E+02 0.  0.
         23    2    4    4    0    0  0.46510709773E+03  0.17806882722E+03  0.16007496816E+04  0.16789517162E+04  0.91903223846E+02 0.  0.
          2    1    3    3  502    0 -0.10962474917E+03  0.60418589103E+02  0.65040941900E+02  0.14106138970E+03  0.00000000000E+00 0. -1.
         -2    1    3    3    0  502 -0.40683895056E+03  0.33568123757E+02  0.15362653477E+03  0.43617182717E+03  0.00000000000E+00 0.  1.
         11    1    5    5    0    0  0.62113561127E+02 -0.20750320796E+03  0.77575025083E+03  0.80542170783E+03  0.00000000000E+00 0.  1.
        -11    1    5    5    0    0 -0.10756959125E+02 -0.64552332122E+02  0.12494142785E+03  0.14104281671E+03  0.00000000000E+00 0. -1.
          4    1    6    6  503    0  0.15194486934E+03  0.57198129234E+02  0.38789025158E+03  0.42049698759E+03  0.00000000000E+00 0. -1.
         -4    1    6    6    0  503  0.31316222840E+03  0.12087069799E+03  0.12128594300E+04  0.12584547286E+04  0.00000000000E+00 0.  1.
<mgrwt>
<rscale>  0 0.65673452E+03</rscale>
<asrwt>0</asrwt>
<pdfrwt beam="1">  1        2 0.45559676E+00 0.65673452E+03</pdfrwt>
<pdfrwt beam="2">  1       -2 0.37118511E-01 0.65673452E+03</pdfrwt>
<totfact> 0.13586567E+01</totfact>
</mgrwt>
</event>
<event>
12    1  0.1335216E-007  0.1980683E+03  0.7818608E-02  0.1151379E+00
          1   -1    0    0  501    0  0.00000000000E+00  0.00000000000E+00  0.31131356741E+03  0.31131356741E+03  0.00000000000E+00 0. -1.
         -1   -1    0    0    0  501 -0.00000000000E+00 -0.00000000000E+00 -0.45832756702E+03  0.45832756702E+03  0.00000000000E+00 0.  1.
         23    2    1    2    0    0  0.91522044689E+02  0.48192575663E+02  0.16015148945E+02  0.13939647841E+03  0.92065651490E+02 0.  0.
    5000000    2    1    2    0    0 -0.91522044689E+02 -0.48192575663E+02 -0.16302914856E+03  0.63024465603E+03  0.59994250905E+03 0.  0.
         23    2    4    4    0    0 -0.15432579524E+03 -0.23477593220E+02  0.18955489903E+03  0.26021669589E+03  0.86104707266E+02 0.  0.
         23    2    4    4    0    0  0.62803750554E+02 -0.24714982442E+02 -0.35258404758E+03  0.37002796014E+03  0.89722010870E+02 0.  0.
          4    1    3    3  502    0  0.35534374813E+02 -0.46801835006E+01  0.44633817541E+02  0.57243109448E+02  0.00000000000E+00 0. -1.
         -4    1    3    3    0  502  0.55987669875E+02  0.52872759163E+02 -0.28618668595E+02  0.82153368962E+02  0.00000000000E+00 0.  1.
         13    1    5    5    0    0 -0.26046276071E+02 -0.40698018168E+02  0.42898875689E+02  0.64614632362E+02  0.00000000000E+00 0.  1.
        -13    1    5    5    0    0 -0.12827951917E+03  0.17220424948E+02  0.14665602334E+03  0.19560206353E+03  0.00000000000E+00 0. -1.
          3    1    6    6  503    0  0.66440855545E+02 -0.48003457324E+02 -0.20858448138E+03  0.22411203688E+03  0.00000000000E+00 0. -1.
         -3    1    6    6    0  503 -0.36371049905E+01  0.23288474882E+02 -0.14399956620E+03  0.14591592326E+03  0.00000000000E+00 0.  1.
<mgrwt>
<rscale>  0 0.19806830E+03</rscale>
<asrwt>0</asrwt>
<pdfrwt beam="1">  1        1 0.47894395E-01 0.19806830E+03</pdfrwt>
<pdfrwt beam="2">  1       -1 0.70511933E-01 0.19806830E+03</pdfrwt>
<totfact> 0.17986624E+02</totfact>
</mgrwt>
</event>
<event>
12    1  0.1335216E-007  0.1118997E+04  0.7818608E-02  0.9186871E-01
         -1   -1    0    0    0  501 -0.00000000000E+00  0.00000000000E+00  0.11884176423E+04  0.11884176423E+04  0.00000000000E+00 0.  1.
          1   -1    0    0  501    0  0.00000000000E+00 -0.00000000000E+00 -0.15963014641E+04  0.15963014641E+04  0.00000000000E+00 0. -1.
         23    2    1    2    0    0  0.10111235548E+04  0.33563018711E+03 -0.96576432577E+03  0.14407728470E+04  0.90039981156E+02 0.  0.
    5000000    2    1    2    0    0 -0.10111235548E+04 -0.33563018711E+03  0.55788050392E+03  0.13439462593E+04  0.59995201953E+03 0.  0.
         23    2    4    4    0    0 -0.35656408456E+03  0.11024488907E+03  0.25903518188E+02  0.38549539256E+03  0.92972165022E+02 0.  0.
         23    2    4    4    0    0 -0.65455947024E+03 -0.44587507619E+03  0.53197698573E+03  0.95845086677E+03  0.91519762917E+02 0.  0.
          1    1    3    3  502    0  0.64463579673E+03  0.24534505908E+03 -0.66557589965E+03  0.95850966956E+03  0.00000000000E+00 0. -1.
         -1    1    3    3    0  502  0.36648775807E+03  0.90285128031E+02 -0.30018842612E+03  0.48226317746E+03  0.00000000000E+00 0.  1.
         13    1    5    5    0    0 -0.19049710127E+03  0.40903060638E+02 -0.29809828642E+02  0.19710614360E+03  0.00000000000E+00 0. -1.
        -13    1    5    5    0    0 -0.16606698329E+03  0.69341828436E+02  0.55713346830E+02  0.18838924897E+03  0.00000000000E+00 0.  1.
          3    1    6    6  503    0 -0.34256033947E+03 -0.28130201749E+03  0.26936938679E+03  0.51868899908E+03  0.00000000000E+00 0. -1.
         -3    1    6    6    0  503 -0.31199913077E+03 -0.16457305870E+03  0.26260759894E+03  0.43976186769E+03  0.00000000000E+00 0.  1.
<mgrwt>
<rscale>  0 0.11189972E+04</rscale>
<asrwt>0</asrwt>
<pdfrwt beam="1">  1        1 0.24558484E+00 0.11189972E+04</pdfrwt>
<pdfrwt beam="2">  1       -1 0.18283348E+00 0.11189972E+04</pdfrwt>
<totfact> 0.11040974E+00</totfact>
</mgrwt>
</event>
<event>
12    1  0.1335216E-007  0.5819866E+03  0.7818608E-02  0.9943499E-01
         -2   -1    0    0    0  501 -0.00000000000E+00  0.00000000000E+00  0.76240707879E+03  0.76240707879E+03  0.00000000000E+00 0.  1.
          2   -1    0    0  501    0  0.00000000000E+00 -0.00000000000E+00 -0.63035337892E+03  0.63035337892E+03  0.00000000000E+00 0. -1.
         23    2    1    2    0    0 -0.33212962085E+02  0.49002969554E+03  0.32234486382E+03  0.59442491931E+03  0.90568041284E+02 0.  0.
    5000000    2    1    2    0    0  0.33212962085E+02 -0.49002969554E+03 -0.19029116396E+03  0.79833553840E+03  0.59991391168E+03 0.  0.
         23    2    4    4    0    0 -0.20244049564E+03 -0.25174539772E+03 -0.28270817369E+03  0.43871627792E+03  0.90499510986E+02 0.  0.
         23    2    4    4    0    0  0.23565345773E+03 -0.23828429782E+03  0.92417009730E+02  0.35961926049E+03  0.92049715371E+02 0.  0.
          4    1    3    3  502    0 -0.16169845710E+02  0.91696625375E+02  0.23139252904E+02  0.95943525266E+02  0.00000000000E+00 0. -1.
         -4    1    3    3    0  502 -0.17043116375E+02  0.39833307017E+03  0.29920561092E+03  0.49848139405E+03  0.00000000000E+00 0.  1.
         11    1    5    5    0    0 -0.43815873554E+02 -0.12240948998E+03 -0.12470991262E+03  0.18015681036E+03  0.00000000000E+00 0.  1.
        -11    1    5    5    0    0 -0.15862462209E+03 -0.12933590774E+03 -0.15799826107E+03  0.25855946756E+03  0.00000000000E+00 0. -1.
          1    1    6    6  503    0  0.59697393055E+02 -0.86516722443E+02 -0.10191139340E+02  0.10560672952E+03  0.00000000000E+00 0.  1.
         -1    1    6    6    0  503  0.17595606467E+03 -0.15176757538E+03  0.10260814907E+03  0.25401253096E+03  0.00000000000E+00 0. -1.
<mgrwt>
<rscale>  0 0.58198657E+03</rscale>
<asrwt>0</asrwt>
<pdfrwt beam="1">  1        2 0.96977443E-01 0.58198657E+03</pdfrwt>
<pdfrwt beam="2">  1       -2 0.11729340E+00 0.58198657E+03</pdfrwt>
<totfact> 0.27011714E+01</totfact>
</mgrwt>
</event>
<event>
12    1  0.1335216E-007  0.1642185E+04  0.7818608E-02  0.8795043E-01
          2   -1    0    0  501    0  0.00000000000E+00  0.00000000000E+00  0.25197340818E+04  0.25197340818E+04  0.00000000000E+00 0.  1.
         -2   -1    0    0    0  501 -0.00000000000E+00 -0.00000000000E+00 -0.11117694260E+04  0.11117694260E+04  0.00000000000E+00 0. -1.
         23    2    1    2    0    0  0.10262056147E+04 -0.12301682093E+04  0.43022840022E+03  0.16611288025E+04  0.88547361177E+02 0.  0.
    5000000    2    1    2    0    0 -0.10262056147E+04  0.12301682093E+04  0.97773625551E+03  0.19703747053E+04  0.59999708937E+03 0.  0.
         23    2    4    4    0    0 -0.94716975588E+02 -0.10664737732E+02 -0.29024637087E+01  0.13258000048E+03  0.92108577974E+02 0.  0.
         23    2    4    4    0    0 -0.93148863908E+03  0.12408329471E+04  0.98063871922E+03  0.18377947049E+04  0.92193233503E+02 0.  0.
          2    1    3    3  502    0  0.63894072139E+03 -0.71787004820E+03  0.28948221337E+03  0.10036845139E+04  0.00000000000E+00 0. -1.
         -2    1    3    3    0  502  0.38726489328E+03 -0.51229816113E+03  0.14074618684E+03  0.65744428858E+03  0.00000000000E+00 0.  1.
         13    1    5    5    0    0 -0.22000485816E+02 -0.42387410103E+02  0.17162600399E+02  0.50747105965E+02  0.00000000000E+00 0. -1.
        -13    1    5    5    0    0 -0.72716489773E+02  0.31722672371E+02 -0.20065064108E+02  0.81832894516E+02  0.00000000000E+00 0.  1.
          1    1    6    6  503    0 -0.41106486476E+03  0.62065932841E+03  0.48632702613E+03  0.88921667850E+03  0.00000000000E+00 0. -1.
         -1    1    6    6    0  503 -0.52042377432E+03  0.62017361865E+03  0.49431169309E+03  0.94857802635E+03  0.00000000000E+00 0.  1.
<mgrwt>
<rscale>  0 0.16421846E+04</rscale>
<asrwt>0</asrwt>
<pdfrwt beam="1">  1        2 0.38765140E+00 0.16421846E+04</pdfrwt>
<pdfrwt beam="2">  1       -2 0.17104145E+00 0.16421846E+04</pdfrwt>
<totfact> 0.65989831E-01</totfact>
</mgrwt>
</event>
<event>
12    1  0.1565720E-007  0.1288203E+04  0.7818608E-02  0.9038973E-01
         -1   -1    0    0    0  501 -0.00000000000E+00  0.00000000000E+00  0.17361014991E+04  0.17361014991E+04  0.00000000000E+00 0.  1.
          1   -1    0    0  501    0  0.00000000000E+00 -0.00000000000E+00 -0.11262381441E+04  0.11262381441E+04  0.00000000000E+00 0. -1.
         23    2    1    2    0    0 -0.36919502583E+03  0.12016077122E+04  0.74284396197E+03  0.14629918080E+04  0.91442973253E+02 0.  0.
    5000000    2    1    2    0    0  0.36919502583E+03 -0.12016077122E+04 -0.13298060702E+03  0.13993478352E+04  0.60027032325E+03 0.  0.
         23    2    4    4    0    0  0.62679059112E+02 -0.79561792363E+03 -0.29606652817E+03  0.85713809269E+03  0.10046778580E+03 0.  0.
         23    2    4    4    0    0  0.30651596672E+03 -0.40598978858E+03  0.16308592115E+03  0.54220974254E+03  0.92815090048E+02 0.  0.
          1    1    3    3  502    0 -0.14277178097E+03  0.32891658930E+03  0.19921251635E+03  0.41018962789E+03  0.00000000000E+00 0. -1.
         -1    1    3    3    0  502 -0.22642324486E+03  0.87269112290E+03  0.54363144562E+03  0.10528021801E+04  0.00000000000E+00 0.  1.
         13    1    5    5    0    0 -0.45095468247E+01 -0.47777787929E+03 -0.14862723830E+03  0.50038194804E+03  0.00000000000E+00 0.  1.
        -13    1    5    5    0    0  0.67188605937E+02 -0.31784004433E+03 -0.14743928987E+03  0.35675614465E+03  0.00000000000E+00 0. -1.
          4    1    6    6  503    0  0.93672918680E+02 -0.74654789415E+02  0.65369110556E+02  0.13645905573E+03  0.00000000000E+00 0. -1.
         -4    1    6    6    0  503  0.21284304804E+03 -0.33133499916E+03  0.97716810591E+02  0.40575068680E+03  0.00000000000E+00 0.  1.
<mgrwt>
<rscale>  0 0.12882035E+04</rscale>
<asrwt>0</asrwt>
<pdfrwt beam="1">  1        1 0.17326741E+00 0.12882035E+04</pdfrwt>
<pdfrwt beam="2">  1       -1 0.26709254E+00 0.12882035E+04</pdfrwt>
<totfact> 0.63539609E-01</totfact>
</mgrwt>
</event>
<event>
12    1  0.1335216E-007  0.2502899E+04  0.7818608E-02  0.8401954E-01
          2   -1    0    0  501    0  0.00000000000E+00  0.00000000000E+00  0.23607199903E+04  0.23607199903E+04  0.00000000000E+00 0. -1.
         -2   -1    0    0    0  501 -0.00000000000E+00 -0.00000000000E+00 -0.27996422388E+04  0.27996422388E+04  0.00000000000E+00 0.  1.
         23    2    1    2    0    0 -0.15448721845E+04 -0.19673052567E+04 -0.63018242010E+03  0.25811957556E+04  0.92312549162E+02 0.  0.
    5000000    2    1    2    0    0  0.15448721845E+04  0.19673052567E+04  0.19126017157E+03  0.25791664735E+04  0.59883153353E+03 0.  0.
         23    2    4    4    0    0  0.33637499023E+03  0.40810132744E+03 -0.18752141136E+03  0.56836534600E+03  0.90443680306E+02 0.  0.
         23    2    4    4    0    0  0.12084971942E+04  0.15592039293E+04  0.37878158294E+03  0.20108011275E+04  0.90902834816E+02 0.  0.
          1    1    3    3  502    0 -0.63173722089E+03 -0.80279651223E+03 -0.21066250555E+03  0.10430497819E+04  0.00000000000E+00 0. -1.
         -1    1    3    3    0  502 -0.91313496357E+03 -0.11645087445E+04 -0.41951991456E+03  0.15381459737E+04  0.00000000000E+00 0.  1.
         11    1    5    5    0    0  0.12731112323E+03  0.19628214977E+03 -0.44423246245E+02  0.23813489711E+03  0.00000000000E+00 0.  1.
        -11    1    5    5    0    0  0.20906386700E+03  0.21181917767E+03 -0.14309816512E+03  0.33023044889E+03  0.00000000000E+00 0. -1.
          4    1    6    6  503    0  0.81472470785E+03  0.10686222176E+04  0.29961000216E+03  0.13767701140E+04  0.00000000000E+00 0. -1.
         -4    1    6    6    0  503  0.39377248639E+03  0.49058171167E+03  0.79171580773E+02  0.63403101349E+03  0.00000000000E+00 0.  1.
<mgrwt>
<rscale>  0 0.25028989E+04</rscale>
<asrwt>0</asrwt>
<pdfrwt beam="1">  1        2 0.36318769E+00 0.25028989E+04</pdfrwt>
<pdfrwt beam="2">  1       -2 0.43071419E+00 0.25028989E+04</pdfrwt>
<totfact> 0.16355631E-02</totfact>
</mgrwt>
</event>
<event>
12    1  0.1335216E-007  0.1109005E+04  0.7818608E-02  0.9196459E-01
         -1   -1    0    0    0  501 -0.00000000000E+00  0.00000000000E+00  0.13589925460E+04  0.13589925460E+04  0.00000000000E+00 0.  1.
          1   -1    0    0  501    0  0.00000000000E+00 -0.00000000000E+00 -0.11539817093E+04  0.11539817093E+04  0.00000000000E+00 0. -1.
         23    2    1    2    0    0 -0.98911783528E+03 -0.31328072036E+03 -0.46367901565E+03  0.11404219768E+04  0.95211101276E+02 0.  0.
    5000000    2    1    2    0    0  0.98911783528E+03  0.31328072036E+03  0.66868985240E+03  0.13725522785E+04  0.60021224308E+03 0.  0.
         23    2    4    4    0    0  0.96081606109E+03  0.10827033304E+03  0.57122945261E+03  0.11260756361E+04  0.82784554377E+02 0.  0.
         23    2    4    4    0    0  0.28301774189E+02  0.20501038732E+03  0.97460399793E+02  0.24647664241E+03  0.91771217684E+02 0.  0.
          3    1    3    3  502    0 -0.14652151340E+03 -0.81076998823E+02 -0.62508482207E+02  0.17874379423E+03  0.00000000000E+00 0. -1.
         -3    1    3    3    0  502 -0.84259632188E+03 -0.23220372154E+03 -0.40117053344E+03  0.96167818258E+03  0.00000000000E+00 0.  1.
         11    1    5    5    0    0  0.32240564329E+03  0.29836108430E+01  0.21402398359E+03  0.38698910361E+03  0.00000000000E+00 0.  1.
        -11    1    5    5    0    0  0.63841041781E+03  0.10528672220E+03  0.35720546902E+03  0.73908653250E+03  0.00000000000E+00 0. -1.
          1    1    6    6  503    0  0.22426725147E+02  0.13643525390E+03  0.15015492277E+02  0.13907911963E+03  0.00000000000E+00 0. -1.
         -1    1    6    6    0  503  0.58750490414E+01  0.68575133416E+02  0.82444907516E+02  0.10739752278E+03  0.00000000000E+00 0.  1.
<mgrwt>
<rscale>  0 0.11090050E+04</rscale>
<asrwt>0</asrwt>
<pdfrwt beam="1">  1        1 0.17753565E+00 0.11090050E+04</pdfrwt>
<pdfrwt beam="2">  1       -1 0.20907578E+00 0.11090050E+04</pdfrwt>
<totfact> 0.14935007E+00</totfact>
</mgrwt>
</event>
<event>
12    1  0.1335216E-007  0.4996161E+03  0.7818608E-02  0.1013879E+00
         -2   -1    0    0    0  501 -0.00000000000E+00  0.00000000000E+00  0.27630903852E+03  0.27630903852E+03  0.00000000000E+00 0.  1.
          2   -1    0    0  501    0  0.00000000000E+00 -0.00000000000E+00 -0.16208743602E+04  0.16208743602E+04  0.00000000000E+00 0. -1.
         23    2    1    2    0    0 -0.31417708983E+03  0.35433137180E+03 -0.87833426547E+03  0.10018264037E+04  0.89034243158E+02 0.  0.
    5000000    2    1    2    0    0  0.31417708983E+03 -0.35433137180E+03 -0.46623105623E+03  0.89535699504E+03  0.60002898761E+03 0.  0.
         23    2    4    4    0    0  0.28834184643E+03 -0.33106321197E+03 -0.58781156564E+03  0.73928980306E+03  0.91011567866E+02 0.  0.
         23    2    4    4    0    0  0.25835243399E+02 -0.23268159827E+02  0.12158050941E+03  0.15606719199E+03  0.91467377158E+02 0.  0.
          2    1    3    3  502    0 -0.27092982803E+03  0.28723127046E+03 -0.65681626638E+03  0.76636308773E+03  0.00000000000E+00 0. -1.
         -2    1    3    3    0  502 -0.43247261796E+02  0.67100101335E+02 -0.22151799909E+03  0.23546331598E+03  0.00000000000E+00 0.  1.
         11    1    5    5    0    0  0.19075273214E+03 -0.15345882360E+03 -0.34469166259E+03  0.42278665733E+03  0.00000000000E+00 0.  1.
        -11    1    5    5    0    0  0.97589114290E+02 -0.17760438837E+03 -0.24311990305E+03  0.31650314573E+03  0.00000000000E+00 0. -1.
          1    1    6    6  503    0 -0.20436751949E+02  0.72183140631E+01  0.89396730625E+02  0.91986631282E+02  0.00000000000E+00 0. -1.
         -1    1    6    6    0  503  0.46271995347E+02 -0.30486473891E+02  0.32183778780E+02  0.64080560705E+02  0.00000000000E+00 0.  1.
<mgrwt>
<rscale>  0 0.49961611E+03</rscale>
<asrwt>0</asrwt>
<pdfrwt beam="1">  1        2 0.24936529E+00 0.49961611E+03</pdfrwt>
<pdfrwt beam="2">  1       -2 0.42509083E-01 0.49961611E+03</pdfrwt>
<totfact> 0.60152708E+01</totfact>
</mgrwt>
</event>
<event>
12    1  0.1335216E-007  0.5520720E+03  0.7818608E-02  0.1001015E+00
          2   -1    0    0  501    0  0.00000000000E+00  0.00000000000E+00  0.11189183749E+04  0.11189183749E+04  0.00000000000E+00 0. -1.
         -2   -1    0    0    0  501 -0.00000000000E+00 -0.00000000000E+00 -0.37187209119E+03  0.37187209119E+03  0.00000000000E+00 0.  1.
         23    2    1    2    0    0 -0.72961694875E+02 -0.48581124621E+03  0.18483017826E+03  0.53293105443E+03  0.92289425845E+02 0.  0.
    5000000    2    1    2    0    0  0.72961694875E+02  0.48581124621E+03  0.56221610540E+03  0.95785941162E+03  0.60005976985E+03 0.  0.
         23    2    4    4    0    0  0.15792979980E+03  0.48349315960E+03  0.63163171369E+03  0.81612205538E+03  0.91592196687E+02 0.  0.
         23    2    4    4    0    0 -0.84968104921E+02  0.23180866071E+01 -0.69415608291E+02  0.14173735623E+03  0.89699493301E+02 0.  0.
          3    1    3    3  502    0 -0.13149882622E+02 -0.28061380730E+03  0.14267604207E+03  0.31507694496E+03  0.00000000000E+00 0. -1.
         -3    1    3    3    0  502 -0.59811812253E+02 -0.20519743891E+03  0.42154136190E+02  0.21785410948E+03  0.00000000000E+00 0.  1.
         11    1    5    5    0    0  0.16836299235E+03  0.42564036053E+03  0.55064098852E+03  0.71604560745E+03  0.00000000000E+00 0. -1.
        -11    1    5    5    0    0 -0.10433192557E+02  0.57852799074E+02  0.80990725169E+02  0.10007644793E+03  0.00000000000E+00 0.  1.
          1    1    6    6  503    0 -0.45215319239E+02 -0.17583672948E+02 -0.82226938626E+02  0.95471881117E+02  0.00000000000E+00 0. -1.
         -1    1    6    6    0  503 -0.39752785683E+02  0.19901759555E+02  0.12811330335E+02  0.46265475118E+02  0.00000000000E+00 0.  1.
<mgrwt>
<rscale>  0 0.55207197E+03</rscale>
<asrwt>0</asrwt>
<pdfrwt beam="1">  1        2 0.17214129E+00 0.55207197E+03</pdfrwt>
<pdfrwt beam="2">  1       -2 0.57211091E-01 0.55207197E+03</pdfrwt>
<totfact> 0.62959772E+01</totfact>
</mgrwt>
</event>
<event>
12    1  0.1335216E-007  0.7776859E+03  0.7818608E-02  0.9592890E-01
         -2   -1    0    0    0  501 -0.00000000000E+00  0.00000000000E+00  0.37586385852E+03  0.37586385852E+03  0.00000000000E+00 0.  1.
          2   -1    0    0  501    0  0.00000000000E+00 -0.00000000000E+00 -0.34306864061E+04  0.34306864061E+04  0.00000000000E+00 0. -1.
         23    2    1    2    0    0 -0.33155813879E+03 -0.69570355753E+03 -0.26288484556E+04  0.27410534286E+04  0.92711684855E+02 0.  0.
    5000000    2    1    2    0    0  0.33155813879E+03  0.69570355753E+03 -0.42597409198E+03  0.10654968360E+04  0.59991277797E+03 0.  0.
         23    2    4    4    0    0  0.10453626983E+03  0.30971034278E+03  0.11346941382E+03  0.35748532838E+03  0.89844999878E+02 0.  0.
         23    2    4    4    0    0  0.22702186896E+03  0.38599321476E+03 -0.53944350580E+03  0.70801150765E+03  0.98748712313E+02 0.  0.
          2    1    3    3  502    0 -0.28333550057E+03 -0.57742368391E+03 -0.23008869381E+04  0.23890956068E+04  0.00000000000E+00 0. -1.
         -2    1    3    3    0  502 -0.48222638226E+02 -0.11827987362E+03 -0.32796151749E+03  0.35195782176E+03  0.00000000000E+00 0.  1.
         13    1    5    5    0    0  0.97296837962E+02  0.31361952550E+03  0.11692476568E+03  0.34856173382E+03  0.00000000000E+00 0. -1.
        -13    1    5    5    0    0  0.72394318669E+01 -0.39091827269E+01 -0.34553518661E+01  0.89235945597E+01  0.00000000000E+00 0.  1.
          1    1    6    6  503    0  0.59849342938E+02  0.96124894158E+02 -0.20915905801E+03  0.23784333221E+03  0.00000000000E+00 0. -1.
         -1    1    6    6    0  503  0.16717252603E+03  0.28986832060E+03 -0.33028444779E+03  0.47016817544E+03  0.00000000000E+00 0.  1.
<mgrwt>
<rscale>  0 0.77768591E+03</rscale>
<asrwt>0</asrwt>
<pdfrwt beam="1">  1        2 0.52779789E+00 0.77768591E+03</pdfrwt>
<pdfrwt beam="2">  1       -2 0.57825211E-01 0.77768591E+03</pdfrwt>
<totfact> 0.27397217E+00</totfact>
</mgrwt>
</event>
<event>
12    1  0.1353471E-007  0.9521705E+03  0.7818608E-02  0.9362617E-01
         -1   -1    0    0    0  501 -0.00000000000E+00  0.00000000000E+00  0.73975017355E+03  0.73975017355E+03  0.00000000000E+00 0.  1.
          1   -1    0    0  501    0  0.00000000000E+00 -0.00000000000E+00 -0.14052997055E+04  0.14052997055E+04  0.00000000000E+00 0. -1.
         23    2    1    2    0    0 -0.85801750541E+03  0.34167609747E+03 -0.41023697841E+03  0.10144507444E+04  0.88765642303E+02 0.  0.
    5000000    2    1    2    0    0  0.85801750541E+03 -0.34167609747E+03 -0.25531255353E+03  0.11305991346E+04  0.60011107971E+03 0.  0.
         23    2    4    4    0    0  0.19654374011E+03  0.35947105053E+02  0.14802709497E+03  0.26394647106E+03  0.88510353096E+02 0.  0.
         23    2    4    4    0    0  0.66147376530E+03 -0.37762320252E+03 -0.40333964850E+03  0.86665266354E+03  0.90868816952E+02 0.  0.
          4    1    3    3  502    0 -0.18882248093E+03  0.98551982951E+02 -0.61840057656E+02  0.22178957455E+03  0.00000000000E+00 0. -1.
         -4    1    3    3    0  502 -0.66919502448E+03  0.24312411452E+03 -0.34839692076E+03  0.79266116989E+03  0.00000000000E+00 0.  1.
         13    1    5    5    0    0  0.15856806705E+03 -0.42127139118E+01  0.13209729728E+03  0.20642498588E+03  0.00000000000E+00 0. -1.
        -13    1    5    5    0    0  0.37975673062E+02  0.40159818965E+02  0.15929797686E+02  0.57521485187E+02  0.00000000000E+00 0.  1.
          3    1    6    6  503    0  0.15790778978E+03 -0.54074402727E+02 -0.65196928422E+02  0.17919137976E+03  0.00000000000E+00 0. -1.
         -3    1    6    6    0  503  0.50356597552E+03 -0.32354879980E+03 -0.33814272008E+03  0.68746128378E+03  0.00000000000E+00 0.  1.
<mgrwt>
<rscale>  0 0.95217051E+03</rscale>
<asrwt>0</asrwt>
<pdfrwt beam="1">  1        1 0.21619995E+00 0.95217051E+03</pdfrwt>
<pdfrwt beam="2">  1       -1 0.11380772E+00 0.95217051E+03</pdfrwt>
<totfact> 0.54178520E+00</totfact>
</mgrwt>
</event>
<event>
12    1  0.1335216E-007  0.1531122E+04  0.7818608E-02  0.8864017E-01
          1   -1    0    0  501    0  0.00000000000E+00  0.00000000000E+00  0.28097083126E+04  0.28097083126E+04  0.00000000000E+00 0. -1.
         -1   -1    0    0    0  501 -0.00000000000E+00 -0.00000000000E+00 -0.10942830987E+04  0.10942830987E+04  0.00000000000E+00 0.  1.
         23    2    1    2    0    0  0.15013228326E+04 -0.20439391247E+03  0.16935914848E+04  0.22742150506E+04  0.89748871836E+02 0.  0.
    5000000    2    1    2    0    0 -0.15013228326E+04  0.20439391247E+03  0.21833729067E+02  0.16297763606E+04  0.59995596071E+03 0.  0.
         23    2    4    4    0    0 -0.60927059252E+03 -0.49878436014E+02  0.25696554092E+03  0.66878148194E+03  0.86826655328E+02 0.  0.
         23    2    4    4    0    0 -0.89205224009E+03  0.25427234848E+03 -0.23513181185E+03  0.96099487869E+03  0.88388696561E+02 0.  0.
          1    1    3    3  502    0  0.11360650396E+04 -0.11733613200E+03  0.12573339362E+04  0.16986171344E+04  0.00000000000E+00 0. -1.
         -1    1    3    3    0  502  0.36525779297E+03 -0.87057780464E+02  0.43625754863E+03  0.57559791625E+03  0.00000000000E+00 0.  1.
         13    1    5    5    0    0 -0.52862249530E+03 -0.69347680994E+02  0.20696053781E+03  0.57191215025E+03  0.00000000000E+00 0.  1.
        -13    1    5    5    0    0 -0.80648097220E+02  0.19469244980E+02  0.50005003110E+02  0.96869331686E+02  0.00000000000E+00 0. -1.
          3    1    6    6  503    0 -0.32925104543E+03  0.72906952007E+02 -0.47004030241E+02  0.34048649522E+03  0.00000000000E+00 0. -1.
         -3    1    6    6    0  503 -0.56280119466E+03  0.18136539647E+03 -0.18812778161E+03  0.62050838348E+03  0.00000000000E+00 0.  1.
<mgrwt>
<rscale>  0 0.15311217E+04</rscale>
<asrwt>0</asrwt>
<pdfrwt beam="1">  1        1 0.43226282E+00 0.15311217E+04</pdfrwt>
<pdfrwt beam="2">  1       -1 0.16835125E+00 0.15311217E+04</pdfrwt>
<totfact> 0.19622959E-01</totfact>
</mgrwt>
</event>
<event>
12    1  0.1335216E-007  0.1380507E+04  0.7818608E-02  0.8968050E-01
         -2   -1    0    0    0  501 -0.00000000000E+00  0.00000000000E+00  0.99120671814E+03  0.99120671814E+03  0.00000000000E+00 0. -1.
          2   -1    0    0  501    0  0.00000000000E+00 -0.00000000000E+00 -0.20298656231E+04  0.20298656231E+04  0.00000000000E+00 0.  1.
         23    2    1    2    0    0 -0.12980655048E+04  0.26651393060E+03 -0.79036881158E+03  0.15453845871E+04  0.86757902977E+02 0.  0.
    5000000    2    1    2    0    0  0.12980655048E+04 -0.26651393060E+03 -0.24829009333E+03  0.14756877541E+04  0.60000220610E+03 0.  0.
         23    2    4    4    0    0  0.12235093577E+04 -0.74275267028E+02 -0.21715291472E+03  0.12478399204E+04  0.86354588075E+02 0.  0.
         23    2    4    4    0    0  0.74556147123E+02 -0.19223866357E+03 -0.31137178611E+02  0.22784783377E+03  0.91819325944E+02 0.  0.
          1    1    3    3  502    0 -0.77275219359E+03  0.11850603092E+03 -0.44609719289E+03  0.90010684786E+03  0.00000000000E+00 0. -1.
         -1    1    3    3    0  502 -0.52531331120E+03  0.14800789969E+03 -0.34427161870E+03  0.64527773922E+03  0.00000000000E+00 0.  1.
         11    1    5    5    0    0  0.25453870407E+03 -0.17107678518E+02 -0.81113233367E+02  0.26769755539E+03  0.00000000000E+00 0. -1.
        -11    1    5    5    0    0  0.96897065359E+03 -0.57167588510E+02 -0.13603968135E+03  0.98014236496E+03  0.00000000000E+00 0.  1.
          2    1    6    6  503    0  0.69620907449E+01 -0.46804261785E+02 -0.46995205908E+02  0.66690771529E+02  0.00000000000E+00 0. -1.
         -2    1    6    6    0  503  0.67594056378E+02 -0.14543440179E+03  0.15858027297E+02  0.16115706224E+03  0.00000000000E+00 0.  1.
<mgrwt>
<rscale>  0 0.13805074E+04</rscale>
<asrwt>0</asrwt>
<pdfrwt beam="1">  1        2 0.31228701E+00 0.13805074E+04</pdfrwt>
<pdfrwt beam="2">  1       -2 0.15249334E+00 0.13805074E+04</pdfrwt>
<totfact> 0.17607966E+00</totfact>
</mgrwt>
</event>
<event>
12    1  0.1335216E-007  0.5790383E+03  0.7818608E-02  0.9949875E-01
          1   -1    0    0  501    0  0.00000000000E+00  0.00000000000E+00  0.31667416650E+04  0.31667416650E+04  0.00000000000E+00 0. -1.
         -1   -1    0    0    0  501 -0.00000000000E+00 -0.00000000000E+00 -0.14421319319E+03  0.14421319319E+03  0.00000000000E+00 0.  1.
         23    2    1    2    0    0 -0.52570614993E+02 -0.42916029918E+03  0.20044952762E+04  0.20526901989E+04  0.92701178141E+02 0.  0.
    5000000    2    1    2    0    0  0.52570614993E+02  0.42916029918E+03  0.10180331957E+04  0.12582646594E+04  0.59991343834E+03 0.  0.
         23    2    4    4    0    0 -0.20842271072E+03  0.21874007578E+01  0.25906381430E+03  0.34472255899E+03  0.90965772282E+02 0.  0.
         23    2    4    4    0    0  0.26099332571E+03  0.42697289842E+03  0.75896938139E+03  0.91354210036E+03  0.90007084197E+02 0.  0.
          1    1    3    3  502    0  0.22892391233E+02 -0.70040648974E+02  0.27570151953E+03  0.28537883936E+03  0.00000000000E+00 0. -1.
         -1    1    3    3    0  502 -0.75463006226E+02 -0.35911965020E+03  0.17287937566E+04  0.17673113595E+04  0.00000000000E+00 0.  1.
         13    1    5    5    0    0 -0.16261207460E+03  0.15739413158E+02  0.24580279459E+03  0.29514306660E+03  0.00000000000E+00 0.  1.
        -13    1    5    5    0    0 -0.45810636120E+02 -0.13552012401E+02  0.13261019715E+02  0.49579492390E+02  0.00000000000E+00 0. -1.
          2    1    6    6  503    0  0.93660245515E+02  0.89237284898E+02  0.15868193908E+03  0.20473273406E+03  0.00000000000E+00 0. -1.
         -2    1    6    6    0  503  0.16733308020E+03  0.33773561352E+03  0.60028744231E+03  0.70880936630E+03  0.00000000000E+00 0.  1.
<mgrwt>
<rscale>  0 0.57903830E+03</rscale>
<asrwt>0</asrwt>
<pdfrwt beam="1">  1        1 0.48719097E+00 0.57903830E+03</pdfrwt>
<pdfrwt beam="2">  1       -1 0.22186648E-01 0.57903830E+03</pdfrwt>
<totfact> 0.85305818E+00</totfact>
</mgrwt>
</event>
<event>
12    1  0.1335216E-007  0.1023099E+04  0.7818608E-02  0.9283567E-01
         -2   -1    0    0    0  501 -0.00000000000E+00  0.00000000000E+00  0.99239653160E+03  0.99239653160E+03  0.00000000000E+00 0. -1.
          2   -1    0    0  501    0  0.00000000000E+00 -0.00000000000E+00 -0.15771975930E+04  0.15771975930E+04  0.00000000000E+00 0.  1.
         23    2    1    2    0    0  0.43781989854E+03  0.89387719942E+03  0.36970070422E+03  0.10656032572E+04  0.90160855623E+02 0.  0.
    5000000    2    1    2    0    0 -0.43781989854E+03 -0.89387719942E+03 -0.95450176566E+03  0.15039908674E+04  0.60017680517E+03 0.  0.
         23    2    4    4    0    0  0.14243257744E+02 -0.15419359316E+03 -0.47628617055E+03  0.50945918456E+03  0.93389559971E+02 0.  0.
         23    2    4    4    0    0 -0.45206315628E+03 -0.73968360626E+03 -0.47821559510E+03  0.99453168286E+03  0.94393740136E+02 0.  0.
          3    1    3    3  502    0  0.20174132223E+03  0.43821024748E+03  0.22561006387E+03  0.53256706902E+03  0.00000000000E+00 0. -1.
         -3    1    3    3    0  502  0.23607857631E+03  0.45566695194E+03  0.14409064035E+03  0.53303618819E+03  0.00000000000E+00 0.  1.
         13    1    5    5    0    0  0.41873175510E+02 -0.28421947679E+02 -0.10697436652E+03  0.11834139187E+03  0.00000000000E+00 0.  1.
        -13    1    5    5    0    0 -0.27629917766E+02 -0.12577164548E+03 -0.36931180403E+03  0.39111779269E+03  0.00000000000E+00 0. -1.
          3    1    6    6  503    0 -0.34412121857E+03 -0.48581709834E+03 -0.34647778231E+03  0.68882836740E+03  0.00000000000E+00 0. -1.
         -3    1    6    6    0  503 -0.10794193772E+03 -0.25386650793E+03 -0.13173781280E+03  0.30570331546E+03  0.00000000000E+00 0.  1.
<mgrwt>
<rscale>  0 0.10230986E+04</rscale>
<asrwt>0</asrwt>
<pdfrwt beam="1">  1        2 0.24264578E+00 0.10230986E+04</pdfrwt>
<pdfrwt beam="2">  1       -2 0.15267639E+00 0.10230986E+04</pdfrwt>
<totfact> 0.32516540E+00</totfact>
</mgrwt>
</event>
<event>
12    1  0.1335216E-007  0.5762628E+03  0.7818608E-02  0.9955915E-01
         -1   -1    0    0    0  501 -0.00000000000E+00  0.00000000000E+00  0.10052117260E+04  0.10052117260E+04  0.00000000000E+00 0.  1.
          1   -1    0    0  501    0  0.00000000000E+00 -0.00000000000E+00 -0.36179853527E+03  0.36179853527E+03  0.00000000000E+00 0. -1.
         23    2    1    2    0    0  0.99554251634E+01  0.43131231258E+03  0.10072396492E+03  0.45004128311E+03  0.79135440359E+02 0.  0.
    5000000    2    1    2    0    0 -0.99554251634E+01 -0.43131231258E+03  0.54268922578E+03  0.91696897812E+03  0.60015922020E+03 0.  0.
         23    2    4    4    0    0 -0.26295209033E+03 -0.69933698822E+02  0.17368525589E+03  0.33501892059E+03  0.89647002201E+02 0.  0.
         23    2    4    4    0    0  0.25299666516E+03 -0.36137861375E+03  0.36900396989E+03  0.58195005753E+03  0.88882645107E+02 0.  0.
          1    1    3    3  502    0 -0.32571982027E+00  0.40034573837E+03  0.72412229259E+02  0.40684191927E+03  0.00000000000E+00 0. -1.
         -1    1    3    3    0  502  0.10281144984E+02  0.30966574204E+02  0.28311735659E+02  0.43199363839E+02  0.00000000000E+00 0.  1.
         11    1    5    5    0    0 -0.24294033799E+03 -0.51068636799E+02  0.18019816945E+03  0.30675624486E+03  0.00000000000E+00 0. -1.
        -11    1    5    5    0    0 -0.20011752339E+02 -0.18865062023E+02 -0.65129135570E+01  0.28262675737E+02  0.00000000000E+00 0.  1.
          3    1    6    6  503    0  0.16432677964E+03 -0.27276994633E+03  0.30606673661E+03  0.44168267046E+03  0.00000000000E+00 0. -1.
         -3    1    6    6    0  503  0.88669885527E+02 -0.88608667427E+02  0.62937233280E+02  0.14026738707E+03  0.00000000000E+00 0.  1.
<mgrwt>
<rscale>  0 0.57626279E+03</rscale>
<asrwt>0</asrwt>
<pdfrwt beam="1">  1        1 0.55661314E-01 0.57626279E+03</pdfrwt>
<pdfrwt beam="2">  1       -1 0.15464796E+00 0.57626279E+03</pdfrwt>
<totfact> 0.23014427E+01</totfact>
</mgrwt>
</event>
<event>
12    1  0.1335216E-007  0.1466000E+04  0.7818608E-02  0.8907383E-01
          2   -1    0    0  501    0  0.00000000000E+00  0.00000000000E+00  0.22665866321E+04  0.22665866321E+04  0.00000000000E+00 0.  1.
         -2   -1    0    0    0  501 -0.00000000000E+00 -0.00000000000E+00 -0.96797983292E+03  0.96797983292E+03  0.00000000000E+00 0. -1.
         23    2    1    2    0    0  0.91910883071E+03  0.10807478401E+04  0.59306168166E+03  0.15402750428E+04  0.89152187617E+02 0.  0.
    5000000    2    1    2    0    0 -0.91910883071E+03 -0.10807478401E+04  0.70554511751E+03  0.16942914222E+04  0.60004381011E+03 0.  0.
         23    2    4    4    0    0 -0.13464057285E+03 -0.53824455675E+03  0.13675600354E+03  0.57994241092E+03  0.98973272933E+02 0.  0.
         23    2    4    4    0    0 -0.78446825786E+03 -0.54250328336E+03  0.56878911396E+03  0.11143490113E+04  0.92479202049E+02 0.  0.
          3    1    3    3  502    0  0.24609395479E+03  0.30442905711E+03  0.12222883953E+03  0.41009654303E+03  0.00000000000E+00 0. -1.
         -3    1    3    3    0  502  0.67301487592E+03  0.77631878299E+03  0.47083284213E+03  0.11301784997E+04  0.00000000000E+00 0.  1.
         11    1    5    5    0    0 -0.99756182337E+02 -0.42678285497E+03  0.65567483752E+02  0.44316362231E+03  0.00000000000E+00 0. -1.
        -11    1    5    5    0    0 -0.34884390511E+02 -0.11146170177E+03  0.71188519793E+02  0.13677878861E+03  0.00000000000E+00 0.  1.
          3    1    6    6  503    0 -0.57723689278E+03 -0.44580997919E+03  0.44328817570E+03  0.85349480060E+03  0.00000000000E+00 0. -1.
         -3    1    6    6    0  503 -0.20723136508E+03 -0.96693304163E+02  0.12550093826E+03  0.26085421071E+03  0.00000000000E+00 0.  1.
<mgrwt>
<rscale>  0 0.14659995E+04</rscale>
<asrwt>0</asrwt>
<pdfrwt beam="1">  1        2 0.34870563E+00 0.14659995E+04</pdfrwt>
<pdfrwt beam="2">  1       -2 0.14891997E+00 0.14659995E+04</pdfrwt>
<totfact> 0.13706611E+00</totfact>
</mgrwt>
</event>
<event>
12    1  0.1335216E-007  0.7653426E+03  0.7818608E-02  0.9611583E-01
          1   -1    0    0  501    0  0.00000000000E+00  0.00000000000E+00  0.11941253959E+04  0.11941253959E+04  0.00000000000E+00 0. -1.
         -1   -1    0    0    0  501 -0.00000000000E+00 -0.00000000000E+00 -0.12429024421E+04  0.12429024421E+04  0.00000000000E+00 0.  1.
         23    2    1    2    0    0  0.61181550346E+03  0.45369992263E+03  0.82883649587E+03  0.11292932990E+04  0.90396837845E+02 0.  0.
    5000000    2    1    2    0    0 -0.61181550346E+03 -0.45369992263E+03 -0.87761354212E+03  0.13077345389E+04  0.59983519812E+03 0.  0.
         23    2    4    4    0    0 -0.13636474700E+03 -0.93659110833E+02 -0.62655129244E+03  0.65430019882E+03  0.90414903938E+02 0.  0.
         23    2    4    4    0    0 -0.47545075647E+03 -0.36004081180E+03 -0.25106224969E+03  0.65343434011E+03  0.90892109818E+02 0.  0.
          3    1    3    3  502    0  0.13503951122E+03  0.13680032716E+03  0.17148670770E+03  0.25759986416E+03  0.00000000000E+00 0. -1.
         -3    1    3    3    0  502  0.47677599224E+03  0.31689959548E+03  0.65734978817E+03  0.87169343487E+03  0.00000000000E+00 0.  1.
         13    1    5    5    0    0 -0.71807269526E+02 -0.39732055298E+02 -0.46474276311E+03  0.47193299952E+03  0.00000000000E+00 0. -1.
        -13    1    5    5    0    0 -0.64557477473E+02 -0.53927055535E+02 -0.16180852932E+03  0.18236719929E+03  0.00000000000E+00 0.  1.
          2    1    6    6  503    0 -0.42419305920E+03 -0.29365727032E+03 -0.19043113023E+03  0.54994396010E+03  0.00000000000E+00 0. -1.
         -2    1    6    6    0  503 -0.51257697267E+02 -0.66383541478E+02 -0.60631119454E+02  0.10349038001E+03  0.00000000000E+00 0.  1.
<mgrwt>
<rscale>  0 0.76534256E+03</rscale>
<asrwt>0</asrwt>
<pdfrwt beam="1">  1        1 0.18371160E+00 0.76534256E+03</pdfrwt>
<pdfrwt beam="2">  1       -1 0.19121576E+00 0.76534256E+03</pdfrwt>
<totfact> 0.19485372E+00</totfact>
</mgrwt>
</event>
<event>
12    1  0.1335216E-007  0.7990877E+03  0.7818608E-02  0.9561339E-01
         -4   -1    0    0    0  501 -0.00000000000E+00  0.00000000000E+00  0.12574627151E+04  0.12574627151E+04  0.00000000000E+00 0. -1.
          4   -1    0    0  501    0  0.00000000000E+00 -0.00000000000E+00 -0.77322328032E+03  0.77322328032E+03  0.00000000000E+00 0.  1.
         23    2    1    2    0    0 -0.96123978736E+02 -0.72626497606E+03  0.74466365339E+03  0.10486511093E+04  0.91894274423E+02 0.  0.
    5000000    2    1    2    0    0  0.96123978736E+02  0.72626497606E+03 -0.26042421860E+03  0.98203488610E+03  0.59989258134E+03 0.  0.
         23    2    4    4    0    0  0.70932946979E+02 -0.22597384565E+02  0.91851056111E+02  0.14909494591E+03  0.90832602240E+02 0.  0.
         23    2    4    4    0    0  0.25191031757E+02  0.74886236062E+03 -0.35227527471E+03  0.83293994019E+03  0.90893627727E+02 0.  0.
          4    1    3    3  502    0 -0.97886928964E+02 -0.48039976851E+03  0.53334995651E+03  0.72445011184E+03  0.00000000000E+00 0. -1.
         -4    1    3    3    0  502  0.17629502274E+01 -0.24586520755E+03  0.21131369688E+03  0.32420099748E+03  0.00000000000E+00 0.  1.
         11    1    5    5    0    0 -0.25093923948E+00 -0.35019109752E+02  0.61392258977E+02  0.70678217865E+02  0.00000000000E+00 0. -1.
        -11    1    5    5    0    0  0.71183886218E+02  0.12421725187E+02  0.30458797134E+02  0.78416728041E+02  0.00000000000E+00 0.  1.
          2    1    6    6  503    0 -0.22605113070E+02  0.54077285930E+03 -0.24952692507E+03  0.59599493523E+03  0.00000000000E+00 0. -1.
         -2    1    6    6    0  503  0.47796144827E+02  0.20808950132E+03 -0.10274834964E+03  0.23694500496E+03  0.00000000000E+00 0.  1.
<mgrwt>
<rscale>  0 0.79908773E+03</rscale>
<asrwt>0</asrwt>
<pdfrwt beam="1">  1        4 0.11895743E+00 0.79908773E+03</pdfrwt>
<pdfrwt beam="2">  1       -4 0.19345580E+00 0.79908773E+03</pdfrwt>
<totfact> 0.15342813E-01</totfact>
</mgrwt>
</event>
<event>
12    1  0.1335216E-007  0.1047445E+04  0.7818608E-02  0.9257986E-01
          1   -1    0    0  501    0  0.00000000000E+00  0.00000000000E+00  0.72157172397E+03  0.72157172397E+03  0.00000000000E+00 0. -1.
         -1   -1    0    0    0  501 -0.00000000000E+00 -0.00000000000E+00 -0.16703560278E+04  0.16703560278E+04  0.00000000000E+00 0.  1.
         23    2    1    2    0    0 -0.81347266010E+03 -0.58098143150E+03 -0.26129283917E+03  0.10390463096E+04  0.10984577043E+03 0.  0.
    5000000    2    1    2    0    0  0.81347266010E+03  0.58098143150E+03 -0.68749146464E+03  0.13528814421E+04  0.59863719397E+03 0.  0.
         23    2    4    4    0    0  0.79678286913E+03  0.41166510667E+03 -0.72677932803E+03  0.11578698405E+04  0.90129214914E+02 0.  0.
         23    2    4    4    0    0  0.16689790977E+02  0.16931632483E+03  0.39287863387E+02  0.19501160159E+03  0.86829842619E+02 0.  0.
          2    1    3    3  502    0 -0.22771937518E+03 -0.10894085632E+03 -0.46321421844E+02  0.25665131625E+03  0.00000000000E+00 0.  1.
         -2    1    3    3    0  502 -0.58575328492E+03 -0.47204057518E+03 -0.21497141732E+03  0.78239499339E+03  0.00000000000E+00 0. -1.
         13    1    5    5    0    0  0.64429723837E+03  0.29181423982E+03 -0.56279083142E+03  0.90388494946E+03  0.00000000000E+00 0. -1.
        -13    1    5    5    0    0  0.15248563076E+03  0.11985086686E+03 -0.16398849661E+03  0.25398489108E+03  0.00000000000E+00 0.  1.
          1    1    6    6  503    0  0.38472399365E+02  0.32441736496E+02 -0.20946288785E+01  0.50368435055E+02  0.00000000000E+00 0. -1.
         -1    1    6    6    0  503 -0.21782608388E+02  0.13687458833E+03  0.41382492266E+02  0.14464316653E+03  0.00000000000E+00 0.  1.
<mgrwt>
<rscale>  0 0.10474453E+04</rscale>
<asrwt>0</asrwt>
<pdfrwt beam="1">  1        1 0.11101104E+00 0.10474453E+04</pdfrwt>
<pdfrwt beam="2">  1       -1 0.25697785E+00 0.10474453E+04</pdfrwt>
<totfact> 0.16369443E+00</totfact>
</mgrwt>
</event>
<event>
12    1  0.1335216E-007  0.1124249E+04  0.7818608E-02  0.9181874E-01
          2   -1    0    0  501    0  0.00000000000E+00  0.00000000000E+00  0.59967955349E+03  0.59967955349E+03  0.00000000000E+00 0. -1.
         -2   -1    0    0    0  501 -0.00000000000E+00 -0.00000000000E+00 -0.22829722316E+04  0.22829722316E+04  0.00000000000E+00 0.  1.
         23    2    1    2    0    0  0.10873783973E+04 -0.76037422813E+02 -0.84451297108E+03  0.13820661400E+04  0.93440828972E+02 0.  0.
    5000000    2    1    2    0    0 -0.10873783973E+04  0.76037422813E+02 -0.83877970699E+03  0.15005856450E+04  0.60002700999E+03 0.  0.
         23    2    4    4    0    0 -0.36268593506E+03 -0.15409834245E+03 -0.54781778849E+03  0.68098700259E+03  0.91386988575E+02 0.  0.
         23    2    4    4    0    0 -0.72469246221E+03  0.23013576526E+03 -0.29096191850E+03  0.81959864245E+03  0.94559301193E+02 0.  0.
          3    1    3    3  502    0  0.51227555984E+03 -0.19136141508E+02 -0.34210646126E+03  0.61630290601E+03  0.00000000000E+00 0. -1.
         -3    1    3    3    0  502  0.57510283744E+03 -0.56901281305E+02 -0.50240650983E+03  0.76576323401E+03  0.00000000000E+00 0.  1.
         11    1    5    5    0    0 -0.33136631275E+03 -0.12355713616E+03 -0.43916270639E+03  0.56385625988E+03  0.00000000000E+00 0. -1.
        -11    1    5    5    0    0 -0.31319622314E+02 -0.30541206288E+02 -0.10865508210E+03  0.11713074271E+03  0.00000000000E+00 0.  1.
          3    1    6    6  503    0 -0.24804776116E+03  0.87463357611E+02 -0.14860342694E+03  0.30209354385E+03  0.00000000000E+00 0. -1.
         -3    1    6    6    0  503 -0.47664470106E+03  0.14267240765E+03 -0.14235849156E+03  0.51750509859E+03  0.00000000000E+00 0.  1.
<mgrwt>
<rscale>  0 0.11242488E+04</rscale>
<asrwt>0</asrwt>
<pdfrwt beam="1">  1        2 0.92258394E-01 0.11242488E+04</pdfrwt>
<pdfrwt beam="2">  1       -2 0.35122649E+00 0.11242488E+04</pdfrwt>
<totfact> 0.75667470E-01</totfact>
</mgrwt>
</event>
<event>
12    1  0.1335216E-007  0.9979244E+03  0.7818608E-02  0.9310824E-01
         -1   -1    0    0    0  501 -0.00000000000E+00  0.00000000000E+00  0.17464143199E+04  0.17464143199E+04  0.00000000000E+00 0.  1.
          1   -1    0    0  501    0  0.00000000000E+00 -0.00000000000E+00 -0.95039897455E+03  0.95039897455E+03  0.00000000000E+00 0. -1.
         23    2    1    2    0    0 -0.41094185633E+03 -0.84396691391E+03 -0.43328665537E+03  0.10378327412E+04  0.90587592223E+02 0.  0.
    5000000    2    1    2    0    0  0.41094185633E+03  0.84396691391E+03  0.12293020007E+04  0.16589805533E+04  0.59989974673E+03 0.  0.
         23    2    4    4    0    0  0.83223497177E+02 -0.48953232540E+02  0.50281422762E+02  0.14135485708E+03  0.90168756717E+02 0.  0.
         23    2    4    4    0    0  0.32771835915E+03  0.89292014645E+03  0.11790205780E+04  0.15176256962E+04  0.91610696094E+02 0.  0.
          2    1    3    3  502    0 -0.68564850058E+02 -0.80085057084E+02 -0.37665897466E+02  0.11195300292E+03  0.00000000000E+00 0. -1.
         -2    1    3    3    0  502 -0.34237700627E+03 -0.76388185682E+03 -0.39562075791E+03  0.92587973824E+03  0.00000000000E+00 0.  1.
         11    1    5    5    0    0  0.27458596561E+02 -0.24941437909E+02 -0.24931046807E+02  0.44694596373E+02  0.00000000000E+00 0.  1.
        -11    1    5    5    0    0  0.55764900616E+02 -0.24011794632E+02  0.75212469569E+02  0.96660260712E+02  0.00000000000E+00 0. -1.
          3    1    6    6  503    0  0.22223895934E+03  0.47395325068E+03  0.63817950807E+03  0.82540591432E+03  0.00000000000E+00 0. -1.
         -3    1    6    6    0  503  0.10547939981E+03  0.41896689577E+03  0.54084106989E+03  0.69221978187E+03  0.00000000000E+00 0.  1.
<mgrwt>
<rscale>  0 0.99792441E+03</rscale>
<asrwt>0</asrwt>
<pdfrwt beam="1">  1        1 0.14621523E+00 0.99792441E+03</pdfrwt>
<pdfrwt beam="2">  1       -1 0.26867913E+00 0.99792441E+03</pdfrwt>
<totfact> 0.88195654E-01</totfact>
</mgrwt>
</event>
<event>
12    1  0.1335216E-007  0.1411140E+04  0.7818608E-02  0.8945794E-01
          2   -1    0    0  501    0  0.00000000000E+00  0.00000000000E+00  0.13267330750E+04  0.13267330750E+04  0.00000000000E+00 0. -1.
         -2   -1    0    0    0  501 -0.00000000000E+00 -0.00000000000E+00 -0.15445288282E+04  0.15445288282E+04  0.00000000000E+00 0.  1.
         23    2    1    2    0    0  0.82974641615E+03 -0.10712294227E+04  0.77758016154E+02  0.13601518724E+04  0.89192017139E+02 0.  0.
    5000000    2    1    2    0    0 -0.82974641615E+03  0.10712294227E+04 -0.29555376942E+03  0.15111100308E+04  0.60007491484E+03 0.  0.
         23    2    4    4    0    0 -0.73926082375E+03  0.52088874229E+03 -0.26368674806E+03  0.94622544948E+03  0.89332260503E+02 0.  0.
         23    2    4    4    0    0 -0.90485592402E+02  0.55034068037E+03 -0.31867021364E+02  0.56488458130E+03  0.83765006052E+02 0.  0.
          2    1    3    3  502    0  0.73044485173E+03 -0.89100030885E+03  0.67884531769E+02  0.11541401741E+04  0.00000000000E+00 0. -1.
         -2    1    3    3    0  502  0.99301564417E+02 -0.18022911381E+03  0.98734843843E+01  0.20601169835E+03  0.00000000000E+00 0.  1.
         13    1    5    5    0    0 -0.47791148917E+03  0.33103965291E+03 -0.21346937251E+03  0.61931883249E+03  0.00000000000E+00 0.  1.
        -13    1    5    5    0    0 -0.26134933458E+03  0.18984908939E+03 -0.50217375549E+02  0.32690661699E+03  0.00000000000E+00 0. -1.
          1    1    6    6  503    0 -0.70820081657E+02  0.27652796874E+03 -0.49873115308E+02  0.28977668831E+03  0.00000000000E+00 0. -1.
         -1    1    6    6    0  503 -0.19665510744E+02  0.27381271163E+03  0.18006093945E+02  0.27510789299E+03  0.00000000000E+00 0.  1.
<mgrwt>
<rscale>  0 0.14111402E+04</rscale>
<asrwt>0</asrwt>
<pdfrwt beam="1">  1        2 0.20411278E+00 0.14111402E+04</pdfrwt>
<pdfrwt beam="2">  1       -2 0.23761982E+00 0.14111402E+04</pdfrwt>
<totfact> 0.11616512E+00</totfact>
</mgrwt>
</event>
<event>
12    1  0.1335216E-007  0.6043866E+03  0.7818608E-02  0.9896347E-01
         -1   -1    0    0    0  501 -0.00000000000E+00  0.00000000000E+00  0.32550751146E+03  0.32550751146E+03  0.00000000000E+00 0.  1.
          1   -1    0    0  501    0  0.00000000000E+00 -0.00000000000E+00 -0.13522644647E+04  0.13522644647E+04  0.00000000000E+00 0. -1.
         23    2    1    2    0    0  0.47462110397E+03 -0.15274862491E+03 -0.20909414846E+03  0.54766185210E+03  0.87268588736E+02 0.  0.
    5000000    2    1    2    0    0 -0.47462110397E+03  0.15274862491E+03 -0.81766280477E+03  0.11301101240E+04  0.59998257927E+03 0.  0.
         23    2    4    4    0    0 -0.26749244487E+03  0.33056811706E+03 -0.27229764402E+03  0.51370376307E+03  0.94435486826E+02 0.  0.
         23    2    4    4    0    0 -0.20712865910E+03 -0.17781949215E+03 -0.54536516074E+03  0.61640636098E+03  0.89507486241E+02 0.  0.
          3    1    3    3  502    0  0.95280411339E+02 -0.39062513843E+02 -0.73876042860E+01  0.10324152977E+03  0.00000000000E+00 0. -1.
         -3    1    3    3    0  502  0.37934069263E+03 -0.11368611107E+03 -0.20170654417E+03  0.44442032233E+03  0.00000000000E+00 0.  1.
         13    1    5    5    0    0 -0.47954223306E+02  0.37545528162E+02 -0.64838543839E+01  0.61247976175E+02  0.00000000000E+00 0. -1.
        -13    1    5    5    0    0 -0.21953822156E+03  0.29302258890E+03 -0.26581378964E+03  0.45245578689E+03  0.00000000000E+00 0.  1.
          1    1    6    6  503    0 -0.13335528467E+03 -0.15719300413E+03 -0.34494863324E+03  0.40184926536E+03  0.00000000000E+00 0. -1.
         -1    1    6    6    0  503 -0.73773374431E+02 -0.20626488014E+02 -0.20041652750E+03  0.21455709562E+03  0.00000000000E+00 0.  1.
<mgrwt>
<rscale>  0 0.60438665E+03</rscale>
<asrwt>0</asrwt>
<pdfrwt beam="1">  1        1 0.20804069E+00 0.60438665E+03</pdfrwt>
<pdfrwt beam="2">  1       -1 0.50078079E-01 0.60438665E+03</pdfrwt>
<totfact> 0.34853985E+01</totfact>
</mgrwt>
</event>
<event>
12    1  0.1335216E-007  0.9976004E+03  0.7818608E-02  0.9311181E-01
         -1   -1    0    0    0  501 -0.00000000000E+00  0.00000000000E+00  0.23015968848E+04  0.23015968848E+04  0.00000000000E+00 0.  1.
          1   -1    0    0  501    0  0.00000000000E+00 -0.00000000000E+00 -0.57266698113E+03  0.57266698113E+03  0.00000000000E+00 0. -1.
         23    2    1    2    0    0 -0.74898712512E+03  0.52328861913E+03  0.11557868360E+03  0.92541489698E+03  0.90673077313E+02 0.  0.
    5000000    2    1    2    0    0  0.74898712512E+03 -0.52328861913E+03  0.16133512201E+04  0.19488489690E+04  0.60024782545E+03 0.  0.
         23    2    4    4    0    0  0.37316303941E+03  0.62489876691E+02  0.59595154711E+03  0.71276634843E+03  0.98600112991E+02 0.  0.
         23    2    4    4    0    0  0.37582408571E+03 -0.58577849582E+03  0.10173996730E+04  0.12360826205E+04  0.91749444900E+02 0.  0.
          3    1    3    3  502    0 -0.46522718968E+03  0.32373963270E+03  0.27209447471E+02  0.56743637690E+03  0.00000000000E+00 0. -1.
         -3    1    3    3    0  502 -0.28375993543E+03  0.19954898643E+03  0.88369236133E+02  0.35797852008E+03  0.00000000000E+00 0.  1.
         11    1    5    5    0    0  0.25245431184E+03  0.69426200344E+02  0.47107488121E+03  0.53894779020E+03  0.00000000000E+00 0.  1.
        -11    1    5    5    0    0  0.12070872757E+03 -0.69363236531E+01  0.12487666591E+03  0.17381855823E+03  0.00000000000E+00 0. -1.
          1    1    6    6  503    0  0.14308118747E+03 -0.16911504652E+03  0.26922311131E+03  0.34864481759E+03  0.00000000000E+00 0. -1.
         -1    1    6    6    0  503  0.23274289823E+03 -0.41666344930E+03  0.74817656167E+03  0.88743780294E+03  0.00000000000E+00 0.  1.
<mgrwt>
<rscale>  0 0.99760042E+03</rscale>
<asrwt>0</asrwt>
<pdfrwt beam="1">  1        1 0.88102614E-01 0.99760042E+03</pdfrwt>
<pdfrwt beam="2">  1       -1 0.35409182E+00 0.99760042E+03</pdfrwt>
<totfact> 0.54610038E-01</totfact>
</mgrwt>
</event>
<event>
12    1  0.1335216E-007  0.5122465E+03  0.7818608E-02  0.1010631E+00
          1   -1    0    0  501    0  0.00000000000E+00  0.00000000000E+00  0.91078471548E+03  0.91078471548E+03  0.00000000000E+00 0. -1.
         -1   -1    0    0    0  501 -0.00000000000E+00 -0.00000000000E+00 -0.47052077449E+03  0.47052077449E+03  0.00000000000E+00 0.  1.
         23    2    1    2    0    0 -0.78360097153E+02 -0.44933450923E+03 -0.73096007645E+02  0.46849361687E+03  0.78111693728E+02 0.  0.
    5000000    2    1    2    0    0  0.78360097153E+02  0.44933450923E+03  0.51335994864E+03  0.91281187310E+03  0.60136949772E+03 0.  0.
         23    2    4    4    0    0 -0.47067279481E+02  0.42458747306E+03  0.71451875371E+02  0.44278775717E+03  0.92009653449E+02 0.  0.
         23    2    4    4    0    0  0.12542737663E+03  0.24747036172E+02  0.44190807327E+03  0.47002411593E+03  0.96413078599E+02 0.  0.
          4    1    3    3  502    0  0.13476312481E+02 -0.70121301540E+02 -0.23536744994E+02  0.75183683687E+02  0.00000000000E+00 0. -1.
         -4    1    3    3    0  502 -0.91836409634E+02 -0.37921320769E+03 -0.49559262651E+02  0.39330993318E+03  0.00000000000E+00 0.  1.
         11    1    5    5    0    0  0.23699330153E+02  0.11917730658E+03  0.12266314277E+01  0.12151704933E+03  0.00000000000E+00 0.  1.
        -11    1    5    5    0    0 -0.70766609634E+02  0.30541016649E+03  0.70225243943E+02  0.32127070784E+03  0.00000000000E+00 0. -1.
          2    1    6    6  503    0  0.93583014273E+02  0.16786590883E+02  0.41984075492E+03  0.43047163633E+03  0.00000000000E+00 0. -1.
         -2    1    6    6    0  503  0.31844362361E+02  0.79604452893E+01  0.22067318357E+02  0.39552479604E+02  0.00000000000E+00 0.  1.
<mgrwt>
<rscale>  0 0.51224651E+03</rscale>
<asrwt>0</asrwt>
<pdfrwt beam="1">  1        1 0.14012073E+00 0.51224651E+03</pdfrwt>
<pdfrwt beam="2">  1       -1 0.72387811E-01 0.51224651E+03</pdfrwt>
<totfact> 0.36271356E+01</totfact>
</mgrwt>
</event>
<event>
12    1  0.1335216E-007  0.5263296E+03  0.7818608E-02  0.1007126E+00
         -1   -1    0    0    0  501 -0.00000000000E+00  0.00000000000E+00  0.39854443126E+03  0.39854443126E+03  0.00000000000E+00 0.  1.
          1   -1    0    0  501    0  0.00000000000E+00 -0.00000000000E+00 -0.93384974880E+03  0.93384974880E+03  0.00000000000E+00 0. -1.
         23    2    1    2    0    0  0.51563455993E+02 -0.38438939759E+03  0.59069439593E+02  0.40307243577E+03  0.92542913327E+02 0.  0.
    5000000    2    1    2    0    0 -0.51563455993E+02  0.38438939759E+03 -0.59437475714E+03  0.92932174429E+03  0.59995295941E+03 0.  0.
         23    2    4    4    0    0 -0.28029140242E+03  0.27035819376E+03 -0.18943421065E+03  0.44140544239E+03  0.85420262251E+02 0.  0.
         23    2    4    4    0    0  0.22872794642E+03  0.11403120383E+03 -0.40494054648E+03  0.48791630190E+03  0.93626291976E+02 0.  0.
          3    1    3    3  502    0  0.18064995188E+02 -0.29812885678E+03  0.77837717842E+02  0.30865169628E+03  0.00000000000E+00 0. -1.
         -3    1    3    3    0  502  0.33498460804E+02 -0.86260540808E+02 -0.18768278249E+02  0.94420739487E+02  0.00000000000E+00 0.  1.
         11    1    5    5    0    0 -0.13675322122E+03  0.94496348588E+02 -0.11645230068E+03  0.20295847296E+03  0.00000000000E+00 0. -1.
        -11    1    5    5    0    0 -0.14353818120E+03  0.17586184517E+03 -0.72981909969E+02  0.23844696943E+03  0.00000000000E+00 0.  1.
          1    1    6    6  503    0  0.13933349382E+02 -0.12674990689E+02 -0.11410818369E+02  0.22022724396E+02  0.00000000000E+00 0. -1.
         -1    1    6    6    0  503  0.21479459704E+03  0.12670619452E+03 -0.39352972811E+03  0.46589357750E+03  0.00000000000E+00 0.  1.
<mgrwt>
<rscale>  0 0.52632957E+03</rscale>
<asrwt>0</asrwt>
<pdfrwt beam="1">  1        1 0.14366919E+00 0.52632957E+03</pdfrwt>
<pdfrwt beam="2">  1       -1 0.61314529E-01 0.52632957E+03</pdfrwt>
<totfact> 0.48422450E+01</totfact>
</mgrwt>
</event>
<event>
12    1  0.1335216E-007  0.1013467E+04  0.7818608E-02  0.9293897E-01
          2   -1    0    0  501    0  0.00000000000E+00  0.00000000000E+00  0.14630224573E+04  0.14630224573E+04  0.00000000000E+00 0. -1.
         -2   -1    0    0    0  501 -0.00000000000E+00 -0.00000000000E+00 -0.73757756912E+03  0.73757756912E+03  0.00000000000E+00 0.  1.
         23    2    1    2    0    0 -0.67668996902E+03 -0.64792999490E+03  0.16809150573E+03  0.95628320695E+03  0.92196665558E+02 0.  0.
    5000000    2    1    2    0    0  0.67668996902E+03  0.64792999490E+03  0.55735338240E+03  0.12443168194E+04  0.59996580049E+03 0.  0.
         23    2    4    4    0    0  0.68074378810E+03  0.33434039483E+03  0.27361689909E+03  0.81153222753E+03  0.92318709884E+02 0.  0.
         23    2    4    4    0    0 -0.40538190823E+01  0.31358960007E+03  0.28373648331E+03  0.43278459189E+03  0.91876222697E+02 0.  0.
          1    1    3    3  502    0 -0.52035487182E+02 -0.79630951611E+02 -0.53156954684E+00  0.95126562783E+02  0.00000000000E+00 0. -1.
         -1    1    3    3    0  502 -0.62465448184E+03 -0.56829904329E+03  0.16862307528E+03  0.86115664417E+03  0.00000000000E+00 0.  1.
         13    1    5    5    0    0  0.30319827075E+03  0.10410097941E+03  0.92324933884E+02  0.33360170670E+03  0.00000000000E+00 0.  1.
        -13    1    5    5    0    0  0.37754551735E+03  0.23023941542E+03  0.18129196521E+03  0.47793052083E+03  0.00000000000E+00 0. -1.
          2    1    6    6  503    0  0.39249567234E+02  0.12381484945E+03  0.89061439806E+02  0.15748836634E+03  0.00000000000E+00 0. -1.
         -2    1    6    6    0  503 -0.43303386316E+02  0.18977475061E+03  0.19467504350E+03  0.27529622555E+03  0.00000000000E+00 0.  1.
<mgrwt>
<rscale>  0 0.10134670E+04</rscale>
<asrwt>0</asrwt>
<pdfrwt beam="1">  1        2 0.22508038E+00 0.10134670E+04</pdfrwt>
<pdfrwt beam="2">  1       -2 0.11347347E+00 0.10134670E+04</pdfrwt>
<totfact> 0.80572979E+00</totfact>
</mgrwt>
</event>
<event>
12    1  0.1335216E-007  0.7709486E+03  0.7818608E-02  0.9603047E-01
          2   -1    0    0  501    0  0.00000000000E+00  0.00000000000E+00  0.11756039643E+04  0.11756039643E+04  0.00000000000E+00 0. -1.
         -2   -1    0    0    0  501 -0.00000000000E+00 -0.00000000000E+00 -0.60940076586E+03  0.60940076586E+03  0.00000000000E+00 0.  1.
         23    2    1    2    0    0 -0.71756298127E+03  0.10357116780E+03  0.38732110822E+03  0.82708539581E+03  0.91809543115E+02 0.  0.
    5000000    2    1    2    0    0  0.71756298127E+03 -0.10357116780E+03  0.17888209022E+03  0.95791933436E+03  0.59998919160E+03 0.  0.
         23    2    4    4    0    0  0.62017190928E+03  0.60426338071E+02  0.31773309692E+03  0.70542457773E+03  0.91678648548E+02 0.  0.
         23    2    4    4    0    0  0.97391071993E+02 -0.16399750587E+03 -0.13885100669E+03  0.25249475663E+03  0.89965533557E+02 0.  0.
          1    1    3    3  502    0 -0.14036976644E+03  0.28255408224E+02  0.11878330969E+03  0.18604169986E+03  0.00000000000E+00 0. -1.
         -1    1    3    3    0  502 -0.57719321483E+03  0.75315759577E+02  0.26853779852E+03  0.64104369596E+03  0.00000000000E+00 0.  1.
         13    1    5    5    0    0  0.50398749357E+03  0.54704680199E+02  0.21659315283E+03  0.55127904873E+03  0.00000000000E+00 0. -1.
        -13    1    5    5    0    0  0.11618441571E+03  0.57216578718E+01  0.10113994409E+03  0.15414552900E+03  0.00000000000E+00 0.  1.
          1    1    6    6  503    0  0.89259156786E+02 -0.12549375415E+03 -0.14633334706E+03  0.21243664435E+03  0.00000000000E+00 0. -1.
         -1    1    6    6    0  503  0.81319152074E+01 -0.38503751725E+02  0.74823403687E+01  0.40058112278E+02  0.00000000000E+00 0.  1.
<mgrwt>
<rscale>  0 0.77094865E+03</rscale>
<asrwt>0</asrwt>
<pdfrwt beam="1">  1        2 0.18086215E+00 0.77094865E+03</pdfrwt>
<pdfrwt beam="2">  1       -2 0.93753964E-01 0.77094865E+03</pdfrwt>
<totfact> 0.19140515E+01</totfact>
</mgrwt>
</event>
<event>
12    1  0.1335216E-007  0.1581066E+04  0.7818608E-02  0.8832265E-01
         -1   -1    0    0    0  501 -0.00000000000E+00  0.00000000000E+00  0.12865333241E+04  0.12865333241E+04  0.00000000000E+00 0.  1.
          1   -1    0    0  501    0  0.00000000000E+00 -0.00000000000E+00 -0.28936286125E+04  0.28936286125E+04  0.00000000000E+00 0. -1.
         23    2    1    2    0    0 -0.14884378457E+04  0.39898893971E+03  0.38510282554E+03  0.15910476231E+04  0.92135542422E+02 0.  0.
    5000000    2    1    2    0    0  0.14884378457E+04 -0.39898893971E+03 -0.19921981140E+04  0.25891143135E+04  0.60001684014E+03 0.  0.
         23    2    4    4    0    0  0.58930223817E+02  0.78430428215E+02 -0.94139042499E+02  0.16371683169E+03  0.91197249450E+02 0.  0.
         23    2    4    4    0    0  0.14295076219E+04 -0.47741936792E+03 -0.18980590715E+04  0.24253974818E+04  0.92213946848E+02 0.  0.
          2    1    3    3  502    0 -0.93496697853E+03  0.28204886086E+03  0.21034991813E+03  0.99898042969E+03  0.00000000000E+00 0.  1.
         -2    1    3    3    0  502 -0.55347086716E+03  0.11694007884E+03  0.17475290740E+03  0.59206719338E+03  0.00000000000E+00 0. -1.
         11    1    5    5    0    0  0.67980241409E+02  0.69235813695E+02 -0.10772494434E+03  0.14498129104E+03  0.00000000000E+00 0.  1.
        -11    1    5    5    0    0 -0.90500175918E+01  0.91946145195E+01  0.13585901839E+02  0.18735540648E+02  0.00000000000E+00 0. -1.
          3    1    6    6  503    0  0.40813305969E+03 -0.18053212712E+03 -0.56594735732E+03  0.72073632806E+03  0.00000000000E+00 0. -1.
         -3    1    6    6    0  503  0.10213745622E+04 -0.29688724081E+03 -0.13321117142E+04  0.17046611538E+04  0.00000000000E+00 0.  1.
<mgrwt>
<rscale>  0 0.15810659E+04</rscale>
<asrwt>0</asrwt>
<pdfrwt beam="1">  1        1 0.44517363E+00 0.15810659E+04</pdfrwt>
<pdfrwt beam="2">  1       -1 0.19792821E+00 0.15810659E+04</pdfrwt>
<totfact> 0.10411438E-01</totfact>
</mgrwt>
</event>
<event>
12    1  0.1335216E-007  0.2350913E+03  0.7818608E-02  0.1123107E+00
         -2   -1    0    0    0  501 -0.00000000000E+00  0.00000000000E+00  0.68948736182E+02  0.68948736182E+02  0.00000000000E+00 0.  1.
          2   -1    0    0  501    0  0.00000000000E+00 -0.00000000000E+00 -0.23688492382E+04  0.23688492382E+04  0.00000000000E+00 0. -1.
         23    2    1    2    0    0  0.13541928449E+01 -0.15035697784E+03 -0.71631303243E+03  0.73756145540E+03  0.91013655256E+02 0.  0.
    5000000    2    1    2    0    0 -0.13541928449E+01  0.15035697784E+03 -0.15835874696E+04  0.17002365190E+04  0.60037146169E+03 0.  0.
         23    2    4    4    0    0  0.30750197904E+02  0.18667572406E+03 -0.13762044682E+03  0.25054105474E+03  0.89655072937E+02 0.  0.
         23    2    4    4    0    0 -0.32104390749E+02 -0.36318746222E+02 -0.14459670228E+04  0.14496954643E+04  0.91905194938E+02 0.  0.
          2    1    3    3  502    0  0.42096932314E+02 -0.10740181092E+03 -0.43100992289E+03  0.44618029352E+03  0.00000000000E+00 0. -1.
         -2    1    3    3    0  502 -0.40742739469E+02 -0.42955166918E+02 -0.28530310954E+03  0.29138116188E+03  0.00000000000E+00 0.  1.
         11    1    5    5    0    0 -0.18111383726E+02  0.78298946135E+02 -0.18959181252E+02  0.82572378796E+02  0.00000000000E+00 0. -1.
        -11    1    5    5    0    0  0.48861581629E+02  0.10837677793E+03 -0.11866126557E+03  0.16796867595E+03  0.00000000000E+00 0.  1.
          4    1    6    6  503    0 -0.17133021942E+02 -0.63266598853E+02 -0.69166217232E+03  0.69476093988E+03  0.00000000000E+00 0. -1.
         -4    1    6    6    0  503 -0.14971368806E+02  0.26947852631E+02 -0.75430485047E+03  0.75493452437E+03  0.00000000000E+00 0.  1.
<mgrwt>
<rscale>  0 0.23509134E+03</rscale>
<asrwt>0</asrwt>
<pdfrwt beam="1">  1        2 0.36443830E+00 0.23509134E+03</pdfrwt>
<pdfrwt beam="2">  1       -2 0.10607499E-01 0.23509134E+03</pdfrwt>
<totfact> 0.28874410E+02</totfact>
</mgrwt>
</event>
<event>
12    1  0.1335216E-007  0.1312365E+04  0.7818608E-02  0.9019817E-01
          2   -1    0    0  501    0  0.00000000000E+00  0.00000000000E+00  0.40012066776E+04  0.40012066776E+04  0.00000000000E+00 0. -1.
         -2   -1    0    0    0  501 -0.00000000000E+00 -0.00000000000E+00 -0.49619178312E+03  0.49619178312E+03  0.00000000000E+00 0.  1.
         23    2    1    2    0    0  0.12807574417E+04 -0.44020328143E+02  0.23190521013E+04  0.26511406344E+04  0.90920851312E+02 0.  0.
    5000000    2    1    2    0    0 -0.12807574417E+04  0.44020328143E+02  0.11859627932E+04  0.18462578263E+04  0.59990232579E+03 0.  0.
         23    2    4    4    0    0 -0.29285194114E+02 -0.53650242387E+02 -0.13921109957E+02  0.10731168194E+03  0.87097810967E+02 0.  0.
         23    2    4    4    0    0 -0.12514722476E+04  0.97670570530E+02  0.11998839032E+04  0.17389461444E+04  0.92141114867E+02 0.  0.
          2    1    3    3  502    0  0.66828094659E+03 -0.68311700248E+02  0.12064849428E+04  0.13808952998E+04  0.00000000000E+00 0. -1.
         -2    1    3    3    0  502  0.61247649513E+03  0.24291372104E+02  0.11125671585E+04  0.12702453346E+04  0.00000000000E+00 0.  1.
         11    1    5    5    0    0 -0.44306306696E+02 -0.22506553922E+02 -0.40169982533E+02  0.63900088256E+02  0.00000000000E+00 0. -1.
        -11    1    5    5    0    0  0.15021112582E+02 -0.31143688465E+02  0.26248872576E+02  0.43411593681E+02  0.00000000000E+00 0.  1.
          3    1    6    6  503    0 -0.38112126919E+03  0.45414663871E+02  0.31327574342E+03  0.49543678198E+03  0.00000000000E+00 0. -1.
         -3    1    6    6    0  503 -0.87035097841E+03  0.52255906660E+02  0.88660815975E+03  0.12435093624E+04  0.00000000000E+00 0.  1.
<mgrwt>
<rscale>  0 0.13123645E+04</rscale>
<asrwt>0</asrwt>
<pdfrwt beam="1">  1        2 0.61557024E+00 0.13123645E+04</pdfrwt>
<pdfrwt beam="2">  1       -2 0.76337200E-01 0.13123645E+04</pdfrwt>
<totfact> 0.52413957E-01</totfact>
</mgrwt>
</event>
<event>
12    1  0.1335216E-007  0.3762322E+03  0.7818608E-02  0.1052335E+00
          1   -1    0    0  501    0  0.00000000000E+00  0.00000000000E+00  0.13882521412E+04  0.13882521412E+04  0.00000000000E+00 0. -1.
         -1   -1    0    0    0  501 -0.00000000000E+00 -0.00000000000E+00 -0.13033029099E+03  0.13033029099E+03  0.00000000000E+00 0.  1.
         23    2    1    2    0    0 -0.19495661496E+03  0.40441383302E+02  0.36226991634E+03  0.42230558341E+03  0.86365075695E+02 0.  0.
    5000000    2    1    2    0    0  0.19495661496E+03 -0.40441383302E+02  0.89565193388E+03  0.10962768488E+04  0.59998912932E+03 0.  0.
         23    2    4    4    0    0  0.34468104723E+03 -0.10312455661E+03  0.31994295640E+03  0.49107363362E+03  0.96696017439E+02 0.  0.
         23    2    4    4    0    0 -0.14972443227E+03  0.62683173310E+02  0.57570897748E+03  0.60520321516E+03  0.92106020736E+02 0.  0.
          3    1    3    3  502    0 -0.14526911901E+03  0.84709413900E+00  0.30010953601E+03  0.33342100730E+03  0.00000000000E+00 0. -1.
         -3    1    3    3    0  502 -0.49687495950E+02  0.39594289163E+02  0.62160380327E+02  0.88884576112E+02  0.00000000000E+00 0.  1.
         13    1    5    5    0    0  0.20480211609E+03 -0.78356151421E+02  0.13365173724E+03  0.25680027276E+03  0.00000000000E+00 0. -1.
        -13    1    5    5    0    0  0.13987893114E+03 -0.24768405191E+02  0.18629121916E+03  0.23427336086E+03  0.00000000000E+00 0.  1.
          2    1    6    6  503    0 -0.76894076831E+02 -0.12210485106E+02  0.18380758246E+03  0.19961718956E+03  0.00000000000E+00 0.  1.
         -2    1    6    6    0  503 -0.72830355440E+02  0.74893658416E+02  0.39190139502E+03  0.40558602560E+03  0.00000000000E+00 0. -1.
<mgrwt>
<rscale>  0 0.37623222E+03</rscale>
<asrwt>0</asrwt>
<pdfrwt beam="1">  1        1 0.21357724E+00 0.37623222E+03</pdfrwt>
<pdfrwt beam="2">  1       -1 0.20050815E-01 0.37623222E+03</pdfrwt>
<totfact> 0.16890412E+02</totfact>
</mgrwt>
</event>
<event>
12    1  0.1335216E-007  0.1531709E+04  0.7818608E-02  0.8863637E-01
          2   -1    0    0  501    0  0.00000000000E+00  0.00000000000E+00  0.24672842625E+04  0.24672842625E+04  0.00000000000E+00 0. -1.
         -2   -1    0    0    0  501 -0.00000000000E+00 -0.00000000000E+00 -0.96819209470E+03  0.96819209470E+03  0.00000000000E+00 0.  1.
         23    2    1    2    0    0  0.11621028577E+04  0.91264935208E+03  0.89547346080E+03  0.17302448097E+04  0.91991797596E+02 0.  0.
    5000000    2    1    2    0    0 -0.11621028577E+04 -0.91264935208E+03  0.60361870704E+03  0.17052315475E+04  0.60003932808E+03 0.  0.
         23    2    4    4    0    0 -0.24874353911E+03  0.43553364844E+02  0.12897704284E+03  0.29734884224E+03  0.89504260052E+02 0.  0.
         23    2    4    4    0    0 -0.91335931864E+03 -0.95620271692E+03  0.47464166420E+03  0.14078827052E+04  0.91105002865E+02 0.  0.
          2    1    3    3  502    0  0.71274114622E+03  0.50282325698E+03  0.53534051666E+03  0.10234357029E+04  0.00000000000E+00 0. -1.
         -2    1    3    3    0  502  0.44936171153E+03  0.40982609509E+03  0.36013294415E+03  0.70680910681E+03  0.00000000000E+00 0.  1.
         11    1    5    5    0    0 -0.19329392389E+03  0.56193215931E+02  0.64508520008E+02  0.21138014969E+03  0.00000000000E+00 0. -1.
        -11    1    5    5    0    0 -0.55449615218E+02 -0.12639851087E+02  0.64468522835E+02  0.85968692556E+02  0.00000000000E+00 0.  1.
          3    1    6    6  503    0 -0.16741110382E+03 -0.22308953495E+03  0.11803783359E+03  0.30286688238E+03  0.00000000000E+00 0. -1.
         -3    1    6    6    0  503 -0.74594821482E+03 -0.73311318198E+03  0.35660383060E+03  0.11050158229E+04  0.00000000000E+00 0.  1.
<mgrwt>
<rscale>  0 0.15317086E+04</rscale>
<asrwt>0</asrwt>
<pdfrwt beam="1">  1        2 0.37958219E+00 0.15317086E+04</pdfrwt>
<pdfrwt beam="2">  1       -2 0.14895263E+00 0.15317086E+04</pdfrwt>
<totfact> 0.10454661E+00</totfact>
</mgrwt>
</event>
<event>
12    1  0.1335216E-007  0.4123847E+03  0.7818608E-02  0.1039574E+00
         -2   -1    0    0    0  501 -0.00000000000E+00  0.00000000000E+00  0.80549028664E+02  0.80549028664E+02  0.00000000000E+00 0.  1.
          2   -1    0    0  501    0  0.00000000000E+00 -0.00000000000E+00 -0.32467992458E+04  0.32467992458E+04  0.00000000000E+00 0. -1.
         23    2    1    2    0    0  0.27588090812E+03  0.90842599149E+02 -0.15598646532E+04  0.15881059511E+04  0.67380430729E+02 0.  0.
    5000000    2    1    2    0    0 -0.27588090812E+03 -0.90842599149E+02 -0.16063855639E+04  0.17392423233E+04  0.60010551235E+03 0.  0.
         23    2    4    4    0    0 -0.36994265173E+03 -0.16325979322E+03 -0.65554501766E+03  0.77567074290E+03  0.91730614087E+02 0.  0.
         23    2    4    4    0    0  0.94061743616E+02  0.72417194068E+02 -0.95084054626E+03  0.96357158041E+03  0.10139321752E+03 0.  0.
          4    1    3    3  502    0  0.19543050079E+03  0.69659000029E+02 -0.93598659718E+03  0.95870556848E+03  0.00000000000E+00 0. -1.
         -4    1    3    3    0  502  0.80450407331E+02  0.21183599120E+02 -0.62387805598E+03  0.62940038262E+03  0.00000000000E+00 0.  1.
         11    1    5    5    0    0 -0.74900241768E+02 -0.98159377767E+01 -0.73962956084E+02  0.10572094269E+03  0.00000000000E+00 0. -1.
        -11    1    5    5    0    0 -0.29504240996E+03 -0.15344385544E+03 -0.58158206158E+03  0.66994980021E+03  0.00000000000E+00 0.  1.
          4    1    6    6  503    0  0.42262684799E+02  0.58857525923E+02 -0.23956051595E+03  0.25027901168E+03  0.00000000000E+00 0. -1.
         -4    1    6    6    0  503  0.51799058818E+02  0.13559668144E+02 -0.71128003031E+03  0.71329256874E+03  0.00000000000E+00 0.  1.
<mgrwt>
<rscale>  0 0.41238467E+03</rscale>
<asrwt>0</asrwt>
<pdfrwt beam="1">  1        2 0.49950767E+00 0.41238467E+03</pdfrwt>
<pdfrwt beam="2">  1       -2 0.12392156E-01 0.41238467E+03</pdfrwt>
<totfact> 0.66275659E+01</totfact>
</mgrwt>
</event>
<event>
12    1  0.1335216E-007  0.6876342E+03  0.7818608E-02  0.9738616E-01
          2   -1    0    0  501    0  0.00000000000E+00  0.00000000000E+00  0.14572991954E+04  0.14572991954E+04  0.00000000000E+00 0. -1.
         -2   -1    0    0    0  501 -0.00000000000E+00 -0.00000000000E+00 -0.42835865255E+03  0.42835865255E+03  0.00000000000E+00 0.  1.
         23    2    1    2    0    0  0.46944621666E+03 -0.37983843288E+03  0.88150512718E+02  0.61691843332E+03  0.90337451037E+02 0.  0.
    5000000    2    1    2    0    0 -0.46944621666E+03  0.37983843288E+03  0.94079003013E+03  0.12687394146E+04  0.59996402892E+03 0.  0.
         23    2    4    4    0    0 -0.18772871243E+03 -0.87519470127E+02  0.54016946980E+03  0.58581584138E+03  0.92170585259E+02 0.  0.
         23    2    4    4    0    0 -0.28171750423E+03  0.46735790300E+03  0.40062056033E+03  0.68292357324E+03  0.89997843538E+02 0.  0.
          1    1    3    3  502    0  0.26894525255E+03 -0.15977599363E+03  0.40928560612E+02  0.31549178132E+03  0.00000000000E+00 0. -1.
         -1    1    3    3    0  502  0.20050096411E+03 -0.22006243925E+03  0.47221952106E+02  0.30142665200E+03  0.00000000000E+00 0.  1.
         13    1    5    5    0    0 -0.92183399386E+02 -0.17774868209E+02  0.34545881519E+03  0.35798815351E+03  0.00000000000E+00 0. -1.
        -13    1    5    5    0    0 -0.95545313040E+02 -0.69744601919E+02  0.19471065461E+03  0.22782768787E+03  0.00000000000E+00 0.  1.
          1    1    6    6  503    0 -0.10007947681E+03  0.25009209282E+03  0.18068984427E+03  0.32436210690E+03  0.00000000000E+00 0. -1.
         -1    1    6    6    0  503 -0.18163802742E+03  0.21726581019E+03  0.21993071606E+03  0.35856146634E+03  0.00000000000E+00 0.  1.
<mgrwt>
<rscale>  0 0.68763424E+03</rscale>
<asrwt>0</asrwt>
<pdfrwt beam="1">  1        2 0.22419987E+00 0.68763424E+03</pdfrwt>
<pdfrwt beam="2">  1       -2 0.65901332E-01 0.68763424E+03</pdfrwt>
<totfact> 0.29303473E+01</totfact>
</mgrwt>
</event>
<event>
12    1  0.1335216E-007  0.8895738E+03  0.7818608E-02  0.9438709E-01
          2   -1    0    0  501    0  0.00000000000E+00  0.00000000000E+00  0.89261958627E+03  0.89261958627E+03  0.00000000000E+00 0.  1.
         -2   -1    0    0    0  501 -0.00000000000E+00 -0.00000000000E+00 -0.11534630220E+04  0.11534630220E+04  0.00000000000E+00 0. -1.
         23    2    1    2    0    0  0.78321596518E+03  0.13666414012E+03  0.35459398876E+03  0.87480745699E+03  0.86295159936E+02 0.  0.
    5000000    2    1    2    0    0 -0.78321596518E+03 -0.13666414012E+03 -0.61543742452E+03  0.11712751513E+04  0.60084766896E+03 0.  0.
         23    2    4    4    0    0 -0.41673513398E+03  0.21122524257E+03 -0.36507107484E+03  0.59989829229E+03  0.91196471545E+02 0.  0.
         23    2    4    4    0    0 -0.36648083120E+03 -0.34788938269E+03 -0.25036634968E+03  0.57137685902E+03  0.91940109575E+02 0.  0.
          4    1    3    3  502    0  0.39688699939E+03  0.10332345525E+03  0.21187226648E+03  0.46161118270E+03  0.00000000000E+00 0. -1.
         -4    1    3    3    0  502  0.38632896578E+03  0.33340684875E+02  0.14272172228E+03  0.41319627428E+03  0.00000000000E+00 0.  1.
         13    1    5    5    0    0 -0.25889218154E+03  0.95858692925E+02 -0.17281865545E+03  0.32569976718E+03  0.00000000000E+00 0.  1.
        -13    1    5    5    0    0 -0.15784295244E+03  0.11536654964E+03 -0.19225241939E+03  0.27419852511E+03  0.00000000000E+00 0. -1.
          1    1    6    6  503    0 -0.20617020668E+03 -0.24029103004E+03 -0.18923695549E+03  0.36885845329E+03  0.00000000000E+00 0. -1.
         -1    1    6    6    0  503 -0.16031062452E+03 -0.10759835266E+03 -0.61129394192E+02  0.20251840574E+03  0.00000000000E+00 0.  1.
<mgrwt>
<rscale>  0 0.88957380E+03</rscale>
<asrwt>0</asrwt>
<pdfrwt beam="1">  1        2 0.13732609E+00 0.88957380E+03</pdfrwt>
<pdfrwt beam="2">  1       -2 0.17745585E+00 0.88957380E+03</pdfrwt>
<totfact> 0.56180093E+00</totfact>
</mgrwt>
</event>
<event>
12    1  0.1335216E-007  0.7830170E+03  0.7818608E-02  0.9584930E-01
         -4   -1    0    0    0  501 -0.00000000000E+00  0.00000000000E+00  0.15284516741E+04  0.15284516741E+04  0.00000000000E+00 0.  1.
          4   -1    0    0  501    0  0.00000000000E+00 -0.00000000000E+00 -0.50069814414E+03  0.50069814414E+03  0.00000000000E+00 0. -1.
         23    2    1    2    0    0 -0.49372290088E+03 -0.53124936453E+03  0.74827913099E+03  0.10473119517E+04  0.10465407857E+03 0.  0.
    5000000    2    1    2    0    0  0.49372290088E+03  0.53124936453E+03  0.27947439894E+03  0.98183786649E+03  0.59992621734E+03 0.  0.
         23    2    4    4    0    0  0.37350343230E+03  0.58678093300E+03  0.37458998803E+03  0.79515314381E+03  0.90189720646E+02 0.  0.
         23    2    4    4    0    0  0.12021946858E+03 -0.55531568466E+02 -0.95115589088E+02  0.18668472268E+03  0.90927084377E+02 0.  0.
          1    1    3    3  502    0 -0.37803505983E+02 -0.86197363547E+01  0.31842341671E+02  0.50173096800E+02  0.00000000000E+00 0. -1.
         -1    1    3    3    0  502 -0.45591939490E+03 -0.52262962817E+03  0.71643678932E+03  0.99713885492E+03  0.00000000000E+00 0.  1.
         11    1    5    5    0    0  0.91973601095E+02  0.81672923153E+02  0.71391732275E+02  0.14221951031E+03  0.00000000000E+00 0.  1.
        -11    1    5    5    0    0  0.28152983120E+03  0.50510800984E+03  0.30319825575E+03  0.65293363350E+03  0.00000000000E+00 0. -1.
          4    1    6    6  503    0  0.74069818161E+02 -0.32969270129E+02 -0.10671652061E+03  0.13402136586E+03  0.00000000000E+00 0. -1.
         -4    1    6    6    0  503  0.46149650421E+02 -0.22562298338E+02  0.11600931519E+02  0.52663356828E+02  0.00000000000E+00 0.  1.
<mgrwt>
<rscale>  0 0.78301698E+03</rscale>
<asrwt>0</asrwt>
<pdfrwt beam="1">  1        4 0.77030484E-01 0.78301698E+03</pdfrwt>
<pdfrwt beam="2">  1       -4 0.23514641E+00 0.78301698E+03</pdfrwt>
<totfact> 0.23318564E-01</totfact>
</mgrwt>
</event>
<event>
12    1  0.1335216E-007  0.4343467E+03  0.7818608E-02  0.1032496E+00
         -1   -1    0    0    0  501 -0.00000000000E+00  0.00000000000E+00  0.75871126944E+03  0.75871126944E+03  0.00000000000E+00 0.  1.
          1   -1    0    0  501    0  0.00000000000E+00 -0.00000000000E+00 -0.27110438263E+03  0.27110438263E+03  0.00000000000E+00 0. -1.
         23    2    1    2    0    0 -0.16833667798E+03  0.16809189809E+03  0.12283166210E+03  0.28842120305E+03  0.10727091778E+03 0.  0.
    5000000    2    1    2    0    0  0.16833667798E+03 -0.16809189809E+03  0.36477522472E+03  0.74139444902E+03  0.60001053417E+03 0.  0.
         23    2    4    4    0    0  0.18747773347E+03  0.16718142017E+03  0.27226209379E+03  0.38125092240E+03  0.90155922262E+02 0.  0.
         23    2    4    4    0    0 -0.19141055495E+02 -0.33527331825E+03  0.92513130925E+02  0.36014352662E+03  0.91488263936E+02 0.  0.
          1    1    3    3  502    0 -0.53030950237E+02  0.27776906177E+01  0.14181346780E+01  0.53122578573E+02  0.00000000000E+00 0. -1.
         -1    1    3    3    0  502 -0.11530572774E+03  0.16531420747E+03  0.12141352742E+03  0.23529862448E+03  0.00000000000E+00 0.  1.
         11    1    5    5    0    0  0.84258929409E+02  0.19172556015E+02  0.90493331081E+02  0.12512472601E+03  0.00000000000E+00 0. -1.
        -11    1    5    5    0    0  0.10321880406E+03  0.14800886415E+03  0.18176876271E+03  0.25612619639E+03  0.00000000000E+00 0.  1.
          1    1    6    6  503    0  0.24512806628E+01 -0.32162104794E+03  0.92240010492E+02  0.33459576625E+03  0.00000000000E+00 0. -1.
         -1    1    6    6    0  503 -0.21592336157E+02 -0.13652270308E+02  0.27312043354E+00  0.25547760373E+02  0.00000000000E+00 0.  1.
<mgrwt>
<rscale>  0 0.43434672E+03</rscale>
<asrwt>0</asrwt>
<pdfrwt beam="1">  1        1 0.41708367E-01 0.43434672E+03</pdfrwt>
<pdfrwt beam="2">  1       -1 0.11672481E+00 0.43434672E+03</pdfrwt>
<totfact> 0.69409213E+01</totfact>
</mgrwt>
</event>
<event>
12    1  0.1335216E-007  0.3521889E+03  0.7818608E-02  0.1061720E+00
         -2   -1    0    0    0  501 -0.00000000000E+00  0.00000000000E+00  0.98929303170E+03  0.98929303170E+03  0.00000000000E+00 0.  1.
          2   -1    0    0  501    0  0.00000000000E+00 -0.00000000000E+00 -0.23850290514E+03  0.23850290514E+03  0.00000000000E+00 0. -1.
         23    2    1    2    0    0  0.12591215819E+03 -0.16973662774E+03 -0.16445787224E+02  0.23064091185E+03  0.90886588258E+02 0.  0.
    5000000    2    1    2    0    0 -0.12591215819E+03  0.16973662774E+03  0.76723591378E+03  0.99715502499E+03  0.60083508726E+03 0.  0.
         23    2    4    4    0    0  0.11502394026E+02  0.29217475707E+03  0.13998203723E+03  0.33702867495E+03  0.92168124928E+02 0.  0.
         23    2    4    4    0    0 -0.13741455222E+03 -0.12243812933E+03  0.62725387655E+03  0.66012635004E+03  0.91899497798E+02 0.  0.
          1    1    3    3  502    0  0.10790775000E+03 -0.16342066845E+03  0.12211419265E+02  0.19621293573E+03  0.00000000000E+00 0. -1.
         -1    1    3    3    0  502  0.18004408195E+02 -0.63159592885E+01 -0.28657206489E+02  0.34427976123E+02  0.00000000000E+00 0.  1.
         13    1    5    5    0    0  0.19762936233E+01  0.29346452298E+03  0.14364643253E+03  0.32674092116E+03  0.00000000000E+00 0. -1.
        -13    1    5    5    0    0  0.95261004031E+01 -0.12897659133E+01 -0.36643952967E+01  0.10287753783E+02  0.00000000000E+00 0.  1.
          1    1    6    6  503    0 -0.63352286706E+02 -0.37219757163E+02  0.39627980517E+03  0.40303412578E+03  0.00000000000E+00 0. -1.
         -1    1    6    6    0  503 -0.74062265514E+02 -0.85218372165E+02  0.23097407138E+03  0.25709222426E+03  0.00000000000E+00 0.  1.
<mgrwt>
<rscale>  0 0.35218894E+03</rscale>
<asrwt>0</asrwt>
<pdfrwt beam="1">  1        2 0.36692755E-01 0.35218894E+03</pdfrwt>
<pdfrwt beam="2">  1       -2 0.15219893E+00 0.35218894E+03</pdfrwt>
<totfact> 0.42757269E+01</totfact>
</mgrwt>
</event>
<event>
12    1  0.1335216E-007  0.1066070E+04  0.7818608E-02  0.9238909E-01
         -2   -1    0    0    0  501 -0.00000000000E+00  0.00000000000E+00  0.54130462073E+03  0.54130462073E+03  0.00000000000E+00 0.  1.
          2   -1    0    0  501    0  0.00000000000E+00 -0.00000000000E+00 -0.23730863709E+04  0.23730863709E+04  0.00000000000E+00 0. -1.
         23    2    1    2    0    0 -0.93524869702E+01 -0.99788589860E+03 -0.42635595917E+03  0.10892537710E+04  0.93971475106E+02 0.  0.
    5000000    2    1    2    0    0  0.93524869702E+01  0.99788589860E+03 -0.14054257910E+04  0.18251372206E+04  0.60003373608E+03 0.  0.
         23    2    4    4    0    0 -0.81907433580E+02 -0.81967496745E+01 -0.30276253374E+03  0.32694192011E+03  0.91923081472E+02 0.  0.
         23    2    4    4    0    0  0.91259920550E+02  0.10060826483E+04 -0.11026632573E+04  0.14981953005E+04  0.90510945729E+02 0.  0.
          4    1    3    3  502    0 -0.40008710883E+02 -0.34121694742E+03 -0.17391123233E+03  0.38506469442E+03  0.00000000000E+00 0. -1.
         -4    1    3    3    0  502  0.30656223913E+02 -0.65666895118E+03 -0.25244472684E+03  0.70418907661E+03  0.00000000000E+00 0.  1.
         13    1    5    5    0    0 -0.32690708290E+02 -0.45888646220E+02 -0.98454073977E+02  0.11343568637E+03  0.00000000000E+00 0. -1.
        -13    1    5    5    0    0 -0.49216725290E+02  0.37691896545E+02 -0.20430845976E+03  0.21350623374E+03  0.00000000000E+00 0.  1.
          4    1    6    6  503    0  0.50698314252E+01  0.45969717976E+03 -0.46154355381E+03  0.65143660653E+03  0.00000000000E+00 0. -1.
         -4    1    6    6    0  503  0.86190089125E+02  0.54638546852E+03 -0.64111970348E+03  0.84675869400E+03  0.00000000000E+00 0.  1.
<mgrwt>
<rscale>  0 0.10660697E+04</rscale>
<asrwt>0</asrwt>
<pdfrwt beam="1">  1        2 0.36509021E+00 0.10660697E+04</pdfrwt>
<pdfrwt beam="2">  1       -2 0.83277634E-01 0.10660697E+04</pdfrwt>
<totfact> 0.51964104E+00</totfact>
</mgrwt>
</event>
<event>
12    1  0.1335216E-007  0.6046707E+03  0.7818608E-02  0.9895763E-01
         -1   -1    0    0    0  501 -0.00000000000E+00  0.00000000000E+00  0.17749345933E+03  0.17749345933E+03  0.00000000000E+00 0. -1.
          1   -1    0    0  501    0  0.00000000000E+00 -0.00000000000E+00 -0.21996922745E+04  0.21996922745E+04  0.00000000000E+00 0.  1.
         23    2    1    2    0    0 -0.18917630385E+03  0.43557037109E+03 -0.76122706685E+03  0.90208774911E+03  0.93735999866E+02 0.  0.
    5000000    2    1    2    0    0  0.18917630385E+03 -0.43557037109E+03 -0.12609717483E+04  0.14750979847E+04  0.60029583736E+03 0.  0.
         23    2    4    4    0    0 -0.18892941603E+03 -0.10630414493E+03 -0.57558411428E+03  0.62105875145E+03  0.86151057286E+02 0.  0.
         23    2    4    4    0    0  0.37810571988E+03 -0.32926622616E+03 -0.68538763400E+03  0.85403923324E+03  0.90810902286E+02 0.  0.
          3    1    3    3  502    0 -0.14458757715E+03  0.22619893207E+03 -0.45865909166E+03  0.53145054963E+03  0.00000000000E+00 0. -1.
         -3    1    3    3    0  502 -0.44588726693E+02  0.20937143902E+03 -0.30256797519E+03  0.37063719948E+03  0.00000000000E+00 0.  1.
         13    1    5    5    0    0 -0.83715028773E+02 -0.38777898198E+02 -0.36203293614E+03  0.37360377177E+03  0.00000000000E+00 0. -1.
        -13    1    5    5    0    0 -0.10521438726E+03 -0.67526246733E+02 -0.21355117814E+03  0.24745497968E+03  0.00000000000E+00 0.  1.
          4    1    6    6  503    0  0.10597222301E+03 -0.42444611668E+02 -0.15251021798E+03  0.19050203069E+03  0.00000000000E+00 0. -1.
         -4    1    6    6    0  503  0.27213349687E+03 -0.28682161449E+03 -0.53287741603E+03  0.66353720255E+03  0.00000000000E+00 0.  1.
<mgrwt>
<rscale>  0 0.60467068E+03</rscale>
<asrwt>0</asrwt>
<pdfrwt beam="1">  1        1 0.33841420E+00 0.60467068E+03</pdfrwt>
<pdfrwt beam="2">  1       -1 0.27306686E-01 0.60467068E+03</pdfrwt>
<totfact> 0.27886620E+01</totfact>
</mgrwt>
</event>
<event>
12    1  0.1335216E-007  0.8725610E+03  0.7818608E-02  0.9460547E-01
          2   -1    0    0  501    0  0.00000000000E+00  0.00000000000E+00  0.16214946005E+04  0.16214946005E+04  0.00000000000E+00 0.  1.
         -2   -1    0    0    0  501 -0.00000000000E+00 -0.00000000000E+00 -0.53346952826E+03  0.53346952826E+03  0.00000000000E+00 0. -1.
         23    2    1    2    0    0 -0.44585282388E+03 -0.69237611601E+03  0.36383972705E+03  0.90481325029E+03  0.90212218331E+02 0.  0.
    5000000    2    1    2    0    0  0.44585282388E+03  0.69237611601E+03  0.72418534520E+03  0.12501508785E+04  0.60021944168E+03 0.  0.
         23    2    4    4    0    0  0.33768844192E+03  0.15934155619E+03  0.55147344211E+03  0.67222948033E+03  0.91358095077E+02 0.  0.
         23    2    4    4    0    0  0.10816438196E+03  0.53303455982E+03  0.17271190309E+03  0.57792139815E+03  0.91314650983E+02 0.  0.
          4    1    3    3  502    0 -0.36634188525E+02 -0.83516928338E+02  0.68214192264E+02  0.11388730006E+03  0.00000000000E+00 0. -1.
         -4    1    3    3    0  502 -0.40921863535E+03 -0.60885918767E+03  0.29562553479E+03  0.79092595023E+03  0.00000000000E+00 0.  1.
         13    1    5    5    0    0  0.21912056396E+03  0.82190333396E+02  0.41046845840E+03  0.47249701353E+03  0.00000000000E+00 0. -1.
        -13    1    5    5    0    0  0.11856787796E+03  0.77151222798E+02  0.14100498371E+03  0.19973246680E+03  0.00000000000E+00 0.  1.
          3    1    6    6  503    0  0.55060494030E+02  0.34812595276E+03  0.15400567151E+03  0.38463110099E+03  0.00000000000E+00 0. -1.
         -3    1    6    6    0  503  0.53103887928E+02  0.18490860706E+03  0.18706231578E+02  0.19329029716E+03  0.00000000000E+00 0.  1.
<mgrwt>
<rscale>  0 0.87256096E+03</rscale>
<asrwt>0</asrwt>
<pdfrwt beam="1">  1        2 0.24946071E+00 0.87256096E+03</pdfrwt>
<pdfrwt beam="2">  1       -2 0.82072236E-01 0.87256096E+03</pdfrwt>
<totfact> 0.14313454E+01</totfact>
</mgrwt>
</event>
<event>
12    1  0.1335216E-007  0.8135714E+03  0.7818608E-02  0.9540578E-01
         -3   -1    0    0    0  501 -0.00000000000E+00  0.00000000000E+00  0.59801926483E+03  0.59801926483E+03  0.00000000000E+00 0.  1.
          3   -1    0    0  501    0  0.00000000000E+00 -0.00000000000E+00 -0.15050057738E+04  0.15050057738E+04  0.00000000000E+00 0. -1.
         23    2    1    2    0    0 -0.75364624755E+03 -0.28603057422E+03 -0.10699239247E+03  0.81851499597E+03  0.93398451542E+02 0.  0.
    5000000    2    1    2    0    0  0.75364624755E+03  0.28603057422E+03 -0.79999411648E+03  0.12845100426E+04  0.60014940422E+03 0.  0.
         23    2    4    4    0    0  0.63818939361E+03  0.23431409179E+03 -0.87567364687E+03  0.11127029293E+04  0.95470819108E+02 0.  0.
         23    2    4    4    0    0  0.11545685394E+03  0.51716482433E+02  0.75679530381E+02  0.17180711335E+03  0.88234988530E+02 0.  0.
          3    1    3    3  502    0 -0.55922554362E+03 -0.22016815686E+03 -0.11985151181E+03  0.61283897625E+03  0.00000000000E+00 0. -1.
         -3    1    3    3    0  502 -0.19442070393E+03 -0.65862417357E+02  0.12859119341E+02  0.20567601972E+03  0.00000000000E+00 0.  1.
         13    1    5    5    0    0  0.18725614571E+03  0.31015045253E+02 -0.20536690133E+03  0.27964685104E+03  0.00000000000E+00 0.  1.
        -13    1    5    5    0    0  0.45093324791E+03  0.20329904653E+03 -0.67030674554E+03  0.83305607824E+03  0.00000000000E+00 0. -1.
          4    1    6    6  503    0  0.95974626662E+02  0.62123981910E+02  0.25721560652E+02  0.11718411485E+03  0.00000000000E+00 0. -1.
         -4    1    6    6    0  503  0.19482227277E+02 -0.10407499477E+02  0.49957969729E+02  0.54622998494E+02  0.00000000000E+00 0.  1.
<mgrwt>
<rscale>  0 0.81357145E+03</rscale>
<asrwt>0</asrwt>
<pdfrwt beam="1">  1        3 0.23153935E+00 0.81357145E+03</pdfrwt>
<pdfrwt beam="2">  1       -3 0.92002964E-01 0.81357145E+03</pdfrwt>
<totfact> 0.26037557E-01</totfact>
</mgrwt>
</event>
<event>
12    1  0.1335216E-007  0.1322701E+04  0.7818608E-02  0.9011754E-01
         -2   -1    0    0    0  501 -0.00000000000E+00  0.00000000000E+00  0.75832695840E+03  0.75832695840E+03  0.00000000000E+00 0.  1.
          2   -1    0    0  501    0  0.00000000000E+00 -0.00000000000E+00 -0.25365552240E+04  0.25365552240E+04  0.00000000000E+00 0. -1.
         23    2    1    2    0    0 -0.10550646601E+04  0.72351665006E+03 -0.46022340971E+03  0.13627725148E+04  0.93303592312E+02 0.  0.
    5000000    2    1    2    0    0  0.10550646601E+04 -0.72351665006E+03 -0.13180048559E+04  0.19321096676E+04  0.59939401707E+03 0.  0.
         23    2    4    4    0    0  0.10012905845E+04 -0.79279879633E+03 -0.12501503001E+04  0.17894956650E+04  0.91138336190E+02 0.  0.
         23    2    4    4    0    0  0.53774075565E+02  0.69282146271E+02 -0.67854555787E+02  0.14261400256E+03  0.89681915625E+02 0.  0.
          2    1    3    3  502    0 -0.60510329418E+03  0.39957142632E+03 -0.21341877046E+03  0.75588021071E+03  0.00000000000E+00 0. -1.
         -2    1    3    3    0  502 -0.44996136589E+03  0.32394522374E+03 -0.24680463925E+03  0.60689230407E+03  0.00000000000E+00 0.  1.
         13    1    5    5    0    0  0.81439778332E+03 -0.63972743445E+03 -0.96209461933E+03  0.14135490782E+04  0.00000000000E+00 0.  1.
        -13    1    5    5    0    0  0.18689280118E+03 -0.15307136188E+03 -0.28805568075E+03  0.37594658687E+03  0.00000000000E+00 0. -1.
          2    1    6    6  503    0  0.39562915559E+02  0.40910516141E+02 -0.88165658704E+02  0.10493844859E+03  0.00000000000E+00 0. -1.
         -2    1    6    6    0  503  0.14211160006E+02  0.28371630130E+02  0.20311102917E+02  0.37675553966E+02  0.00000000000E+00 0.  1.
<mgrwt>
<rscale>  0 0.13227008E+04</rscale>
<asrwt>0</asrwt>
<pdfrwt beam="1">  1        2 0.39023927E+00 0.13227008E+04</pdfrwt>
<pdfrwt beam="2">  1       -2 0.11666569E+00 0.13227008E+04</pdfrwt>
<totfact> 0.18263459E+00</totfact>
</mgrwt>
</event>
<event>
12    1  0.1335216E-007  0.4432856E+03  0.7818608E-02  0.1029743E+00
         -2   -1    0    0    0  501 -0.00000000000E+00  0.00000000000E+00  0.30918974889E+03  0.30918974889E+03  0.00000000000E+00 0.  1.
          2   -1    0    0  501    0  0.00000000000E+00 -0.00000000000E+00 -0.83383415016E+03  0.83383415016E+03  0.00000000000E+00 0. -1.
         23    2    1    2    0    0  0.21414130015E+03 -0.21719240607E+03 -0.56260613461E+02  0.32303952627E+03  0.90334053477E+02 0.  0.
    5000000    2    1    2    0    0 -0.21414130015E+03  0.21719240607E+03 -0.46838378781E+03  0.81998437279E+03  0.59996830020E+03 0.  0.
         23    2    4    4    0    0  0.20053671781E+02  0.31016418576E+03 -0.56842958912E+02  0.32937959949E+03  0.93036695458E+02 0.  0.
         23    2    4    4    0    0 -0.23419497193E+03 -0.92971779685E+02 -0.41154082890E+03  0.49060477330E+03  0.88522048322E+02 0.  0.
          2    1    3    3  502    0  0.18239734917E+03 -0.14394683599E+03 -0.14154725377E+02  0.23278711482E+03  0.00000000000E+00 0. -1.
         -2    1    3    3    0  502  0.31743950983E+02 -0.73245570085E+02 -0.42105888084E+02  0.90252411450E+02  0.00000000000E+00 0.  1.
         13    1    5    5    0    0  0.18129078613E+02  0.74447291100E+01  0.53848471949E+01  0.20324469543E+02  0.00000000000E+00 0.  1.
        -13    1    5    5    0    0  0.19245931681E+01  0.30271945665E+03 -0.62227806107E+02  0.30905512995E+03  0.00000000000E+00 0. -1.
          2    1    6    6  503    0 -0.18980602826E+03 -0.78140005984E+02 -0.25573505099E+03  0.32792164491E+03  0.00000000000E+00 0. -1.
         -2    1    6    6    0  503 -0.44388943670E+02 -0.14831773702E+02 -0.15580577791E+03  0.16268312839E+03  0.00000000000E+00 0.  1.
<mgrwt>
<rscale>  0 0.44328558E+03</rscale>
<asrwt>0</asrwt>
<pdfrwt beam="1">  1        2 0.12828218E+00 0.44328558E+03</pdfrwt>
<pdfrwt beam="2">  1       -2 0.47567653E-01 0.44328558E+03</pdfrwt>
<totfact> 0.14129107E+02</totfact>
</mgrwt>
</event>
<event>
12    1  0.1335216E-007  0.1028018E+04  0.7818608E-02  0.9278338E-01
         -2   -1    0    0    0  501 -0.00000000000E+00  0.00000000000E+00  0.17763626511E+04  0.17763626511E+04  0.00000000000E+00 0.  1.
          2   -1    0    0  501    0  0.00000000000E+00 -0.00000000000E+00 -0.65318664517E+03  0.65318664517E+03  0.00000000000E+00 0. -1.
         23    2    1    2    0    0 -0.21079623788E+03  0.93547734506E+03  0.23545651536E+03  0.99161338706E+03  0.91128600058E+02 0.  0.
    5000000    2    1    2    0    0  0.21079623788E+03 -0.93547734506E+03  0.88771949062E+03  0.14379359093E+04  0.60005072129E+03 0.  0.
         23    2    4    4    0    0  0.34274189639E+03 -0.38168740191E+03  0.59814880602E+03  0.79285853538E+03  0.87666314318E+02 0.  0.
         23    2    4    4    0    0 -0.13194565851E+03 -0.55378994314E+03  0.28957068459E+03  0.64507737388E+03  0.90447106023E+02 0.  0.
          2    1    3    3  502    0 -0.24661370480E+02  0.30102272210E+03  0.70371161048E+02  0.31012088404E+03  0.00000000000E+00 0. -1.
         -2    1    3    3    0  502 -0.18613486740E+03  0.63445462296E+03  0.16508535431E+03  0.68149250301E+03  0.00000000000E+00 0.  1.
         11    1    5    5    0    0  0.19600171436E+03 -0.26414744100E+03  0.42363521772E+03  0.53633696527E+03  0.00000000000E+00 0. -1.
        -11    1    5    5    0    0  0.14674018203E+03 -0.11753996092E+03  0.17451358830E+03  0.25652157012E+03  0.00000000000E+00 0.  1.
          2    1    6    6  503    0 -0.64538683586E+02 -0.43095358319E+03  0.20680794086E+03  0.48234402344E+03  0.00000000000E+00 0. -1.
         -2    1    6    6    0  503 -0.67406974928E+02 -0.12283635995E+03  0.82762743738E+02  0.16273335044E+03  0.00000000000E+00 0.  1.
<mgrwt>
<rscale>  0 0.10280182E+04</rscale>
<asrwt>0</asrwt>
<pdfrwt beam="1">  1        2 0.10049025E+00 0.10280182E+04</pdfrwt>
<pdfrwt beam="2">  1       -2 0.27328656E+00 0.10280182E+04</pdfrwt>
<totfact> 0.20648601E+00</totfact>
</mgrwt>
</event>
<event>
12    1  0.1335216E-007  0.9980038E+03  0.7818608E-02  0.9310737E-01
         -1   -1    0    0    0  501 -0.00000000000E+00  0.00000000000E+00  0.13504197290E+04  0.13504197290E+04  0.00000000000E+00 0.  1.
          1   -1    0    0  501    0  0.00000000000E+00 -0.00000000000E+00 -0.10124713757E+04  0.10124713757E+04  0.00000000000E+00 0. -1.
         23    2    1    2    0    0 -0.94857906013E+03  0.89950804895E+02  0.69391555702E+03  0.11823399487E+04  0.92279864146E+02 0.  0.
    5000000    2    1    2    0    0  0.94857906013E+03 -0.89950804895E+02 -0.35596720376E+03  0.11805511560E+04  0.59924535980E+03 0.  0.
         23    2    4    4    0    0  0.92314805325E+03 -0.19725224685E+02 -0.14904572301E+03  0.93957355257E+03  0.89400338052E+02 0.  0.
         23    2    4    4    0    0  0.25431006885E+02 -0.70225580210E+02 -0.20692148075E+03  0.24097760346E+03  0.98363295728E+02 0.  0.
          1    1    3    3  502    0 -0.26145646186E+03  0.35583446547E+02  0.14415271207E+03  0.30067535235E+03  0.00000000000E+00 0. -1.
         -1    1    3    3    0  502 -0.68712259827E+03  0.54367358348E+02  0.54976284495E+03  0.88166459632E+03  0.00000000000E+00 0.  1.
         13    1    5    5    0    0  0.41115716339E+03 -0.31847283650E+02 -0.10501573457E+03  0.42554995827E+03  0.00000000000E+00 0. -1.
        -13    1    5    5    0    0  0.51199088986E+03  0.12122058965E+02 -0.44029988440E+02  0.51402359430E+03  0.00000000000E+00 0.  1.
          1    1    6    6  503    0  0.59277564679E+02 -0.32267170155E+02 -0.82669288287E+02  0.10672024724E+03  0.00000000000E+00 0. -1.
         -1    1    6    6    0  503 -0.33846557794E+02 -0.37958410055E+02 -0.12425219247E+03  0.13425735623E+03  0.00000000000E+00 0.  1.
<mgrwt>
<rscale>  0 0.99800383E+03</rscale>
<asrwt>0</asrwt>
<pdfrwt beam="1">  1        1 0.15576483E+00 0.99800383E+03</pdfrwt>
<pdfrwt beam="2">  1       -1 0.20775688E+00 0.99800383E+03</pdfrwt>
<totfact> 0.19800506E+00</totfact>
</mgrwt>
</event>
<event>
12    1  0.1335216E-007  0.1088476E+04  0.7818608E-02  0.9216497E-01
         -2   -1    0    0    0  501 -0.00000000000E+00  0.00000000000E+00  0.99996652425E+03  0.99996652425E+03  0.00000000000E+00 0.  1.
          2   -1    0    0  501    0  0.00000000000E+00 -0.00000000000E+00 -0.12244860421E+04  0.12244860421E+04  0.00000000000E+00 0. -1.
         23    2    1    2    0    0  0.69973605928E+03  0.74108477014E+03 -0.14622124328E+02  0.10232764726E+04  0.89686919791E+02 0.  0.
    5000000    2    1    2    0    0 -0.69973605928E+03 -0.74108477014E+03 -0.20989739349E+03  0.12011760938E+04  0.59994158318E+03 0.  0.
         23    2    4    4    0    0 -0.39267800308E+03 -0.54201435842E+02 -0.17773138791E+03  0.44272076156E+03  0.85319497862E+02 0.  0.
         23    2    4    4    0    0 -0.30705805620E+03 -0.68688333430E+03 -0.32166005577E+02  0.75845533220E+03  0.90146958971E+02 0.  0.
          3    1    3    3  502    0  0.20083818003E+03  0.15769595016E+03 -0.12419656462E+02  0.25565256721E+03  0.00000000000E+00 0. -1.
         -3    1    3    3    0  502  0.49889787925E+03  0.58338881998E+03 -0.22024678655E+01  0.76762390534E+03  0.00000000000E+00 0.  1.
         13    1    5    5    0    0 -0.73919919854E+02  0.13560296230E+02 -0.88302291114E+01  0.75670397985E+02  0.00000000000E+00 0. -1.
        -13    1    5    5    0    0 -0.31875808323E+03 -0.67761732072E+02 -0.16890115880E+03  0.36705036357E+03  0.00000000000E+00 0.  1.
          4    1    6    6  503    0 -0.78578172728E+02 -0.20807291248E+03  0.29456713150E+02  0.22435811572E+03  0.00000000000E+00 0. -1.
         -4    1    6    6    0  503 -0.22847988347E+03 -0.47881042182E+03 -0.61622718727E+02  0.53409721648E+03  0.00000000000E+00 0.  1.
<mgrwt>
<rscale>  0 0.10884761E+04</rscale>
<asrwt>0</asrwt>
<pdfrwt beam="1">  1        2 0.18838247E+00 0.10884761E+04</pdfrwt>
<pdfrwt beam="2">  1       -2 0.15384100E+00 0.10884761E+04</pdfrwt>
<totfact> 0.50404495E+00</totfact>
</mgrwt>
</event>
<event>
12    1  0.1335216E-007  0.7613269E+03  0.7818608E-02  0.9617746E-01
          2   -1    0    0  501    0  0.00000000000E+00  0.00000000000E+00  0.84897436940E+03  0.84897436940E+03  0.00000000000E+00 0. -1.
         -2   -1    0    0    0  501 -0.00000000000E+00 -0.00000000000E+00 -0.72461722872E+03  0.72461722872E+03  0.00000000000E+00 0.  1.
         23    2    1    2    0    0  0.12395710361E+03 -0.64222132424E+03  0.17826309512E+03  0.68415770691E+03  0.92089326167E+02 0.  0.
    5000000    2    1    2    0    0 -0.12395710361E+03  0.64222132424E+03 -0.53905954436E+02  0.88943389121E+03  0.60031092115E+03 0.  0.
         23    2    4    4    0    0  0.18455274543E+03  0.45465839837E+03 -0.11148916705E+03  0.51194941683E+03  0.94278290009E+02 0.  0.
         23    2    4    4    0    0 -0.30850984904E+03  0.18756292587E+03  0.57583212617E+02  0.37748447437E+03  0.93917644244E+02 0.  0.
          4    1    3    3  502    0  0.93287692115E+02 -0.57156954869E+03  0.18196740172E+03  0.60704734394E+03  0.00000000000E+00 0. -1.
         -4    1    3    3    0  502  0.30669411494E+02 -0.70651775551E+02 -0.37043066084E+01  0.77110362970E+02  0.00000000000E+00 0.  1.
         11    1    5    5    0    0  0.12182740117E+03  0.19456006809E+03 -0.77291497825E+02  0.24221790067E+03  0.00000000000E+00 0.  1.
        -11    1    5    5    0    0  0.62725344267E+02  0.26009833028E+03 -0.34197669229E+02  0.26973151616E+03  0.00000000000E+00 0. -1.
          4    1    6    6  503    0 -0.20214697724E+03  0.16434208123E+03  0.16230440342E+02  0.26102710063E+03  0.00000000000E+00 0. -1.
         -4    1    6    6    0  503 -0.10636287180E+03  0.23220844638E+02  0.41352772275E+02  0.11645737374E+03  0.00000000000E+00 0.  1.
<mgrwt>
<rscale>  0 0.76132692E+03</rscale>
<asrwt>0</asrwt>
<pdfrwt beam="1">  1        2 0.13061144E+00 0.76132692E+03</pdfrwt>
<pdfrwt beam="2">  1       -2 0.11147957E+00 0.76132692E+03</pdfrwt>
<totfact> 0.20501074E+01</totfact>
</mgrwt>
</event>
<event>
12    1  0.1335216E-007  0.7537258E+03  0.7818608E-02  0.9629523E-01
          2   -1    0    0  501    0  0.00000000000E+00  0.00000000000E+00  0.18977914642E+04  0.18977914642E+04  0.00000000000E+00 0. -1.
         -2   -1    0    0    0  501 -0.00000000000E+00 -0.00000000000E+00 -0.32880154543E+03  0.32880154543E+03  0.00000000000E+00 0.  1.
         23    2    1    2    0    0  0.88588506746E+02 -0.66342575721E+03  0.58095625853E+03  0.89085130815E+03  0.90134455357E+02 0.  0.
    5000000    2    1    2    0    0 -0.88588506746E+02  0.66342575721E+03  0.98803366027E+03  0.13357417015E+04  0.60001143361E+03 0.  0.
         23    2    4    4    0    0 -0.32272992660E+01 -0.74145493316E+02  0.35008779188E+02  0.12408005638E+03  0.93071349684E+02 0.  0.
         23    2    4    4    0    0 -0.85361207480E+02  0.73757125053E+03  0.95302488108E+03  0.12116616451E+04  0.92572312036E+02 0.  0.
          1    1    3    3  502    0  0.22954189532E+02 -0.46761012499E+03  0.38475374614E+03  0.60598809310E+03  0.00000000000E+00 0.  1.
         -1    1    3    3    0  502  0.65634317214E+02 -0.19581563222E+03  0.19620251239E+03  0.28486321505E+03  0.00000000000E+00 0. -1.
         13    1    5    5    0    0 -0.57912011349E+00 -0.80793268739E+02 -0.73426874991E+01  0.81128310185E+02  0.00000000000E+00 0. -1.
        -13    1    5    5    0    0 -0.26481791525E+01  0.66477754229E+01  0.42351466687E+02  0.42951746198E+02  0.00000000000E+00 0.  1.
          2    1    6    6  503    0 -0.29553110314E+02  0.87784580977E+02  0.16031770808E+03  0.18515206320E+03  0.00000000000E+00 0.  1.
         -2    1    6    6    0  503 -0.55808097166E+02  0.64978666955E+03  0.79270717300E+03  0.10265095819E+04  0.00000000000E+00 0. -1.
<mgrwt>
<rscale>  0 0.75372580E+03</rscale>
<asrwt>0</asrwt>
<pdfrwt beam="1">  1        2 0.29196791E+00 0.75372580E+03</pdfrwt>
<pdfrwt beam="2">  1       -2 0.50584854E-01 0.75372580E+03</pdfrwt>
<totfact> 0.28987818E+01</totfact>
</mgrwt>
</event>
<event>
12    1  0.1335216E-007  0.7968884E+03  0.7818608E-02  0.9564532E-01
          2   -1    0    0  501    0  0.00000000000E+00  0.00000000000E+00  0.14284909617E+04  0.14284909617E+04  0.00000000000E+00 0. -1.
         -2   -1    0    0    0  501 -0.00000000000E+00 -0.00000000000E+00 -0.50188344649E+03  0.50188344649E+03  0.00000000000E+00 0.  1.
         23    2    1    2    0    0  0.12882053052E+02  0.69496063439E+03  0.68654883846E+03  0.98135727507E+03  0.92609735463E+02 0.  0.
    5000000    2    1    2    0    0 -0.12882053052E+02 -0.69496063439E+03  0.24005867679E+03  0.94901713317E+03  0.59989092351E+03 0.  0.
         23    2    4    4    0    0 -0.27418476048E+03 -0.24055992499E+03  0.17374409965E+03  0.41260446027E+03  0.83720177262E+02 0.  0.
         23    2    4    4    0    0  0.26130270743E+03 -0.45440070939E+03  0.66314577145E+02  0.53641267290E+03  0.92638128731E+02 0.  0.
          1    1    3    3  502    0 -0.79404897773E+01  0.36821280519E+02  0.69003843750E+02  0.78615447141E+02  0.00000000000E+00 0. -1.
         -1    1    3    3    0  502  0.20822542829E+02  0.65813935387E+03  0.61754499471E+03  0.90274182793E+03  0.00000000000E+00 0.  1.
         13    1    5    5    0    0 -0.39292494234E+02 -0.25107806237E+02 -0.54522274096E+01  0.46947085329E+02  0.00000000000E+00 0.  1.
        -13    1    5    5    0    0 -0.23489226625E+03 -0.21545211875E+03  0.17919632706E+03  0.36565737494E+03  0.00000000000E+00 0. -1.
          1    1    6    6  503    0  0.15724668077E+03 -0.18114298011E+03  0.32463098152E+02  0.24206022102E+03  0.00000000000E+00 0. -1.
         -1    1    6    6    0  503  0.10405602665E+03 -0.27325772929E+03  0.33851478994E+02  0.29435245188E+03  0.00000000000E+00 0.  1.
<mgrwt>
<rscale>  0 0.79688845E+03</rscale>
<asrwt>0</asrwt>
<pdfrwt beam="1">  1        2 0.21976784E+00 0.79688845E+03</pdfrwt>
<pdfrwt beam="2">  1       -2 0.77212839E-01 0.79688845E+03</pdfrwt>
<totfact> 0.21218587E+01</totfact>
</mgrwt>
</event>
<event>
12    1  0.1335216E-007  0.5889879E+03  0.7818608E-02  0.9928520E-01
          1   -1    0    0  501    0  0.00000000000E+00  0.00000000000E+00  0.52541088368E+03  0.52541088368E+03  0.00000000000E+00 0. -1.
         -1   -1    0    0    0  501 -0.00000000000E+00 -0.00000000000E+00 -0.70070052958E+03  0.70070052958E+03  0.00000000000E+00 0.  1.
         23    2    1    2    0    0 -0.34052672592E+03 -0.28087969859E+03  0.35986106788E+02  0.45192617397E+03  0.89946710264E+02 0.  0.
    5000000    2    1    2    0    0  0.34052672592E+03  0.28087969859E+03 -0.21127575268E+03  0.77418523929E+03  0.59989456150E+03 0.  0.
         23    2    4    4    0    0  0.45830541565E+03  0.33990648238E+03 -0.20970469636E+03  0.61474685561E+03  0.91418630690E+02 0.  0.
         23    2    4    4    0    0 -0.11777868972E+03 -0.59026783793E+02 -0.15710563200E+01  0.15943838368E+03  0.89789470513E+02 0.  0.
          2    1    3    3  502    0 -0.11178206054E+03 -0.45969005774E+02  0.27394578210E+02  0.12393079305E+03  0.00000000000E+00 0. -1.
         -2    1    3    3    0  502 -0.22874466538E+03 -0.23491069281E+03  0.85915285781E+01  0.32799538092E+03  0.00000000000E+00 0.  1.
         13    1    5    5    0    0  0.20760130419E+03  0.21070365101E+03 -0.10372801328E+03  0.31345467103E+03  0.00000000000E+00 0. -1.
        -13    1    5    5    0    0  0.25070411146E+03  0.12920283137E+03 -0.10597668308E+03  0.30129218458E+03  0.00000000000E+00 0.  1.
          1    1    6    6  503    0 -0.59869068011E+02  0.10634613057E+02  0.23904277174E+02  0.65336167370E+02  0.00000000000E+00 0. -1.
         -1    1    6    6    0  503 -0.57909621710E+02 -0.69661396850E+02 -0.25475333494E+02  0.94102216310E+02  0.00000000000E+00 0.  1.
<mgrwt>
<rscale>  0 0.58898788E+03</rscale>
<asrwt>0</asrwt>
<pdfrwt beam="1">  1        1 0.80832444E-01 0.58898788E+03</pdfrwt>
<pdfrwt beam="2">  1       -1 0.10780008E+00 0.58898788E+03</pdfrwt>
<totfact> 0.34474034E+01</totfact>
</mgrwt>
</event>
<event>
12    1  0.1335216E-007  0.1407126E+04  0.7818608E-02  0.8948677E-01
         -3   -1    0    0    0  501 -0.00000000000E+00  0.00000000000E+00  0.11994531653E+04  0.11994531653E+04  0.00000000000E+00 0.  1.
          3   -1    0    0  501    0  0.00000000000E+00 -0.00000000000E+00 -0.22165914188E+04  0.22165914188E+04  0.00000000000E+00 0. -1.
         23    2    1    2    0    0 -0.89059039417E+03 -0.10305256236E+04 -0.13182324488E+04  0.18975173467E+04  0.87755232604E+02 0.  0.
    5000000    2    1    2    0    0  0.89059039417E+03  0.10305256236E+04  0.30109419528E+03  0.15185272374E+04  0.60011077749E+03 0.  0.
         23    2    4    4    0    0  0.81860767580E+02 -0.18447885896E+02 -0.66211278010E+02  0.14105789815E+03  0.92042857037E+02 0.  0.
         23    2    4    4    0    0  0.80872962659E+03  0.10489735095E+04  0.36730547329E+03  0.13774693393E+04  0.90107920628E+02 0.  0.
          3    1    3    3  502    0 -0.70068335844E+03 -0.84127959014E+03 -0.10976302963E+04  0.15503228002E+04  0.00000000000E+00 0. -1.
         -3    1    3    3    0  502 -0.18990703573E+03 -0.18924603348E+03 -0.22060215247E+03  0.34719454645E+03  0.00000000000E+00 0.  1.
         11    1    5    5    0    0  0.10223882635E+03 -0.19336843966E+02 -0.57456505617E+02  0.11886101626E+03  0.00000000000E+00 0. -1.
        -11    1    5    5    0    0 -0.20378058774E+02  0.88895807068E+00 -0.87547723929E+01  0.22196881887E+02  0.00000000000E+00 0.  1.
          4    1    6    6  503    0  0.33450257003E+03  0.37173662804E+03  0.11605847703E+03  0.51337087965E+03  0.00000000000E+00 0. -1.
         -4    1    6    6    0  503  0.47422705656E+03  0.67723688148E+03  0.25124699626E+03  0.86409845963E+03  0.00000000000E+00 0.  1.
<mgrwt>
<rscale>  0 0.14071260E+04</rscale>
<asrwt>0</asrwt>
<pdfrwt beam="1">  1        3 0.34101406E+00 0.14071260E+04</pdfrwt>
<pdfrwt beam="2">  1       -3 0.18453126E+00 0.14071260E+04</pdfrwt>
<totfact> 0.10328536E-02</totfact>
</mgrwt>
</event>
<event>
12    1  0.1335216E-007  0.2289480E+04  0.7818608E-02  0.8482081E-01
         -2   -1    0    0    0  501 -0.00000000000E+00  0.00000000000E+00  0.16716515442E+04  0.16716515442E+04  0.00000000000E+00 0.  1.
          2   -1    0    0  501    0  0.00000000000E+00 -0.00000000000E+00 -0.35821286812E+04  0.35821286812E+04  0.00000000000E+00 0. -1.
         23    2    1    2    0    0 -0.37864544229E+03  0.22365409556E+04 -0.18127357958E+04  0.29051565860E+04  0.91847192123E+02 0.  0.
    5000000    2    1    2    0    0  0.37864544229E+03 -0.22365409556E+04 -0.97741341185E+02  0.23486236394E+04  0.60082594209E+03 0.  0.
         23    2    4    4    0    0  0.26483383510E+03 -0.51426304861E+03  0.14526211431E+03  0.60339587322E+03  0.91553561305E+02 0.  0.
         23    2    4    4    0    0  0.11381160720E+03 -0.17222779070E+04 -0.24300345550E+03  0.17452277662E+04  0.87034507987E+02 0.  0.
          3    1    3    3  502    0 -0.70605399858E+02  0.52840929029E+03 -0.47034984631E+03  0.71093633926E+03  0.00000000000E+00 0. -1.
         -3    1    3    3    0  502 -0.30804004243E+03  0.17081316654E+04 -0.13423859495E+04  0.21942202468E+04  0.00000000000E+00 0.  1.
         11    1    5    5    0    0  0.73235672787E+02 -0.22928969888E+03  0.38307280818E+02  0.24373074805E+03  0.00000000000E+00 0.  1.
        -11    1    5    5    0    0  0.19159816231E+03 -0.28497334973E+03  0.10695483350E+03  0.35966512517E+03  0.00000000000E+00 0. -1.
          2    1    6    6  503    0  0.62905817670E+02 -0.10385419330E+04 -0.18903656048E+03  0.10574787514E+04  0.00000000000E+00 0. -1.
         -2    1    6    6    0  503  0.50905789526E+02 -0.68373597402E+03 -0.53966895019E+02  0.68774901478E+03  0.00000000000E+00 0.  1.
<mgrwt>
<rscale>  0 0.22894801E+04</rscale>
<asrwt>0</asrwt>
<pdfrwt beam="1">  1        2 0.55109672E+00 0.22894801E+04</pdfrwt>
<pdfrwt beam="2">  1       -2 0.25717716E+00 0.22894801E+04</pdfrwt>
<totfact> 0.35575855E-02</totfact>
</mgrwt>
</event>
<event>
12    1  0.1335216E-007  0.2763799E+04  0.7818608E-02  0.8314596E-01
         -2   -1    0    0    0  501 -0.00000000000E+00  0.00000000000E+00  0.41926065214E+04  0.41926065214E+04  0.00000000000E+00 0.  1.
          2   -1    0    0  501    0  0.00000000000E+00 -0.00000000000E+00 -0.19418188598E+04  0.19418188598E+04  0.00000000000E+00 0. -1.
         23    2    1    2    0    0  0.27233825615E+04 -0.25107941891E+03  0.18565602259E+04  0.33068605649E+04  0.93045539425E+02 0.  0.
    5000000    2    1    2    0    0 -0.27233825615E+04  0.25107941891E+03  0.39422743562E+03  0.28275648163E+04  0.59987837776E+03 0.  0.
         23    2    4    4    0    0 -0.78294235642E+03  0.32053823422E+03  0.40467875284E+02  0.85180845395E+03  0.90534525025E+02 0.  0.
         23    2    4    4    0    0 -0.19404402051E+04 -0.69458815311E+02  0.35375956034E+03  0.19757563623E+04  0.91294359254E+02 0.  0.
          3    1    3    3  502    0  0.11873060791E+04 -0.63297132877E+02  0.81116901971E+03  0.14393392341E+04  0.00000000000E+00 0. -1.
         -3    1    3    3    0  502  0.15360764825E+04 -0.18778228603E+03  0.10453912062E+04  0.18675213308E+04  0.00000000000E+00 0.  1.
         11    1    5    5    0    0 -0.67785674434E+03  0.24880993323E+03  0.16057737089E+02  0.72225618699E+03  0.00000000000E+00 0. -1.
        -11    1    5    5    0    0 -0.10508561208E+03  0.71728300990E+02  0.24410138195E+02  0.12955226697E+03  0.00000000000E+00 0.  1.
          1    1    6    6  503    0 -0.34807534016E+03 -0.20119639777E+02  0.28976437151E+02  0.34985836597E+03  0.00000000000E+00 0. -1.
         -1    1    6    6    0  503 -0.15923648649E+04 -0.49339175534E+02  0.32478312319E+03  0.16258979963E+04  0.00000000000E+00 0.  1.
<mgrwt>
<rscale>  0 0.27637995E+04</rscale>
<asrwt>0</asrwt>
<pdfrwt beam="1">  1        2 0.29874136E+00 0.27637995E+04</pdfrwt>
<pdfrwt beam="2">  1       -2 0.64501639E+00 0.27637995E+04</pdfrwt>
<totfact> 0.20238052E-03</totfact>
</mgrwt>
</event>
<event>
12    1  0.1335216E-007  0.8764552E+03  0.7818608E-02  0.9455502E-01
         -1   -1    0    0    0  501 -0.00000000000E+00  0.00000000000E+00  0.15156241836E+04  0.15156241836E+04  0.00000000000E+00 0.  1.
          1   -1    0    0  501    0  0.00000000000E+00 -0.00000000000E+00 -0.52743110189E+03  0.52743110189E+03  0.00000000000E+00 0. -1.
         23    2    1    2    0    0 -0.25889709830E+03 -0.73660261022E+03  0.29943702388E+03  0.84143314827E+03  0.93467100368E+02 0.  0.
    5000000    2    1    2    0    0  0.25889709830E+03  0.73660261022E+03  0.68875605780E+03  0.12016221372E+04  0.59991644460E+03 0.  0.
         23    2    4    4    0    0  0.36094760916E+03  0.74695072185E+03  0.65266713205E+03  0.10592157756E+04  0.88006344671E+02 0.  0.
         23    2    4    4    0    0 -0.10205051086E+03 -0.10348111623E+02  0.36088925754E+02  0.14240636153E+03  0.91955266638E+02 0.  0.
          3    1    3    3  502    0 -0.18508645757E+03 -0.50426790352E+03  0.25090663244E+03  0.59287203805E+03  0.00000000000E+00 0. -1.
         -3    1    3    3    0  502 -0.73810640728E+02 -0.23233470671E+03  0.48530391434E+02  0.24856111023E+03  0.00000000000E+00 0.  1.
         11    1    5    5    0    0  0.31584863145E+03  0.70549420027E+03  0.60300040397E+03  0.98035295266E+03  0.00000000000E+00 0.  1.
        -11    1    5    5    0    0  0.45098977710E+02  0.41456521579E+02  0.49666728074E+02  0.78862822987E+02  0.00000000000E+00 0. -1.
          3    1    6    6  503    0  0.10268926754E+02  0.19048658150E+02  0.49160390042E+01  0.22191657745E+02  0.00000000000E+00 0. -1.
         -3    1    6    6    0  503 -0.11231943761E+03 -0.29396769773E+02  0.31172886750E+02  0.12021470379E+03  0.00000000000E+00 0.  1.
<mgrwt>
<rscale>  0 0.87645524E+03</rscale>
<asrwt>0</asrwt>
<pdfrwt beam="1">  1        1 0.81143247E-01 0.87645524E+03</pdfrwt>
<pdfrwt beam="2">  1       -1 0.23317295E+00 0.87645524E+03</pdfrwt>
<totfact> 0.37811385E+00</totfact>
</mgrwt>
</event>
<event>
12    1  0.1335216E-007  0.1473160E+04  0.7818608E-02  0.8902500E-01
          2   -1    0    0  501    0  0.00000000000E+00  0.00000000000E+00  0.22555247060E+04  0.22555247060E+04  0.00000000000E+00 0. -1.
         -2   -1    0    0    0  501 -0.00000000000E+00 -0.00000000000E+00 -0.11016075475E+04  0.11016075475E+04  0.00000000000E+00 0.  1.
         23    2    1    2    0    0 -0.11643241960E+04  0.81523678787E+03 -0.10280478036E+02  0.14243746606E+04  0.92063195446E+02 0.  0.
    5000000    2    1    2    0    0  0.11643241960E+04 -0.81523678787E+03  0.11641976365E+04  0.19327575929E+04  0.59994493300E+03 0.  0.
         23    2    4    4    0    0  0.65454945759E+02  0.63590119917E+02  0.14137217909E+03  0.19071129057E+03  0.89758843896E+02 0.  0.
         23    2    4    4    0    0  0.10988692502E+04 -0.87882690778E+03  0.10228254574E+04  0.17420463024E+04  0.93290087122E+02 0.  0.
          4    1    3    3  502    0 -0.48740863202E+03  0.39300546410E+03  0.12574531998E+02  0.62624163726E+03  0.00000000000E+00 0. -1.
         -4    1    3    3    0  502 -0.67691556395E+03  0.42223132377E+03 -0.22855010034E+02  0.79813302336E+03  0.00000000000E+00 0.  1.
         13    1    5    5    0    0 -0.13686675245E+02  0.72266900982E+01 -0.38823105159E+01  0.15956893933E+02  0.00000000000E+00 0.  1.
        -13    1    5    5    0    0  0.79141621004E+02  0.56363429818E+02  0.14525448960E+03  0.17475439664E+03  0.00000000000E+00 0. -1.
          1    1    6    6  503    0  0.87679862637E+03 -0.65481068889E+03  0.81108331706E+03  0.13621339937E+04  0.00000000000E+00 0. -1.
         -1    1    6    6    0  503  0.22207062383E+03 -0.22401621889E+03  0.21174214034E+03  0.37991230869E+03  0.00000000000E+00 0.  1.
<mgrwt>
<rscale>  0 0.14731605E+04</rscale>
<asrwt>0</asrwt>
<pdfrwt beam="1">  1        2 0.34700380E+00 0.14731605E+04</pdfrwt>
<pdfrwt beam="2">  1       -2 0.16947808E+00 0.14731605E+04</pdfrwt>
<totfact> 0.97545710E-01</totfact>
</mgrwt>
</event>
<event>
12    1  0.1335216E-007  0.7294779E+03  0.7818608E-02  0.9668108E-01
          2   -1    0    0  501    0  0.00000000000E+00  0.00000000000E+00  0.15945617737E+04  0.15945617737E+04  0.00000000000E+00 0. -1.
         -2   -1    0    0    0  501 -0.00000000000E+00 -0.00000000000E+00 -0.63277684701E+03  0.63277684701E+03  0.00000000000E+00 0.  1.
         23    2    1    2    0    0 -0.70914258543E+03 -0.85940891929E+02  0.10686821925E+04  0.12884678205E+04  0.88309979553E+02 0.  0.
    5000000    2    1    2    0    0  0.70914258543E+03  0.85940891929E+02 -0.10689726583E+03  0.93887080021E+03  0.59981856478E+03 0.  0.
         23    2    4    4    0    0  0.40012915240E+03  0.12640689313E+03  0.21704331929E+03  0.48055826073E+03  0.88013625500E+02 0.  0.
         23    2    4    4    0    0  0.30901343303E+03 -0.40466001202E+02 -0.32394058513E+03  0.45831253948E+03  0.89364881826E+02 0.  0.
          3    1    3    3  502    0 -0.24809851849E+03 -0.22935873454E+02  0.30071822640E+03  0.39052577489E+03  0.00000000000E+00 0. -1.
         -3    1    3    3    0  502 -0.46104406694E+03 -0.63005018475E+02  0.76796396613E+03  0.89794204562E+03  0.00000000000E+00 0.  1.
         13    1    5    5    0    0  0.26312340700E+03  0.11812161851E+03  0.17339060798E+03  0.33652778044E+03  0.00000000000E+00 0.  1.
        -13    1    5    5    0    0  0.13700574540E+03  0.82852746254E+01  0.43652711310E+02  0.14403048029E+03  0.00000000000E+00 0. -1.
          1    1    6    6  503    0  0.17730738919E+03  0.10385469935E+02 -0.13841155512E+03  0.22517443647E+03  0.00000000000E+00 0. -1.
         -1    1    6    6    0  503  0.13170604384E+03 -0.50851471137E+02 -0.18552903000E+03  0.23313810301E+03  0.00000000000E+00 0.  1.
<mgrwt>
<rscale>  0 0.72947795E+03</rscale>
<asrwt>0</asrwt>
<pdfrwt beam="1">  1        2 0.24531719E+00 0.72947795E+03</pdfrwt>
<pdfrwt beam="2">  1       -2 0.97350285E-01 0.72947795E+03</pdfrwt>
<totfact> 0.10174177E+01</totfact>
</mgrwt>
</event>
<event>
12    1  0.1335216E-007  0.7167479E+03  0.7818608E-02  0.9689012E-01
         -2   -1    0    0    0  501 -0.00000000000E+00  0.00000000000E+00  0.18006880887E+04  0.18006880887E+04  0.00000000000E+00 0.  1.
          2   -1    0    0  501    0  0.00000000000E+00 -0.00000000000E+00 -0.12513353600E+04  0.12513353600E+04  0.00000000000E+00 0. -1.
         23    2    1    2    0    0 -0.51990889741E+03 -0.43749853150E+03 -0.10264184059E+04  0.12343020188E+04  0.90865301385E+02 0.  0.
    5000000    2    1    2    0    0  0.51990889741E+03  0.43749853150E+03  0.15757711346E+04  0.18177214299E+04  0.59945500346E+03 0.  0.
         23    2    4    4    0    0  0.43865623661E+03  0.17612288755E+03  0.14008618048E+04  0.14812193466E+04  0.90323813922E+02 0.  0.
         23    2    4    4    0    0  0.81252660797E+02  0.26137564395E+03  0.17490932988E+03  0.33650208324E+03  0.87870109877E+02 0.  0.
          3    1    3    3  502    0 -0.39790790295E+03 -0.35489471853E+03 -0.86159981939E+03  0.10132300870E+04  0.00000000000E+00 0. -1.
         -3    1    3    3    0  502 -0.12200099446E+03 -0.82603812965E+02 -0.16481858653E+03  0.22107193180E+03  0.00000000000E+00 0.  1.
         11    1    5    5    0    0  0.90912276983E+02  0.42847528529E+02  0.19831421367E+03  0.22232741655E+03  0.00000000000E+00 0.  1.
        -11    1    5    5    0    0  0.34774395963E+03  0.13327535902E+03  0.12025475911E+04  0.12588919301E+04  0.00000000000E+00 0. -1.
          3    1    6    6  503    0  0.12919872303E+02  0.14146990186E+03  0.50719310078E+02  0.15084132274E+03  0.00000000000E+00 0. -1.
         -3    1    6    6    0  503  0.68332788494E+02  0.11990574209E+03  0.12419001980E+03  0.18566076049E+03  0.00000000000E+00 0.  1.
<mgrwt>
<rscale>  0 0.71674795E+03</rscale>
<asrwt>0</asrwt>
<pdfrwt beam="1">  1        2 0.19251313E+00 0.71674795E+03</pdfrwt>
<pdfrwt beam="2">  1       -2 0.27702894E+00 0.71674795E+03</pdfrwt>
<totfact> 0.81503349E-01</totfact>
</mgrwt>
</event>
<event>
12    1  0.1335216E-007  0.1941264E+04  0.7818608E-02  0.8634585E-01
         -2   -1    0    0    0  501 -0.00000000000E+00  0.00000000000E+00  0.99421055277E+03  0.99421055277E+03  0.00000000000E+00 0.  1.
          2   -1    0    0  501    0  0.00000000000E+00 -0.00000000000E+00 -0.46527760052E+04  0.46527760052E+04  0.00000000000E+00 0. -1.
         23    2    1    2    0    0 -0.17461290640E+04  0.76149767309E+03 -0.60975723766E+03  0.20022054414E+04  0.90428570926E+02 0.  0.
    5000000    2    1    2    0    0  0.17461290640E+04 -0.76149767309E+03 -0.30488082148E+04  0.36447811166E+04  0.60029363035E+03 0.  0.
         23    2    4    4    0    0  0.21161820938E+03  0.70470602550E+02 -0.48864888337E+03  0.54483485214E+03  0.91208072672E+02 0.  0.
         23    2    4    4    0    0  0.15345108547E+04 -0.83196827564E+03 -0.25601593314E+04  0.30999462644E+04  0.91412610146E+02 0.  0.
          3    1    3    3  502    0 -0.91336510467E+03  0.37170481011E+03 -0.27559247724E+03  0.10238903720E+04  0.00000000000E+00 0. -1.
         -3    1    3    3    0  502 -0.83276395937E+03  0.38979286298E+03 -0.33416476042E+03  0.97831506947E+03  0.00000000000E+00 0.  1.
         13    1    5    5    0    0  0.67411718383E+01  0.16783298520E+02 -0.83679944320E+01  0.19928518203E+02  0.00000000000E+00 0.  1.
        -13    1    5    5    0    0  0.20487703755E+03  0.53687304030E+02 -0.48028088894E+03  0.52490633394E+03  0.00000000000E+00 0. -1.
          1    1    6    6  503    0  0.64028566708E+03 -0.30628014828E+03 -0.10880893884E+04  0.12991196180E+04  0.00000000000E+00 0. -1.
         -1    1    6    6    0  503  0.89422518758E+03 -0.52568812735E+03 -0.14720699430E+04  0.18008266464E+04  0.00000000000E+00 0.  1.
<mgrwt>
<rscale>  0 0.19412637E+04</rscale>
<asrwt>0</asrwt>
<pdfrwt beam="1">  1        2 0.71581170E+00 0.19412637E+04</pdfrwt>
<pdfrwt beam="2">  1       -2 0.15295547E+00 0.19412637E+04</pdfrwt>
<totfact> 0.22455443E-02</totfact>
</mgrwt>
</event>
<event>
12    1  0.1394653E-007  0.7995547E+03  0.7818608E-02  0.9560662E-01
         -2   -1    0    0    0  501 -0.00000000000E+00  0.00000000000E+00  0.47294785519E+03  0.47294785519E+03  0.00000000000E+00 0. -1.
          2   -1    0    0  501    0  0.00000000000E+00 -0.00000000000E+00 -0.19111109596E+04  0.19111109596E+04  0.00000000000E+00 0.  1.
         23    2    1    2    0    0 -0.40789498721E+03  0.56288022560E+03 -0.29094509514E+02  0.70214842852E+03  0.94622704593E+02 0.  0.
    5000000    2    1    2    0    0  0.40789498721E+03 -0.56288022560E+03 -0.14090685949E+04  0.16819103863E+04  0.60011313381E+03 0.  0.
         23    2    4    4    0    0  0.87041242701E+02  0.10376139523E+03 -0.36446245809E+03  0.39864382201E+03  0.87985273767E+02 0.  0.
         23    2    4    4    0    0  0.32085374451E+03 -0.66664162083E+03 -0.10446061368E+04  0.12832665643E+04  0.90625150567E+02 0.  0.
          4    1    3    3  502    0 -0.26100941154E+03  0.41754207876E+03 -0.47492729628E+02  0.49469471375E+03  0.00000000000E+00 0.  1.
         -4    1    3    3    0  502 -0.14688557567E+03  0.14533814684E+03  0.18398220114E+02  0.20745371477E+03  0.00000000000E+00 0. -1.
         13    1    5    5    0    0 -0.58018667686E+01  0.53756028415E+02 -0.15449256499E+03  0.16368055745E+03  0.00000000000E+00 0. -1.
        -13    1    5    5    0    0  0.92843109470E+02  0.50005366812E+02 -0.20996989310E+03  0.23496326456E+03  0.00000000000E+00 0.  1.
          1    1    6    6  503    0  0.13979741653E+03 -0.25408909432E+03 -0.48171919405E+03  0.56227926108E+03  0.00000000000E+00 0. -1.
         -1    1    6    6    0  503  0.18105632798E+03 -0.41255252651E+03 -0.56288694277E+03  0.72098730320E+03  0.00000000000E+00 0.  1.
<mgrwt>
<rscale>  0 0.79955470E+03</rscale>
<asrwt>0</asrwt>
<pdfrwt beam="1">  1        2 0.29401708E+00 0.79955470E+03</pdfrwt>
<pdfrwt beam="2">  1       -2 0.72761207E-01 0.79955470E+03</pdfrwt>
<totfact> 0.13113792E+01</totfact>
</mgrwt>
</event>
<event>
12    1  0.1335216E-007  0.1115928E+04  0.7818608E-02  0.9189805E-01
         -2   -1    0    0    0  501 -0.00000000000E+00  0.00000000000E+00  0.54653392327E+03  0.54653392327E+03  0.00000000000E+00 0.  1.
          2   -1    0    0  501    0  0.00000000000E+00 -0.00000000000E+00 -0.24646841875E+04  0.24646841875E+04  0.00000000000E+00 0. -1.
         23    2    1    2    0    0  0.51553870181E+03  0.92061029462E+03 -0.59123517948E+03  0.12129015302E+04  0.90926437204E+02 0.  0.
    5000000    2    1    2    0    0 -0.51553870181E+03 -0.92061029462E+03 -0.13269150847E+04  0.17983165805E+04  0.59994617592E+03 0.  0.
         23    2    4    4    0    0 -0.30690100855E+03 -0.89662296744E+03 -0.88119008341E+03  0.12972150472E+04  0.90277022012E+02 0.  0.
         23    2    4    4    0    0 -0.20863769326E+03 -0.23987327186E+02 -0.44572500133E+03  0.50110153334E+03  0.91251799978E+02 0.  0.
          3    1    3    3  502    0  0.50271540351E+03  0.90828338382E+03 -0.59207211714E+03  0.11950945043E+04  0.00000000000E+00 0.  1.
         -3    1    3    3    0  502  0.12823298292E+02  0.12326910803E+02  0.83693766538E+00  0.17807025964E+02  0.00000000000E+00 0. -1.
         11    1    5    5    0    0 -0.18499139951E+03 -0.48279452449E+03 -0.42434674329E+03  0.66886660053E+03  0.00000000000E+00 0. -1.
        -11    1    5    5    0    0 -0.12190960904E+03 -0.41382844295E+03 -0.45684334012E+03  0.62834844663E+03  0.00000000000E+00 0.  1.
          1    1    6    6  503    0 -0.30549427559E+02  0.28571042483E+02 -0.10580647141E+03  0.11377425625E+03  0.00000000000E+00 0. -1.
         -1    1    6    6    0  503 -0.17808826570E+03 -0.52558369668E+02 -0.33991852992E+03  0.38732727710E+03  0.00000000000E+00 0.  1.
<mgrwt>
<rscale>  0 0.11159277E+04</rscale>
<asrwt>0</asrwt>
<pdfrwt beam="1">  1        2 0.37918219E+00 0.11159277E+04</pdfrwt>
<pdfrwt beam="2">  1       -2 0.84082141E-01 0.11159277E+04</pdfrwt>
<totfact> 0.44829224E+00</totfact>
</mgrwt>
</event>
<event>
12    1  0.1335216E-007  0.1403528E+04  0.7818608E-02  0.8951269E-01
         -1   -1    0    0    0  501 -0.00000000000E+00  0.00000000000E+00  0.11474602785E+04  0.11474602785E+04  0.00000000000E+00 0. -1.
          1   -1    0    0  501    0  0.00000000000E+00 -0.00000000000E+00 -0.18816213695E+04  0.18816213695E+04  0.00000000000E+00 0.  1.
         23    2    1    2    0    0  0.11861587694E+04 -0.71363210072E+03 -0.90007653156E+02  0.13886027483E+04  0.62231932164E+02 0.  0.
    5000000    2    1    2    0    0 -0.11861587694E+04  0.71363210072E+03 -0.64415343784E+03  0.16404788997E+04  0.59999497273E+03 0.  0.
         23    2    4    4    0    0 -0.25373938242E+03  0.32549214485E+02 -0.35406298291E+03  0.44631075646E+03  0.91594595440E+02 0.  0.
         23    2    4    4    0    0 -0.93241938701E+03  0.68108288624E+03 -0.29009045494E+03  0.11941681432E+04  0.92764600004E+02 0.  0.
          2    1    3    3  502    0  0.11821244341E+03 -0.64171960147E+02  0.86983147871E+01  0.13478828928E+03  0.00000000000E+00 0.  1.
         -2    1    3    3    0  502  0.10679463260E+04 -0.64946014057E+03 -0.98705967944E+02  0.12538144590E+04  0.00000000000E+00 0. -1.
         13    1    5    5    0    0 -0.22589742258E+03  0.62359916452E+01 -0.33344006328E+03  0.40280368534E+03  0.00000000000E+00 0.  1.
        -13    1    5    5    0    0 -0.27841959832E+02  0.26313222840E+02 -0.20622919624E+02  0.43507071118E+02  0.00000000000E+00 0. -1.
          2    1    6    6  503    0 -0.79049984540E+03  0.53411050964E+03 -0.24368982118E+03  0.98465667673E+03  0.00000000000E+00 0.  1.
         -2    1    6    6    0  503 -0.14191954162E+03  0.14697237659E+03 -0.46400633758E+02  0.20951146648E+03  0.00000000000E+00 0. -1.
<mgrwt>
<rscale>  0 0.14035283E+04</rscale>
<asrwt>0</asrwt>
<pdfrwt beam="1">  1        1 0.28948021E+00 0.14035283E+04</pdfrwt>
<pdfrwt beam="2">  1       -1 0.17653235E+00 0.14035283E+04</pdfrwt>
<totfact> 0.75686567E-01</totfact>
</mgrwt>
</event>
<event>
12    1  0.1335216E-007  0.4923051E+03  0.7818608E-02  0.1015807E+00
          2   -1    0    0  501    0  0.00000000000E+00  0.00000000000E+00  0.21530177613E+04  0.21530177613E+04  0.00000000000E+00 0. -1.
         -2   -1    0    0    0  501 -0.00000000000E+00 -0.00000000000E+00 -0.15860396525E+03  0.15860396525E+03  0.00000000000E+00 0.  1.
         23    2    1    2    0    0  0.30430347961E+03 -0.48900902422E+02  0.16299770439E+03  0.35994568262E+03  0.89446838061E+02 0.  0.
    5000000    2    1    2    0    0 -0.30430347961E+03  0.48900902422E+02  0.18314160917E+04  0.19516760440E+04  0.59996881063E+03 0.  0.
         23    2    4    4    0    0 -0.10118117749E+03 -0.25898340669E+03  0.71498228077E+03  0.77257604468E+03  0.91455165913E+02 0.  0.
         23    2    4    4    0    0 -0.20312230212E+03  0.30788430911E+03  0.11164338109E+04  0.11790999993E+04  0.88322911758E+02 0.  0.
          1    1    3    3  502    0  0.24879679438E+03 -0.62188232132E+02  0.16107075181E+03  0.30283825419E+03  0.00000000000E+00 0. -1.
         -1    1    3    3    0  502  0.55506685231E+02  0.13287329711E+02  0.19269525817E+01  0.57107428435E+02  0.00000000000E+00 0.  1.
         13    1    5    5    0    0 -0.37650865412E+02 -0.20754814741E+03  0.51972521651E+03  0.56089938656E+03  0.00000000000E+00 0.  1.
        -13    1    5    5    0    0 -0.63530312082E+02 -0.51435259280E+02  0.19525706426E+03  0.21167665812E+03  0.00000000000E+00 0. -1.
          2    1    6    6  503    0 -0.18558872545E+02  0.94380649031E+02  0.31986418830E+03  0.33401382849E+03  0.00000000000E+00 0.  1.
         -2    1    6    6    0  503 -0.18456342957E+03  0.21350366008E+03  0.79656962260E+03  0.84508617079E+03  0.00000000000E+00 0. -1.
<mgrwt>
<rscale>  0 0.49230508E+03</rscale>
<asrwt>0</asrwt>
<pdfrwt beam="1">  1        2 0.33123348E+00 0.49230508E+03</pdfrwt>
<pdfrwt beam="2">  1       -2 0.24400612E-01 0.49230508E+03</pdfrwt>
<totfact> 0.87743287E+01</totfact>
</mgrwt>
</event>
<event>
12    1  0.1335216E-007  0.8499982E+03  0.7818608E-02  0.9490339E-01
         -1   -1    0    0    0  501 -0.00000000000E+00  0.00000000000E+00  0.81084384480E+03  0.81084384480E+03  0.00000000000E+00 0.  1.
          1   -1    0    0  501    0  0.00000000000E+00 -0.00000000000E+00 -0.92483972091E+03  0.92483972091E+03  0.00000000000E+00 0. -1.
         23    2    1    2    0    0 -0.23145169116E+03  0.71432328046E+03  0.62292664538E+02  0.75849349907E+03  0.87203083202E+02 0.  0.
    5000000    2    1    2    0    0  0.23145169116E+03 -0.71432328046E+03 -0.17628854065E+03  0.97719006665E+03  0.59999595201E+03 0.  0.
         23    2    4    4    0    0  0.34516303936E+03 -0.19824763600E+03  0.91886592566E+01  0.40786740928E+03  0.88497136552E+02 0.  0.
         23    2    4    4    0    0 -0.11371134820E+03 -0.51607564447E+03 -0.18547719991E+03  0.56932265736E+03  0.10228467619E+03 0.  0.
          1    1    3    3  502    0 -0.22997158971E+02  0.16516818919E+03  0.35478925136E+02  0.17049385376E+03  0.00000000000E+00 0. -1.
         -1    1    3    3    0  502 -0.20845453219E+03  0.54915509127E+03  0.26813739402E+02  0.58799964531E+03  0.00000000000E+00 0.  1.
         13    1    5    5    0    0  0.51241175786E+02 -0.70806558922E+02  0.20387731378E+01  0.87426446103E+02  0.00000000000E+00 0. -1.
        -13    1    5    5    0    0  0.29392186357E+03 -0.12744107708E+03  0.71498861188E+01  0.32044096318E+03  0.00000000000E+00 0.  1.
          1    1    6    6  503    0 -0.40395883614E+02 -0.39116882224E+03 -0.12900481529E+03  0.41386847823E+03  0.00000000000E+00 0. -1.
         -1    1    6    6    0  503 -0.73315464584E+02 -0.12490682223E+03 -0.56472384621E+02  0.15545417914E+03  0.00000000000E+00 0.  1.
<mgrwt>
<rscale>  0 0.84999819E+03</rscale>
<asrwt>0</asrwt>
<pdfrwt beam="1">  1        1 0.14228303E+00 0.84999819E+03</pdfrwt>
<pdfrwt beam="2">  1       -1 0.12474521E+00 0.84999819E+03</pdfrwt>
<totfact> 0.99529380E+00</totfact>
</mgrwt>
</event>
<event>
12    1  0.1335216E-007  0.7037264E+03  0.7818608E-02  0.9710881E-01
         -2   -1    0    0    0  501 -0.00000000000E+00  0.00000000000E+00  0.63364684119E+03  0.63364684119E+03  0.00000000000E+00 0.  1.
          2   -1    0    0  501    0  0.00000000000E+00 -0.00000000000E+00 -0.81845605884E+03  0.81845605884E+03  0.00000000000E+00 0. -1.
         23    2    1    2    0    0  0.35829748366E+03  0.46823756236E+03 -0.11849405434E+03  0.60807957651E+03  0.89980158097E+02 0.  0.
    5000000    2    1    2    0    0 -0.35829748366E+03 -0.46823756236E+03 -0.66315163314E+02  0.84402332353E+03  0.60029506759E+03 0.  0.
         23    2    4    4    0    0 -0.29085673307E+03 -0.58644610311E+03 -0.11947550861E+03  0.67175864139E+03  0.92025018832E+02 0.  0.
         23    2    4    4    0    0 -0.67440750588E+02  0.11820854075E+03  0.53160345297E+02  0.17226468214E+03  0.91255599573E+02 0.  0.
          4    1    3    3  502    0  0.84453473919E+02  0.66529111253E+02 -0.44308829215E+02  0.11628320707E+03  0.00000000000E+00 0. -1.
         -4    1    3    3    0  502  0.27384400974E+03  0.40170845111E+03 -0.74185225125E+02  0.49179636943E+03  0.00000000000E+00 0.  1.
         13    1    5    5    0    0 -0.17065551437E+03 -0.37326371562E+03 -0.11788096448E+03  0.42701876747E+03  0.00000000000E+00 0.  1.
        -13    1    5    5    0    0 -0.12020121870E+03 -0.21318238750E+03 -0.15945441271E+01  0.24473987392E+03  0.00000000000E+00 0. -1.
          1    1    6    6  503    0 -0.17216874832E+02  0.10537949346E+03  0.55571518934E+02  0.12037214020E+03  0.00000000000E+00 0. -1.
         -1    1    6    6    0  503 -0.50223875756E+02  0.12829047299E+02 -0.24111736368E+01  0.51892541939E+02  0.00000000000E+00 0.  1.
<mgrwt>
<rscale>  0 0.70372641E+03</rscale>
<asrwt>0</asrwt>
<pdfrwt beam="1">  1        2 0.12591632E+00 0.70372641E+03</pdfrwt>
<pdfrwt beam="2">  1       -2 0.97484130E-01 0.70372641E+03</pdfrwt>
<totfact> 0.29855988E+01</totfact>
</mgrwt>
</event>
<event>
12    1  0.1335216E-007  0.6073066E+03  0.7818608E-02  0.9890362E-01
          1   -1    0    0  501    0  0.00000000000E+00  0.00000000000E+00  0.49140330038E+03  0.49140330038E+03  0.00000000000E+00 0. -1.
         -1   -1    0    0    0  501 -0.00000000000E+00 -0.00000000000E+00 -0.81763804224E+03  0.81763804224E+03  0.00000000000E+00 0.  1.
         23    2    1    2    0    0  0.36447896909E+03  0.31624225298E+03 -0.54782317892E+02  0.49248012248E+03  0.81740364619E+02 0.  0.
    5000000    2    1    2    0    0 -0.36447896909E+03 -0.31624225298E+03 -0.27145242397E+03  0.81656122014E+03  0.60019307417E+03 0.  0.
         23    2    4    4    0    0 -0.13531402481E+03 -0.42515936029E+03 -0.34348706966E+02  0.45710254647E+03  0.93233778021E+02 0.  0.
         23    2    4    4    0    0 -0.22916494428E+03  0.10891710731E+03 -0.23710371700E+03  0.35945867367E+03  0.92805482120E+02 0.  0.
          3    1    3    3  502    0  0.47370440267E+02  0.99639317084E+01 -0.90648147173E+01  0.49248445783E+02  0.00000000000E+00 0. -1.
         -3    1    3    3    0  502  0.31710852882E+03  0.30627832127E+03 -0.45717503174E+02  0.44323167670E+03  0.00000000000E+00 0.  1.
         13    1    5    5    0    0 -0.13484967910E+03 -0.28197136784E+03 -0.20006066264E+02  0.31319727158E+03  0.00000000000E+00 0.  1.
        -13    1    5    5    0    0 -0.46434570571E+00 -0.14318799245E+03 -0.14342640701E+02  0.14390527489E+03  0.00000000000E+00 0. -1.
          4    1    6    6  503    0 -0.15888130852E+03  0.26165682929E+02 -0.12998282185E+03  0.20693826890E+03  0.00000000000E+00 0. -1.
         -4    1    6    6    0  503 -0.70283635752E+02  0.82751424383E+02 -0.10712089515E+03  0.15252040477E+03  0.00000000000E+00 0.  1.
<mgrwt>
<rscale>  0 0.60730656E+03</rscale>
<asrwt>0</asrwt>
<pdfrwt beam="1">  1        1 0.75600508E-01 0.60730656E+03</pdfrwt>
<pdfrwt beam="2">  1       -1 0.12579047E+00 0.60730656E+03</pdfrwt>
<totfact> 0.26036501E+01</totfact>
</mgrwt>
</event>
<event>
12    1  0.1335216E-007  0.6230199E+03  0.7818608E-02  0.9858765E-01
         -2   -1    0    0    0  501 -0.00000000000E+00  0.00000000000E+00  0.37381996058E+03  0.37381996058E+03  0.00000000000E+00 0.  1.
          2   -1    0    0  501    0  0.00000000000E+00 -0.00000000000E+00 -0.14350480074E+04  0.14350480074E+04  0.00000000000E+00 0. -1.
         23    2    1    2    0    0  0.20560248984E+03  0.48605901707E+03 -0.77212084952E+02  0.54126153452E+03  0.92068402724E+02 0.  0.
    5000000    2    1    2    0    0 -0.20560248984E+03 -0.48605901707E+03 -0.98401596190E+03  0.12676064335E+04  0.60001075413E+03 0.  0.
         23    2    4    4    0    0  0.94256938788E+02 -0.38833662008E+03 -0.78003808293E+03  0.88124893890E+03  0.91927038931E+02 0.  0.
         23    2    4    4    0    0 -0.29985942863E+03 -0.97722396992E+02 -0.20397787896E+03  0.38635749460E+03  0.90552717872E+02 0.  0.
          1    1    3    3  502    0  0.16762270887E+03  0.43096914530E+03 -0.94884982357E+02  0.47205395519E+03  0.00000000000E+00 0. -1.
         -1    1    3    3    0  502  0.37979780965E+02  0.55089871770E+02  0.17672897405E+02  0.69207579328E+02  0.00000000000E+00 0.  1.
         13    1    5    5    0    0  0.45910698200E+02 -0.18867229855E+03 -0.47832912143E+03  0.51624003802E+03  0.00000000000E+00 0.  1.
        -13    1    5    5    0    0  0.48346240587E+02 -0.19966432153E+03 -0.30170896151E+03  0.36500890088E+03  0.00000000000E+00 0. -1.
          3    1    6    6  503    0 -0.78652293511E+02 -0.41159855684E+02 -0.15123058344E+02  0.90050118757E+02  0.00000000000E+00 0. -1.
         -3    1    6    6    0  503 -0.22120713511E+03 -0.56562541308E+02 -0.18885482062E+03  0.29630737584E+03  0.00000000000E+00 0.  1.
<mgrwt>
<rscale>  0 0.62301992E+03</rscale>
<asrwt>0</asrwt>
<pdfrwt beam="1">  1        2 0.22077661E+00 0.62301992E+03</pdfrwt>
<pdfrwt beam="2">  1       -2 0.57510764E-01 0.62301992E+03</pdfrwt>
<totfact> 0.40573717E+01</totfact>
</mgrwt>
</event>
<event>
12    1  0.1335216E-007  0.4522559E+03  0.7818608E-02  0.1027051E+00
          2   -1    0    0  501    0  0.00000000000E+00  0.00000000000E+00  0.13195379550E+04  0.13195379550E+04  0.00000000000E+00 0. -1.
         -2   -1    0    0    0  501 -0.00000000000E+00 -0.00000000000E+00 -0.20622984359E+03  0.20622984359E+03  0.00000000000E+00 0.  1.
         23    2    1    2    0    0  0.31136147400E+03  0.13604073862E+03  0.42242475820E+03  0.54971758113E+03  0.91069712957E+02 0.  0.
    5000000    2    1    2    0    0 -0.31136147400E+03 -0.13604073862E+03  0.69088335322E+03  0.97605021747E+03  0.59991763535E+03 0.  0.
         23    2    4    4    0    0  0.73346819141E+02 -0.14863489691E+03  0.10295256952E+02  0.18886884047E+03  0.89963093127E+02 0.  0.
         23    2    4    4    0    0 -0.38470829314E+03  0.12594158296E+02  0.68058809627E+03  0.78718137700E+03  0.91078427097E+02 0.  0.
          3    1    3    3  502    0  0.15790691291E+03  0.78633432876E+02  0.14874861464E+03  0.23074652818E+03  0.00000000000E+00 0. -1.
         -3    1    3    3    0  502  0.15345456109E+03  0.57407305741E+02  0.27367614355E+03  0.31897105295E+03  0.00000000000E+00 0.  1.
         13    1    5    5    0    0  0.80142279146E+02 -0.12650981662E+03  0.36260342044E+02  0.15408546659E+03  0.00000000000E+00 0. -1.
        -13    1    5    5    0    0 -0.67954600049E+01 -0.22125080292E+02 -0.25965085092E+02  0.34783373880E+02  0.00000000000E+00 0.  1.
          2    1    6    6  503    0 -0.35266095442E+03 -0.89063990237E+01  0.64239920977E+03  0.73288868011E+03  0.00000000000E+00 0. -1.
         -2    1    6    6    0  503 -0.32047338718E+02  0.21500557320E+02  0.38188886496E+02  0.54292696892E+02  0.00000000000E+00 0.  1.
<mgrwt>
<rscale>  0 0.45225588E+03</rscale>
<asrwt>0</asrwt>
<pdfrwt beam="1">  1        2 0.20300583E+00 0.45225588E+03</pdfrwt>
<pdfrwt beam="2">  1       -2 0.31727669E-01 0.45225588E+03</pdfrwt>
<totfact> 0.15508944E+02</totfact>
</mgrwt>
</event>
<event>
12    1  0.1335216E-007  0.9314993E+03  0.7818608E-02  0.9387040E-01
         -1   -1    0    0    0  501 -0.00000000000E+00  0.00000000000E+00  0.17724364985E+04  0.17724364985E+04  0.00000000000E+00 0.  1.
          1   -1    0    0  501    0  0.00000000000E+00 -0.00000000000E+00 -0.56474837508E+03  0.56474837508E+03  0.00000000000E+00 0. -1.
         23    2    1    2    0    0  0.72399873656E+03 -0.46372107996E+03  0.89170139509E+03  0.12421704037E+04  0.92975929085E+02 0.  0.
    5000000    2    1    2    0    0 -0.72399873656E+03  0.46372107996E+03  0.31598672834E+03  0.10950144698E+04  0.59999805510E+03 0.  0.
         23    2    4    4    0    0 -0.37592148393E+02  0.26813242446E+03 -0.45480613271E+02  0.28976665305E+03  0.92671788431E+02 0.  0.
         23    2    4    4    0    0 -0.68640658817E+03  0.19558865550E+03  0.36146734161E+03  0.80524781678E+03  0.91413789667E+02 0.  0.
          3    1    3    3  502    0  0.53732091186E+02 -0.61657561901E+02  0.10632881727E+03  0.13414398959E+03  0.00000000000E+00 0. -1.
         -3    1    3    3    0  502  0.67026664537E+03 -0.40206351806E+03  0.78537257783E+03  0.11080264142E+04  0.00000000000E+00 0.  1.
         11    1    5    5    0    0 -0.61435369945E+02  0.17268608282E+03 -0.53839856253E+02  0.19103276683E+03  0.00000000000E+00 0. -1.
        -11    1    5    5    0    0  0.23843221552E+02  0.95446341639E+02  0.83592429819E+01  0.98733886226E+02  0.00000000000E+00 0.  1.
          2    1    6    6  503    0 -0.22849925572E+03  0.27479586133E+02  0.90933039800E+02  0.24745879505E+03  0.00000000000E+00 0.  1.
         -2    1    6    6    0  503 -0.45790733245E+03  0.16810906937E+03  0.27053430181E+03  0.55778902173E+03  0.00000000000E+00 0. -1.
<mgrwt>
<rscale>  0 0.93149926E+03</rscale>
<asrwt>0</asrwt>
<pdfrwt beam="1">  1        1 0.86884366E-01 0.93149926E+03</pdfrwt>
<pdfrwt beam="2">  1       -1 0.27268254E+00 0.93149926E+03</pdfrwt>
<totfact> 0.18915588E+00</totfact>
</mgrwt>
</event>
<event>
12    1  0.1335216E-007  0.4671443E+03  0.7818608E-02  0.1022729E+00
          1   -1    0    0  501    0  0.00000000000E+00  0.00000000000E+00  0.95157088101E+03  0.95157088101E+03  0.00000000000E+00 0. -1.
         -1   -1    0    0    0  501 -0.00000000000E+00 -0.00000000000E+00 -0.25620169989E+03  0.25620169989E+03  0.00000000000E+00 0.  1.
         23    2    1    2    0    0 -0.11921701594E+03 -0.26197596482E+03  0.10895261953E+03  0.32091004651E+03  0.90931191654E+02 0.  0.
    5000000    2    1    2    0    0  0.11921701594E+03  0.26197596482E+03  0.58641656158E+03  0.88686253439E+03  0.59983053288E+03 0.  0.
         23    2    4    4    0    0 -0.53735703973E+02 -0.16501264365E+03  0.17693565947E+03  0.26340979469E+03  0.89228884910E+02 0.  0.
         23    2    4    4    0    0  0.17295271992E+03  0.42698860847E+03  0.40948090212E+03  0.62345273970E+03  0.93737902432E+02 0.  0.
          3    1    3    3  502    0 -0.98449006489E+02 -0.12392707056E+03  0.31900221546E+02  0.16145510159E+03  0.00000000000E+00 0. -1.
         -3    1    3    3    0  502 -0.20768009455E+02 -0.13804889426E+03  0.77052397989E+02  0.15945494492E+03  0.00000000000E+00 0.  1.
         11    1    5    5    0    0 -0.50762042648E+02 -0.12030294637E+03  0.17528151225E+03  0.21857079497E+03  0.00000000000E+00 0.  1.
        -11    1    5    5    0    0 -0.29736613249E+01 -0.44709697286E+02  0.16541472200E+01  0.44838999722E+02  0.00000000000E+00 0. -1.
          3    1    6    6  503    0  0.34264854190E+02  0.10485711697E+03  0.49631700257E+02  0.12096446123E+03  0.00000000000E+00 0. -1.
         -3    1    6    6    0  503  0.13868786573E+03  0.32213149151E+03  0.35984920186E+03  0.50248827847E+03  0.00000000000E+00 0.  1.
<mgrwt>
<rscale>  0 0.46714433E+03</rscale>
<asrwt>0</asrwt>
<pdfrwt beam="1">  1        1 0.14639552E+00 0.46714433E+03</pdfrwt>
<pdfrwt beam="2">  1       -1 0.39415647E-01 0.46714433E+03</pdfrwt>
<totfact> 0.10828470E+02</totfact>
</mgrwt>
</event>
<event>
12    1  0.1335216E-007  0.8514388E+03  0.7818608E-02  0.9488408E-01
         -1   -1    0    0    0  501 -0.00000000000E+00  0.00000000000E+00  0.45237071003E+03  0.45237071003E+03  0.00000000000E+00 0.  1.
          1   -1    0    0  501    0  0.00000000000E+00 -0.00000000000E+00 -0.19605494094E+04  0.19605494094E+04  0.00000000000E+00 0. -1.
         23    2    1    2    0    0 -0.73583339902E+03 -0.15828822298E+03 -0.11672790428E+04  0.13918230494E+04  0.90139250000E+02 0.  0.
    5000000    2    1    2    0    0  0.73583339902E+03  0.15828822298E+03 -0.34089965663E+03  0.10210970701E+04  0.59993391140E+03 0.  0.
         23    2    4    4    0    0  0.52777678214E+02 -0.16803093924E+03 -0.91377370845E+02  0.21835012828E+03  0.91143155306E+02 0.  0.
         23    2    4    4    0    0  0.68305572080E+03  0.32631916222E+03 -0.24952228578E+03  0.80274694182E+03  0.95351812508E+02 0.  0.
          4    1    3    3  502    0 -0.28710540989E+03 -0.79436716007E+02 -0.53739955575E+03  0.61444120203E+03  0.00000000000E+00 0. -1.
         -4    1    3    3    0  502 -0.44872798913E+03 -0.78851506974E+02 -0.62987948703E+03  0.77738184733E+03  0.00000000000E+00 0.  1.
         11    1    5    5    0    0  0.65603690600E+02 -0.98173307483E+02 -0.87969847557E+02  0.14724312073E+03  0.00000000000E+00 0.  1.
        -11    1    5    5    0    0 -0.12826012386E+02 -0.69857631758E+02 -0.34075232881E+01  0.71107007556E+02  0.00000000000E+00 0. -1.
          4    1    6    6  503    0  0.46347857454E+03  0.18429189659E+03 -0.13135407377E+03  0.51578075275E+03  0.00000000000E+00 0. -1.
         -4    1    6    6    0  503  0.21957714627E+03  0.14202726563E+03 -0.11816821201E+03  0.28696618908E+03  0.00000000000E+00 0.  1.
<mgrwt>
<rscale>  0 0.85143881E+03</rscale>
<asrwt>0</asrwt>
<pdfrwt beam="1">  1        1 0.30162299E+00 0.85143881E+03</pdfrwt>
<pdfrwt beam="2">  1       -1 0.69595493E-01 0.85143881E+03</pdfrwt>
<totfact> 0.68233566E+00</totfact>
</mgrwt>
</event>
<event>
12    1  0.1335216E-007  0.5347995E+03  0.7818608E-02  0.1005075E+00
         -2   -1    0    0    0  501 -0.00000000000E+00  0.00000000000E+00  0.16630549084E+04  0.16630549084E+04  0.00000000000E+00 0.  1.
          2   -1    0    0  501    0  0.00000000000E+00 -0.00000000000E+00 -0.24859656182E+03  0.24859656182E+03  0.00000000000E+00 0. -1.
         23    2    1    2    0    0  0.36954076965E+03 -0.32338566623E+03  0.68069103415E+03  0.84414102266E+03  0.89972843729E+02 0.  0.
    5000000    2    1    2    0    0 -0.36954076965E+03  0.32338566623E+03  0.73376731245E+03  0.10675104476E+04  0.60002118072E+03 0.  0.
         23    2    4    4    0    0 -0.24773925769E+03  0.44965603687E+02  0.70019380599E+03  0.74941608301E+03  0.89198958579E+02 0.  0.
         23    2    4    4    0    0 -0.12180151196E+03  0.27842006254E+03  0.33573506453E+02  0.31809436456E+03  0.87769612557E+02 0.  0.
          1    1    3    3  502    0  0.11071846422E+03 -0.60830735122E+02  0.22443393935E+03  0.25754523833E+03  0.00000000000E+00 0.  1.
         -1    1    3    3    0  502  0.25882230543E+03 -0.26255493111E+03  0.45625709480E+03  0.58659578433E+03  0.00000000000E+00 0. -1.
         13    1    5    5    0    0 -0.19889043229E+03  0.70386102153E+02  0.52634773053E+03  0.56705691148E+03  0.00000000000E+00 0. -1.
        -13    1    5    5    0    0 -0.48848825404E+02 -0.25420498466E+02  0.17384607547E+03  0.18235917153E+03  0.00000000000E+00 0.  1.
          2    1    6    6  503    0 -0.87295082690E+02  0.13300796703E+03  0.52308141596E+02  0.16747445307E+03  0.00000000000E+00 0. -1.
         -2    1    6    6    0  503 -0.34506429268E+02  0.14541209551E+03 -0.18734635143E+02  0.15061991149E+03  0.00000000000E+00 0.  1.
<mgrwt>
<rscale>  0 0.53479946E+03</rscale>
<asrwt>0</asrwt>
<pdfrwt beam="1">  1        2 0.38245626E-01 0.53479946E+03</pdfrwt>
<pdfrwt beam="2">  1       -2 0.25585459E+00 0.53479946E+03</pdfrwt>
<totfact> 0.84672426E+00</totfact>
</mgrwt>
</event>
<event>
12    1  0.1335216E-007  0.6966052E+03  0.7818608E-02  0.9723055E-01
         -2   -1    0    0    0  501 -0.00000000000E+00  0.00000000000E+00  0.50844737784E+03  0.50844737784E+03  0.00000000000E+00 0.  1.
          2   -1    0    0  501    0  0.00000000000E+00 -0.00000000000E+00 -0.15709427093E+04  0.15709427093E+04  0.00000000000E+00 0. -1.
         23    2    1    2    0    0  0.50836319536E+03 -0.27748205841E+03 -0.10979251198E+04  0.12446871949E+04  0.91527117239E+02 0.  0.
    5000000    2    1    2    0    0 -0.50836319536E+03  0.27748205841E+03  0.35429788391E+02  0.83470289226E+03  0.60003684662E+03 0.  0.
         23    2    4    4    0    0 -0.11060375672E+03  0.37867883443E+03 -0.41557144316E+02  0.40706632212E+03  0.91351758129E+02 0.  0.
         23    2    4    4    0    0 -0.39775943864E+03 -0.10119677603E+03  0.76986932707E+02  0.42763657014E+03  0.92155790945E+02 0.  0.
          1    1    3    3  502    0  0.51597601989E+02 -0.47080699815E+02 -0.85977669042E+02  0.11077483649E+03  0.00000000000E+00 0.  1.
         -1    1    3    3    0  502  0.45676559337E+03 -0.23040135859E+03 -0.10119474508E+04  0.11339123584E+04  0.00000000000E+00 0. -1.
         13    1    5    5    0    0 -0.32661550148E+02  0.22841168524E+03 -0.55177177593E+02  0.23724079695E+03  0.00000000000E+00 0. -1.
        -13    1    5    5    0    0 -0.77942206571E+02  0.15026714920E+03  0.13620033277E+02  0.16982552517E+03  0.00000000000E+00 0.  1.
          4    1    6    6  503    0 -0.28303379046E+03 -0.56385402308E+02  0.13115109145E+02  0.28889348595E+03  0.00000000000E+00 0. -1.
         -4    1    6    6    0  503 -0.11472564818E+03 -0.44811373719E+02  0.63871823562E+02  0.13874308419E+03  0.00000000000E+00 0.  1.
<mgrwt>
<rscale>  0 0.69660520E+03</rscale>
<asrwt>0</asrwt>
<pdfrwt beam="1">  1        2 0.24168349E+00 0.69660520E+03</pdfrwt>
<pdfrwt beam="2">  1       -2 0.78222674E-01 0.69660520E+03</pdfrwt>
<totfact> 0.17383600E+01</totfact>
</mgrwt>
</event>
<event>
12    1  0.1335216E-007  0.1166267E+04  0.7818608E-02  0.9142906E-01
         -1   -1    0    0    0  501 -0.00000000000E+00  0.00000000000E+00  0.94711375528E+03  0.94711375528E+03  0.00000000000E+00 0.  1.
          1   -1    0    0  501    0  0.00000000000E+00 -0.00000000000E+00 -0.22239274736E+04  0.22239274736E+04  0.00000000000E+00 0. -1.
         23    2    1    2    0    0 -0.28954491511E+03 -0.10517817799E+04 -0.15490603926E+04  0.18966309315E+04  0.86830984817E+02 0.  0.
    5000000    2    1    2    0    0  0.28954491511E+03  0.10517817799E+04  0.27224667428E+03  0.12744102974E+04  0.59993515005E+03 0.  0.
         23    2    4    4    0    0  0.35520172673E+03  0.10677453991E+04  0.24507880467E+03  0.11557610857E+04  0.97321954301E+02 0.  0.
         23    2    4    4    0    0 -0.65656811620E+02 -0.15963619275E+02  0.27167869611E+02  0.11864921169E+03  0.93669035675E+02 0.  0.
          1    1    3    3  502    0 -0.22676898429E+03 -0.75995801550E+03 -0.11840260096E+04  0.14250887512E+04  0.00000000000E+00 0. -1.
         -1    1    3    3    0  502 -0.62775930814E+02 -0.29182376436E+03 -0.36503438307E+03  0.47154218025E+03  0.00000000000E+00 0.  1.
         13    1    5    5    0    0  0.29133005800E+02  0.57671760249E+02  0.36000150305E+02  0.73964686027E+02  0.00000000000E+00 0. -1.
        -13    1    5    5    0    0  0.32606872093E+03  0.10100736389E+04  0.20907865436E+03  0.10817963997E+04  0.00000000000E+00 0.  1.
          4    1    6    6  503    0 -0.74710509344E+02  0.20426746555E+02  0.23659703316E+02  0.80985762590E+02  0.00000000000E+00 0.  1.
         -4    1    6    6    0  503  0.90536977248E+01 -0.36390365830E+02  0.35081662949E+01  0.37663449105E+02  0.00000000000E+00 0. -1.
<mgrwt>
<rscale>  0 0.11662671E+04</rscale>
<asrwt>0</asrwt>
<pdfrwt beam="1">  1        1 0.34214269E+00 0.11662671E+04</pdfrwt>
<pdfrwt beam="2">  1       -1 0.14570981E+00 0.11662671E+04</pdfrwt>
<totfact> 0.78273342E-01</totfact>
</mgrwt>
</event>
<event>
12    1  0.1335216E-007  0.1006154E+04  0.7818608E-02  0.9301821E-01
         -1   -1    0    0    0  501 -0.00000000000E+00  0.00000000000E+00  0.86285701023E+03  0.86285701023E+03  0.00000000000E+00 0.  1.
          1   -1    0    0  501    0  0.00000000000E+00 -0.00000000000E+00 -0.15503429503E+04  0.15503429503E+04  0.00000000000E+00 0. -1.
         23    2    1    2    0    0 -0.89302536065E+03  0.44519633440E+03 -0.74332591815E+03  0.12475375749E+04  0.90124964939E+02 0.  0.
    5000000    2    1    2    0    0  0.89302536065E+03 -0.44519633440E+03  0.55839978034E+02  0.11656623857E+04  0.59996385164E+03 0.  0.
         23    2    4    4    0    0  0.45944768617E+03 -0.18291945049E+03 -0.25527001225E+03  0.56406491166E+03  0.91949680300E+02 0.  0.
         23    2    4    4    0    0  0.43357767447E+03 -0.26227688391E+03  0.31110999028E+03  0.60159747400E+03  0.91385617240E+02 0.  0.
          2    1    3    3  502    0 -0.75725091545E+03  0.37403902281E+03 -0.58664670950E+03  0.10283425992E+04  0.00000000000E+00 0. -1.
         -2    1    3    3    0  502 -0.13577444520E+03  0.71157311585E+02 -0.15667920864E+03  0.21919497572E+03  0.00000000000E+00 0.  1.
         11    1    5    5    0    0  0.21042613939E+03 -0.13297301113E+03 -0.13188273373E+03  0.28169848647E+03  0.00000000000E+00 0. -1.
        -11    1    5    5    0    0  0.24902154678E+03 -0.49946439365E+02 -0.12338727852E+03  0.28236642518E+03  0.00000000000E+00 0.  1.
          3    1    6    6  503    0  0.93056116186E+02 -0.91793389661E+02  0.11058123483E+03  0.17121237292E+03  0.00000000000E+00 0. -1.
         -3    1    6    6    0  503  0.34052155829E+03 -0.17048349425E+03  0.20052875546E+03  0.43038510108E+03  0.00000000000E+00 0.  1.
<mgrwt>
<rscale>  0 0.10061541E+04</rscale>
<asrwt>0</asrwt>
<pdfrwt beam="1">  1        1 0.23851430E+00 0.10061541E+04</pdfrwt>
<pdfrwt beam="2">  1       -1 0.13274723E+00 0.10061541E+04</pdfrwt>
<totfact> 0.29180858E+00</totfact>
</mgrwt>
</event>
<event>
12    1  0.1335216E-007  0.1093375E+04  0.7818608E-02  0.9211673E-01
          2   -1    0    0  501    0  0.00000000000E+00  0.00000000000E+00  0.79250951394E+03  0.79250951394E+03  0.00000000000E+00 0.  1.
         -2   -1    0    0    0  501 -0.00000000000E+00 -0.00000000000E+00 -0.15905442730E+04  0.15905442730E+04  0.00000000000E+00 0. -1.
         23    2    1    2    0    0 -0.89537017556E+03 -0.49814190734E+03 -0.18063656430E+03  0.10447830256E+04  0.95440510308E+02 0.  0.
    5000000    2    1    2    0    0  0.89537017556E+03  0.49814190734E+03 -0.61739819473E+03  0.13382707613E+04  0.59996248939E+03 0.  0.
         23    2    4    4    0    0  0.58954938762E+01  0.23181271264E+03 -0.84975202362E+02  0.26326858006E+03  0.91201258987E+02 0.  0.
         23    2    4    4    0    0  0.88947468168E+03  0.26632919471E+03 -0.53242299236E+03  0.10750021813E+04  0.10029455449E+03 0.  0.
          4    1    3    3  502    0 -0.41673837580E+03 -0.20261110291E+03 -0.40993739947E+02  0.46519094961E+03  0.00000000000E+00 0. -1.
         -4    1    3    3    0  502 -0.47863179976E+03 -0.29553080444E+03 -0.13964282436E+03  0.57959207595E+03  0.00000000000E+00 0.  1.
         13    1    5    5    0    0 -0.37509407411E+01  0.67872324515E+02 -0.71245768616E+02  0.98471729635E+02  0.00000000000E+00 0. -1.
        -13    1    5    5    0    0  0.96464346172E+01  0.16394038812E+03 -0.13729433746E+02  0.16479685042E+03  0.00000000000E+00 0.  1.
          3    1    6    6  503    0  0.69206831419E+03  0.21464505963E+03 -0.46097687958E+03  0.85879609724E+03  0.00000000000E+00 0. -1.
         -3    1    6    6    0  503  0.19740636749E+03  0.51684135079E+02 -0.71446112787E+02  0.21620608405E+03  0.00000000000E+00 0.  1.
<mgrwt>
<rscale>  0 0.10933749E+04</rscale>
<asrwt>0</asrwt>
<pdfrwt beam="1">  1        2 0.12192454E+00 0.10933749E+04</pdfrwt>
<pdfrwt beam="2">  1       -2 0.24469912E+00 0.10933749E+04</pdfrwt>
<totfact> 0.23847050E+00</totfact>
</mgrwt>
</event>
<event>
12    1  0.1335216E-007  0.1115336E+04  0.7818608E-02  0.9190372E-01
          1   -1    0    0  501    0  0.00000000000E+00  0.00000000000E+00  0.17479858060E+04  0.17479858060E+04  0.00000000000E+00 0. -1.
         -1   -1    0    0    0  501 -0.00000000000E+00 -0.00000000000E+00 -0.72463971421E+03  0.72463971421E+03  0.00000000000E+00 0.  1.
         23    2    1    2    0    0  0.99468272014E+03 -0.31383390149E+03  0.45157035930E+03  0.11402017168E+04  0.90877578200E+02 0.  0.
    5000000    2    1    2    0    0 -0.99468272014E+03  0.31383390149E+03  0.57177573247E+03  0.13324238034E+04  0.60045005790E+03 0.  0.
         23    2    4    4    0    0 -0.99940799147E+03  0.16063520744E+03  0.53457929362E+03  0.11482869848E+04  0.90376849603E+02 0.  0.
         23    2    4    4    0    0  0.47252713292E+01  0.15319869405E+03  0.37196438851E+02  0.18413681858E+03  0.95029599841E+02 0.  0.
          2    1    3    3  502    0  0.33071395106E+03 -0.96726908729E+02  0.19561728471E+03  0.39622460092E+03  0.00000000000E+00 0. -1.
         -2    1    3    3    0  502  0.66396876908E+03 -0.21710699276E+03  0.25595307459E+03  0.74397711592E+03  0.00000000000E+00 0.  1.
         13    1    5    5    0    0 -0.32701895336E+03  0.27549684180E+02  0.13477293461E+03  0.35477334293E+03  0.00000000000E+00 0.  1.
        -13    1    5    5    0    0 -0.67238903811E+03  0.13308552326E+03  0.39980635902E+03  0.79351364184E+03  0.00000000000E+00 0. -1.
          2    1    6    6  503    0 -0.35102151941E+02  0.36583060341E+02 -0.10892678139E+02  0.51856839587E+02  0.00000000000E+00 0. -1.
         -2    1    6    6    0  503  0.39827423271E+02  0.11661563371E+03  0.48089116991E+02  0.13227997900E+03  0.00000000000E+00 0.  1.
<mgrwt>
<rscale>  0 0.11153358E+04</rscale>
<asrwt>0</asrwt>
<pdfrwt beam="1">  1        1 0.26892089E+00 0.11153358E+04</pdfrwt>
<pdfrwt beam="2">  1       -1 0.11148303E+00 0.11153358E+04</pdfrwt>
<totfact> 0.32467010E+00</totfact>
</mgrwt>
</event>
<event>
12    1  0.1335216E-007  0.1107060E+04  0.7818608E-02  0.9198338E-01
         -2   -1    0    0    0  501 -0.00000000000E+00  0.00000000000E+00  0.11038360875E+04  0.11038360875E+04  0.00000000000E+00 0.  1.
          2   -1    0    0  501    0  0.00000000000E+00 -0.00000000000E+00 -0.12080627196E+04  0.12080627196E+04  0.00000000000E+00 0. -1.
         23    2    1    2    0    0 -0.49815434688E+03  0.93215523711E+03  0.14696706242E+03  0.10711504626E+04  0.93235490528E+02 0.  0.
    5000000    2    1    2    0    0  0.49815434688E+03 -0.93215523711E+03 -0.25119369451E+03  0.12407483446E+04  0.59940557475E+03 0.  0.
         23    2    4    4    0    0  0.51462665225E+03 -0.96679330231E+03 -0.16696560127E+03  0.11113893375E+04  0.88197885346E+02 0.  0.
         23    2    4    4    0    0 -0.16472305371E+02  0.34638065198E+02 -0.84228093234E+02  0.12935900705E+03  0.90378363616E+02 0.  0.
          3    1    3    3  502    0 -0.42932355008E+03  0.78620838983E+03  0.91198947918E+02  0.90042189611E+03  0.00000000000E+00 0. -1.
         -3    1    3    3    0  502 -0.68830796798E+02  0.14594684728E+03  0.55768114500E+02  0.17072856649E+03  0.00000000000E+00 0.  1.
         11    1    5    5    0    0  0.26491714825E+03 -0.49875022121E+03 -0.41496191817E+02  0.56626390714E+03  0.00000000000E+00 0.  1.
        -11    1    5    5    0    0  0.24970950400E+03 -0.46804308109E+03 -0.12546940946E+03  0.54512543039E+03  0.00000000000E+00 0. -1.
          3    1    6    6  503    0  0.16666410925E+02  0.18413723130E+02 -0.88774071630E+02  0.92182808845E+02  0.00000000000E+00 0. -1.
         -3    1    6    6    0  503 -0.33138716297E+02  0.16224342068E+02  0.45459783961E+01  0.37176198204E+02  0.00000000000E+00 0.  1.
<mgrwt>
<rscale>  0 0.11070596E+04</rscale>
<asrwt>0</asrwt>
<pdfrwt beam="1">  1        2 0.18585580E+00 0.11070596E+04</pdfrwt>
<pdfrwt beam="2">  1       -2 0.16982094E+00 0.11070596E+04</pdfrwt>
<totfact> 0.39253183E+00</totfact>
</mgrwt>
</event>
<event>
12    1  0.1335216E-007  0.7676641E+03  0.7818608E-02  0.9608039E-01
          2   -1    0    0  501    0  0.00000000000E+00  0.00000000000E+00  0.77048966543E+03  0.77048966543E+03  0.00000000000E+00 0. -1.
         -2   -1    0    0    0  501 -0.00000000000E+00 -0.00000000000E+00 -0.14205306356E+04  0.14205306356E+04  0.00000000000E+00 0.  1.
         23    2    1    2    0    0  0.56467890830E+03 -0.46101104941E+03  0.34939762464E+03  0.81642798560E+03  0.11437874980E+03 0.  0.
    5000000    2    1    2    0    0 -0.56467890830E+03  0.46101104941E+03 -0.99943859477E+03  0.13745923154E+04  0.59936055233E+03 0.  0.
         23    2    4    4    0    0 -0.42855257920E+03  0.17185750591E+03 -0.20517024818E+03  0.51354142422E+03  0.91856671909E+02 0.  0.
         23    2    4    4    0    0 -0.13612632911E+03  0.28915354350E+03 -0.79426834659E+03  0.86105089119E+03  0.91685776550E+02 0.  0.
          2    1    3    3  502    0  0.16448031980E+03 -0.92505937213E+02  0.13340115326E+03  0.23109952772E+03  0.00000000000E+00 0. -1.
         -2    1    3    3    0  502  0.40019858850E+03 -0.36850511220E+03  0.21599647138E+03  0.58532845788E+03  0.00000000000E+00 0.  1.
         11    1    5    5    0    0 -0.39975945021E+02  0.48919917650E+02 -0.25284817824E+02  0.68048192743E+02  0.00000000000E+00 0.  1.
        -11    1    5    5    0    0 -0.38857663418E+03  0.12293758826E+03 -0.17988543036E+03  0.44549323148E+03  0.00000000000E+00 0. -1.
          4    1    6    6  503    0 -0.12162775814E+03  0.15544998587E+03 -0.44630693604E+03  0.48800398648E+03  0.00000000000E+00 0. -1.
         -4    1    6    6    0  503 -0.14498570967E+02  0.13370355763E+03 -0.34796141055E+03  0.37304690471E+03  0.00000000000E+00 0.  1.
<mgrwt>
<rscale>  0 0.76766414E+03</rscale>
<asrwt>0</asrwt>
<pdfrwt beam="1">  1        2 0.11853687E+00 0.76766414E+03</pdfrwt>
<pdfrwt beam="2">  1       -2 0.21854317E+00 0.76766414E+03</pdfrwt>
<totfact> 0.37367094E+00</totfact>
</mgrwt>
</event>
<event>
12    1  0.1335216E-007  0.8561412E+03  0.7818608E-02  0.9482131E-01
         -2   -1    0    0    0  501 -0.00000000000E+00  0.00000000000E+00  0.11441507004E+04  0.11441507004E+04  0.00000000000E+00 0.  1.
          2   -1    0    0  501    0  0.00000000000E+00 -0.00000000000E+00 -0.77846288625E+03  0.77846288625E+03  0.00000000000E+00 0. -1.
         23    2    1    2    0    0  0.84008218490E+03  0.94753783580E+02  0.14772261540E+03  0.86299482545E+03  0.90673815258E+02 0.  0.
    5000000    2    1    2    0    0 -0.84008218490E+03 -0.94753783580E+02  0.21796519877E+03  0.10596187612E+04  0.60047209288E+03 0.  0.
         23    2    4    4    0    0 -0.23115051656E+03 -0.10045424480E+02  0.34495658500E+03  0.42537091364E+03  0.91727295720E+02 0.  0.
         23    2    4    4    0    0 -0.60893166834E+03 -0.84708359100E+02 -0.12699138623E+03  0.63424784756E+03  0.90389364163E+02 0.  0.
          1    1    3    3  502    0  0.16804071113E+03  0.53749368930E+02  0.43191049162E+02  0.18163739148E+03  0.00000000000E+00 0. -1.
         -1    1    3    3    0  502  0.67204147377E+03  0.41004414650E+02  0.10453156623E+03  0.68135743397E+03  0.00000000000E+00 0.  1.
         13    1    5    5    0    0 -0.41785333236E+02  0.33303118473E+02  0.58211461864E+02  0.79016998589E+02  0.00000000000E+00 0. -1.
        -13    1    5    5    0    0 -0.18936518332E+03 -0.43348542953E+02  0.28674512313E+03  0.34635391505E+03  0.00000000000E+00 0.  1.
          4    1    6    6  503    0 -0.55445040432E+03 -0.74414668763E+02 -0.87611086219E+02  0.56624066987E+03  0.00000000000E+00 0. -1.
         -4    1    6    6    0  503 -0.54481264015E+02 -0.10293690336E+02 -0.39380300008E+02  0.68007177695E+02  0.00000000000E+00 0.  1.
<mgrwt>
<rscale>  0 0.85614123E+03</rscale>
<asrwt>0</asrwt>
<pdfrwt beam="1">  1        2 0.11976352E+00 0.85614123E+03</pdfrwt>
<pdfrwt beam="2">  1       -2 0.17602319E+00 0.85614123E+03</pdfrwt>
<totfact> 0.69447941E+00</totfact>
</mgrwt>
</event>
<event>
12    1  0.1335216E-007  0.4360422E+03  0.7818608E-02  0.1031968E+00
          1   -1    0    0  501    0  0.00000000000E+00  0.00000000000E+00  0.57213614612E+03  0.57213614612E+03  0.00000000000E+00 0. -1.
         -1   -1    0    0    0  501 -0.00000000000E+00 -0.00000000000E+00 -0.37813075487E+03  0.37813075487E+03  0.00000000000E+00 0.  1.
         23    2    1    2    0    0  0.82148439171E+02  0.21460182673E+03  0.18330040404E+03  0.30761268108E+03  0.90687448639E+02 0.  0.
    5000000    2    1    2    0    0 -0.82148439171E+02 -0.21460182673E+03  0.10704987208E+02  0.64265421992E+03  0.60007294517E+03 0.  0.
         23    2    4    4    0    0  0.18423641760E+03 -0.28509277793E+03  0.18896854629E+02  0.35264712183E+03  0.93712068695E+02 0.  0.
         23    2    4    4    0    0 -0.26638485677E+03  0.70490951201E+02 -0.81918674210E+01  0.29000709809E+03  0.90039680892E+02 0.  0.
          4    1    3    3  502    0 -0.14571423368E+02  0.15936820573E+02  0.18036928567E+01  0.21669377860E+02  0.00000000000E+00 0. -1.
         -4    1    3    3    0  502  0.96719862539E+02  0.19866500616E+03  0.18149671119E+03  0.28594330322E+03  0.00000000000E+00 0.  1.
         11    1    5    5    0    0  0.11700678737E+03 -0.20648515897E+03  0.54034563978E+02  0.24340592283E+03  0.00000000000E+00 0.  1.
        -11    1    5    5    0    0  0.67229630223E+02 -0.78607618962E+02 -0.35137709349E+02  0.10924119899E+03  0.00000000000E+00 0. -1.
          4    1    6    6  503    0 -0.15204084784E+03 -0.43524933859E+01 -0.17072964431E+02  0.15305832132E+03  0.00000000000E+00 0. -1.
         -4    1    6    6    0  503 -0.11434400893E+03  0.74843444587E+02  0.88810970101E+01  0.13694877677E+03  0.00000000000E+00 0.  1.
<mgrwt>
<rscale>  0 0.43604218E+03</rscale>
<asrwt>0</asrwt>
<pdfrwt beam="1">  1        1 0.88020945E-01 0.43604218E+03</pdfrwt>
<pdfrwt beam="2">  1       -1 0.58173962E-01 0.43604218E+03</pdfrwt>
<totfact> 0.11471293E+02</totfact>
</mgrwt>
</event>
<event>
12    1  0.1335216E-007  0.5708879E+03  0.7818608E-02  0.9967716E-01
          2   -1    0    0  501    0  0.00000000000E+00  0.00000000000E+00  0.12956102235E+04  0.12956102235E+04  0.00000000000E+00 0. -1.
         -2   -1    0    0    0  501 -0.00000000000E+00 -0.00000000000E+00 -0.26901027463E+03  0.26901027463E+03  0.00000000000E+00 0.  1.
         23    2    1    2    0    0 -0.42276846838E+03  0.21322372059E+02  0.49888746859E+03  0.66040554139E+03  0.89771662455E+02 0.  0.
    5000000    2    1    2    0    0  0.42276846838E+03 -0.21322372059E+02  0.52771248033E+03  0.90421495678E+03  0.59994700163E+03 0.  0.
         23    2    4    4    0    0 -0.13695824535E+03  0.24637860914E+02  0.91602225172E+02  0.18748613523E+03  0.85997081851E+02 0.  0.
         23    2    4    4    0    0  0.55972671373E+03 -0.45960232973E+02  0.43611025516E+03  0.71672882155E+03  0.90009510083E+02 0.  0.
          2    1    3    3  502    0 -0.32629067637E+03 -0.89566310479E+01  0.33423149855E+03  0.46717932462E+03  0.00000000000E+00 0. -1.
         -2    1    3    3    0  502 -0.96477792008E+02  0.30279003107E+02  0.16465597003E+03  0.19322621677E+03  0.00000000000E+00 0.  1.
         11    1    5    5    0    0 -0.11176100403E+03  0.36800488787E+02  0.10385513823E+03  0.15694166985E+03  0.00000000000E+00 0.  1.
        -11    1    5    5    0    0 -0.25197241321E+02 -0.12162627873E+02 -0.12252913062E+02  0.30544465382E+02  0.00000000000E+00 0. -1.
          3    1    6    6  503    0  0.79114018956E+02  0.24569377920E+02  0.57339255770E+02  0.10074955374E+03  0.00000000000E+00 0. -1.
         -3    1    6    6    0  503  0.48061269478E+03 -0.70529610892E+02  0.37877099939E+03  0.61597926781E+03  0.00000000000E+00 0.  1.
<mgrwt>
<rscale>  0 0.57088790E+03</rscale>
<asrwt>0</asrwt>
<pdfrwt beam="1">  1        2 0.19932465E+00 0.57088790E+03</pdfrwt>
<pdfrwt beam="2">  1       -2 0.41386197E-01 0.57088790E+03</pdfrwt>
<totfact> 0.95123295E+01</totfact>
</mgrwt>
</event>
<event>
12    1  0.1335216E-007  0.6046325E+03  0.7818608E-02  0.9895841E-01
         -2   -1    0    0    0  501 -0.00000000000E+00  0.00000000000E+00  0.24272194128E+03  0.24272194128E+03  0.00000000000E+00 0.  1.
          2   -1    0    0  501    0  0.00000000000E+00 -0.00000000000E+00 -0.18406072051E+04  0.18406072051E+04  0.00000000000E+00 0. -1.
         23    2    1    2    0    0  0.26200028025E+03  0.40208003896E+03 -0.29573093532E+03  0.57142705651E+03  0.93592682547E+02 0.  0.
    5000000    2    1    2    0    0 -0.26200028025E+03 -0.40208003896E+03 -0.13021543285E+04  0.15119020899E+04  0.59994127174E+03 0.  0.
         23    2    4    4    0    0  0.16327330222E+03 -0.10729741696E+03 -0.22478958298E+03  0.31309960087E+03  0.96592424889E+02 0.  0.
         23    2    4    4    0    0 -0.42527358247E+03 -0.29478262200E+03 -0.10773647456E+04  0.11988024890E+04  0.93049441474E+02 0.  0.
          4    1    3    3  502    0  0.12706642353E+03  0.27783384826E+03 -0.18266471526E+03  0.35595494298E+03  0.00000000000E+00 0.  1.
         -4    1    3    3    0  502  0.13493385672E+03  0.12424619070E+03 -0.11306622006E+03  0.21547211353E+03  0.00000000000E+00 0. -1.
         13    1    5    5    0    0  0.11136291501E+03 -0.53054205828E+02 -0.19819720799E+03  0.23344931109E+03  0.00000000000E+00 0. -1.
        -13    1    5    5    0    0  0.51910387207E+02 -0.54243211134E+02 -0.26592374992E+02  0.79650289779E+02  0.00000000000E+00 0.  1.
          1    1    6    6  503    0 -0.40019258583E+03 -0.25392754255E+03 -0.10144359678E+04  0.11196935453E+04  0.00000000000E+00 0. -1.
         -1    1    6    6    0  503 -0.25080996635E+02 -0.40855079446E+02 -0.62928777802E+02  0.79108943770E+02  0.00000000000E+00 0.  1.
<mgrwt>
<rscale>  0 0.60463254E+03</rscale>
<asrwt>0</asrwt>
<pdfrwt beam="1">  1        2 0.28317035E+00 0.60463254E+03</pdfrwt>
<pdfrwt beam="2">  1       -2 0.37341836E-01 0.60463254E+03</pdfrwt>
<totfact> 0.57904256E+01</totfact>
</mgrwt>
</event>
<event>
12    1  0.1335216E-007  0.1074654E+04  0.7818608E-02  0.9230254E-01
         -1   -1    0    0    0  501 -0.00000000000E+00  0.00000000000E+00  0.20371910834E+04  0.20371910834E+04  0.00000000000E+00 0.  1.
          1   -1    0    0  501    0  0.00000000000E+00 -0.00000000000E+00 -0.71150555823E+03  0.71150555823E+03  0.00000000000E+00 0. -1.
         23    2    1    2    0    0 -0.88883739814E+03  0.55805158363E+03  0.15423349686E+03  0.10650778043E+04  0.95651802309E+02 0.  0.
    5000000    2    1    2    0    0  0.88883739814E+03 -0.55805158363E+03  0.11714520283E+04  0.16836188374E+04  0.60068214932E+03 0.  0.
         23    2    4    4    0    0  0.22393809985E+03 -0.79957099893E+00  0.24952991708E+02  0.24306855837E+03  0.91163371997E+02 0.  0.
         23    2    4    4    0    0  0.66489929829E+03 -0.55725201264E+03  0.11464990366E+04  0.14405502790E+04  0.90023235214E+02 0.  0.
          2    1    3    3  502    0 -0.21832224685E+03  0.94829616152E+02  0.16930490736E+02  0.23862921256E+03  0.00000000000E+00 0. -1.
         -2    1    3    3    0  502 -0.67051515129E+03  0.46322196748E+03  0.13730300613E+03  0.82644859172E+03  0.00000000000E+00 0.  1.
         13    1    5    5    0    0  0.92389629886E+02 -0.14116923052E+02 -0.32435802430E+02  0.98930341686E+02  0.00000000000E+00 0.  1.
        -13    1    5    5    0    0  0.13154846997E+03  0.13317352053E+02  0.57388794138E+02  0.14413821669E+03  0.00000000000E+00 0. -1.
          1    1    6    6  503    0  0.48020738911E+03 -0.35813557696E+03  0.82801290136E+03  0.10219909945E+04  0.00000000000E+00 0. -1.
         -1    1    6    6    0  503  0.18469190918E+03 -0.19911643568E+03  0.31848613526E+03  0.41855928449E+03  0.00000000000E+00 0.  1.
<mgrwt>
<rscale>  0 0.10746542E+04</rscale>
<asrwt>0</asrwt>
<pdfrwt beam="1">  1        1 0.10946239E+00 0.10746542E+04</pdfrwt>
<pdfrwt beam="2">  1       -1 0.31341401E+00 0.10746542E+04</pdfrwt>
<totfact> 0.72153283E-01</totfact>
</mgrwt>
</event>
<event>
12    1  0.1335216E-007  0.1402862E+04  0.7818608E-02  0.8951750E-01
         -2   -1    0    0    0  501 -0.00000000000E+00  0.00000000000E+00  0.11482539691E+04  0.11482539691E+04  0.00000000000E+00 0.  1.
          2   -1    0    0  501    0  0.00000000000E+00 -0.00000000000E+00 -0.19072267034E+04  0.19072267034E+04  0.00000000000E+00 0. -1.
         23    2    1    2    0    0 -0.93452396702E+03 -0.96753976408E+03 -0.82595022736E+03  0.15810689091E+04  0.90093713910E+02 0.  0.
    5000000    2    1    2    0    0  0.93452396702E+03  0.96753976408E+03  0.66977493123E+02  0.14744117634E+04  0.59994651718E+03 0.  0.
         23    2    4    4    0    0  0.52224978907E+03  0.16162054451E+03  0.10468413800E+03  0.56367264904E+03  0.88893441454E+02 0.  0.
         23    2    4    4    0    0  0.41227417795E+03  0.80591921957E+03 -0.37706644875E+02  0.91073911437E+03  0.92456244263E+02 0.  0.
          3    1    3    3  502    0 -0.31369231873E+03 -0.38495394270E+03 -0.29042764246E+03  0.57527439047E+03  0.00000000000E+00 0. -1.
         -3    1    3    3    0  502 -0.62083164829E+03 -0.58258582138E+03 -0.53552258490E+03  0.10057945186E+04  0.00000000000E+00 0.  1.
         13    1    5    5    0    0  0.30501982362E+03  0.56287973741E+02  0.84139537860E+02  0.32137966740E+03  0.00000000000E+00 0. -1.
        -13    1    5    5    0    0  0.21722996545E+03  0.10533257077E+03  0.20544600138E+02  0.24229298164E+03  0.00000000000E+00 0.  1.
          4    1    6    6  503    0  0.37547356785E+03  0.70489989334E+03 -0.60085583280E+02  0.80092105547E+03  0.00000000000E+00 0.  1.
         -4    1    6    6    0  503  0.36800610093E+02  0.10101932623E+03  0.22378938405E+02  0.10981805889E+03  0.00000000000E+00 0. -1.
<mgrwt>
<rscale>  0 0.14028616E+04</rscale>
<asrwt>0</asrwt>
<pdfrwt beam="1">  1        2 0.29341949E+00 0.14028616E+04</pdfrwt>
<pdfrwt beam="2">  1       -2 0.17665446E+00 0.14028616E+04</pdfrwt>
<totfact> 0.13679977E+00</totfact>
</mgrwt>
</event>
<event>
12    1  0.1335216E-007  0.9739653E+03  0.7818608E-02  0.9337569E-01
          2   -1    0    0  501    0  0.00000000000E+00  0.00000000000E+00  0.14907057395E+04  0.14907057395E+04  0.00000000000E+00 0. -1.
         -2   -1    0    0    0  501 -0.00000000000E+00 -0.00000000000E+00 -0.69984164240E+03  0.69984164240E+03  0.00000000000E+00 0.  1.
         23    2    1    2    0    0  0.81239599310E+03 -0.45033997022E+03  0.29528687443E+03  0.97876844551E+03  0.89442681739E+02 0.  0.
    5000000    2    1    2    0    0 -0.81239599310E+03  0.45033997022E+03  0.49557722267E+03  0.12117789364E+04  0.60001505706E+03 0.  0.
         23    2    4    4    0    0 -0.17067527892E+03  0.31133010113E+03 -0.26974936196E+02  0.36780896009E+03  0.92191654899E+02 0.  0.
         23    2    4    4    0    0 -0.64172071418E+03  0.13900986910E+03  0.52255215887E+03  0.84396997632E+03  0.89974126717E+02 0.  0.
          4    1    3    3  502    0  0.26414585185E+03 -0.14012075138E+03  0.13899726618E+03  0.32973792021E+03  0.00000000000E+00 0.  1.
         -4    1    3    3    0  502  0.54825014125E+03 -0.31021921884E+03  0.15628960825E+03  0.64903052530E+03  0.00000000000E+00 0. -1.
         11    1    5    5    0    0 -0.44471206670E+02  0.54281554279E+02 -0.40700043232E+02  0.81121321961E+02  0.00000000000E+00 0. -1.
        -11    1    5    5    0    0 -0.12620407226E+03  0.25704854685E+03  0.13725107036E+02  0.28668763813E+03  0.00000000000E+00 0.  1.
          3    1    6    6  503    0 -0.57823625670E+02 -0.12638806617E+02  0.39834510504E+02  0.71344932164E+02  0.00000000000E+00 0. -1.
         -3    1    6    6    0  503 -0.58389708851E+03  0.15164867571E+03  0.48271764836E+03  0.77262504415E+03  0.00000000000E+00 0.  1.
<mgrwt>
<rscale>  0 0.97396527E+03</rscale>
<asrwt>0</asrwt>
<pdfrwt beam="1">  1        2 0.22933934E+00 0.97396527E+03</pdfrwt>
<pdfrwt beam="2">  1       -2 0.10766795E+00 0.97396527E+03</pdfrwt>
<totfact> 0.88687872E+00</totfact>
</mgrwt>
</event>
<event>
12    1  0.1537605E-007  0.1660968E+04  0.7818608E-02  0.8783944E-01
         -2   -1    0    0    0  501 -0.00000000000E+00  0.00000000000E+00  0.16829957482E+04  0.16829957482E+04  0.00000000000E+00 0.  1.
          2   -1    0    0  501    0  0.00000000000E+00 -0.00000000000E+00 -0.23874435689E+04  0.23874435689E+04  0.00000000000E+00 0. -1.
         23    2    1    2    0    0  0.14277585262E+04  0.82574445063E+03  0.72780185040E+03  0.18051160814E+04  0.91652751845E+02 0.  0.
    5000000    2    1    2    0    0 -0.14277585262E+04 -0.82574445063E+03 -0.14322496711E+04  0.22653232356E+04  0.60000161198E+03 0.  0.
         23    2    4    4    0    0 -0.62459014385E+03 -0.49861586339E+03 -0.10251501280E+04  0.13030843256E+04  0.91462275333E+02 0.  0.
         23    2    4    4    0    0 -0.80316838239E+03 -0.32712858724E+03 -0.40709954315E+03  0.96223890998E+03  0.89895043191E+02 0.  0.
          3    1    3    3  502    0  0.94585184672E+03  0.51674398561E+03  0.43701160953E+03  0.11630301843E+04  0.00000000000E+00 0. -1.
         -3    1    3    3    0  502  0.48190667952E+03  0.30900046502E+03  0.29079024087E+03  0.64208589716E+03  0.00000000000E+00 0.  1.
         13    1    5    5    0    0 -0.13089441940E+03 -0.15470653170E+03 -0.24944253422E+03  0.32138611958E+03  0.00000000000E+00 0. -1.
        -13    1    5    5    0    0 -0.49369572445E+03 -0.34390933169E+03 -0.77570759374E+03  0.98169820605E+03  0.00000000000E+00 0.  1.
          1    1    6    6  503    0 -0.31118750843E+03 -0.11937683809E+03 -0.10924538564E+03  0.35074641717E+03  0.00000000000E+00 0. -1.
         -1    1    6    6    0  503 -0.49198087396E+03 -0.20775174915E+03 -0.29785415751E+03  0.61149249281E+03  0.00000000000E+00 0.  1.
<mgrwt>
<rscale>  0 0.16609684E+04</rscale>
<asrwt>0</asrwt>
<pdfrwt beam="1">  1        2 0.36729901E+00 0.16609684E+04</pdfrwt>
<pdfrwt beam="2">  1       -2 0.25892242E+00 0.16609684E+04</pdfrwt>
<totfact> 0.21072395E-01</totfact>
</mgrwt>
</event>
<event>
12    1  0.1335216E-007  0.8586156E+03  0.7818608E-02  0.9478846E-01
          2   -1    0    0  501    0  0.00000000000E+00  0.00000000000E+00  0.11504007324E+04  0.11504007324E+04  0.00000000000E+00 0. -1.
         -2   -1    0    0    0  501 -0.00000000000E+00 -0.00000000000E+00 -0.77800454948E+03  0.77800454948E+03  0.00000000000E+00 0.  1.
         23    2    1    2    0    0  0.70262831820E+03 -0.43447776259E+03 -0.27810166378E+02  0.83180084832E+03  0.93068610104E+02 0.  0.
    5000000    2    1    2    0    0 -0.70262831820E+03  0.43447776259E+03  0.40020634926E+03  0.10966044335E+04  0.59993223109E+03 0.  0.
         23    2    4    4    0    0 -0.26648197504E+03  0.75698677891E+01  0.38776701150E+03  0.47942454050E+03  0.91731613482E+02 0.  0.
         23    2    4    4    0    0 -0.43614634315E+03  0.42690789480E+03  0.12439337761E+02  0.61717989301E+03  0.91007142153E+02 0.  0.
          3    1    3    3  502    0  0.12689609300E+03 -0.12255760185E+03 -0.11676781396E+02  0.17680308655E+03  0.00000000000E+00 0. -1.
         -3    1    3    3    0  502  0.57573222520E+03 -0.31192016074E+03 -0.16133384982E+02  0.65499776177E+03  0.00000000000E+00 0.  1.
         11    1    5    5    0    0 -0.26656597325E+03  0.14774293837E+02  0.38930911337E+03  0.47205644112E+03  0.00000000000E+00 0. -1.
        -11    1    5    5    0    0  0.83998201392E-01 -0.72044260480E+01 -0.15421018717E+01  0.73680993860E+01  0.00000000000E+00 0.  1.
          1    1    6    6  503    0 -0.29192329110E+03  0.25663323083E+03  0.46458360604E+02  0.39145651397E+03  0.00000000000E+00 0. -1.
         -1    1    6    6    0  503 -0.14422305205E+03  0.17027466397E+03 -0.34019022843E+02  0.22572337905E+03  0.00000000000E+00 0.  1.
<mgrwt>
<rscale>  0 0.85861557E+03</rscale>
<asrwt>0</asrwt>
<pdfrwt beam="1">  1        2 0.17698473E+00 0.85861557E+03</pdfrwt>
<pdfrwt beam="2">  1       -2 0.11969301E+00 0.85861557E+03</pdfrwt>
<totfact> 0.10913674E+01</totfact>
</mgrwt>
</event>
<event>
12    1  0.1335216E-007  0.1351323E+04  0.7818608E-02  0.8989827E-01
         -2   -1    0    0    0  501 -0.00000000000E+00  0.00000000000E+00  0.67095034913E+03  0.67095034913E+03  0.00000000000E+00 0.  1.
          2   -1    0    0  501    0  0.00000000000E+00 -0.00000000000E+00 -0.30166974990E+04  0.30166974990E+04  0.00000000000E+00 0. -1.
         23    2    1    2    0    0 -0.38806088080E+03 -0.12921979483E+04 -0.92432635569E+03  0.16380727648E+04  0.92392565152E+02 0.  0.
    5000000    2    1    2    0    0  0.38806088080E+03  0.12921979483E+04 -0.14214207941E+04  0.20495750833E+04  0.59996180159E+03 0.  0.
         23    2    4    4    0    0  0.10217648072E+03  0.47884212798E+03 -0.92798618525E+03  0.10529762749E+04  0.88717860758E+02 0.  0.
         23    2    4    4    0    0  0.28588440008E+03  0.81335582031E+03 -0.49343460888E+03  0.99659880838E+03  0.80336112541E+02 0.  0.
          1    1    3    3  502    0 -0.24353478023E+03 -0.88233123863E+03 -0.58014494168E+03  0.10836908033E+04  0.00000000000E+00 0. -1.
         -1    1    3    3    0  502 -0.14452610057E+03 -0.40986670966E+03 -0.34418141401E+03  0.55438196145E+03  0.00000000000E+00 0.  1.
         11    1    5    5    0    0  0.83747186022E+02  0.39108492300E+03 -0.67530257264E+03  0.78485321735E+03  0.00000000000E+00 0.  1.
        -11    1    5    5    0    0  0.18429294700E+02  0.87757204986E+02 -0.25268361261E+03  0.26812305759E+03  0.00000000000E+00 0. -1.
          3    1    6    6  503    0  0.15145516484E+03  0.36964488725E+03 -0.26823356474E+03  0.48117071283E+03  0.00000000000E+00 0. -1.
         -3    1    6    6    0  503  0.13442923524E+03  0.44371093306E+03 -0.22520104414E+03  0.51542809555E+03  0.00000000000E+00 0.  1.
<mgrwt>
<rscale>  0 0.13513227E+04</rscale>
<asrwt>0</asrwt>
<pdfrwt beam="1">  1        2 0.46410731E+00 0.13513227E+04</pdfrwt>
<pdfrwt beam="2">  1       -2 0.10322313E+00 0.13513227E+04</pdfrwt>
<totfact> 0.12650317E+00</totfact>
</mgrwt>
</event>
<event>
12    1  0.1335216E-007  0.1110192E+04  0.7818608E-02  0.9195315E-01
         -2   -1    0    0    0  501 -0.00000000000E+00  0.00000000000E+00  0.84895608578E+03  0.84895608578E+03  0.00000000000E+00 0.  1.
          2   -1    0    0  501    0  0.00000000000E+00 -0.00000000000E+00 -0.29861819767E+04  0.29861819767E+04  0.00000000000E+00 0. -1.
         23    2    1    2    0    0  0.20660644721E+03 -0.10630989246E+04  0.27727883941E+03  0.11217190853E+04  0.92220410715E+02 0.  0.
    5000000    2    1    2    0    0 -0.20660644721E+03  0.10630989246E+04 -0.24145047304E+04  0.27134189772E+04  0.59995325260E+03 0.  0.
         23    2    4    4    0    0 -0.49181073838E+02  0.56138742522E+02 -0.74782477242E+03  0.75742313103E+03  0.94220872069E+02 0.  0.
         23    2    4    4    0    0 -0.15742537337E+03  0.10069601821E+04 -0.16666799579E+04  0.19559958461E+04  0.96675289133E+02 0.  0.
          4    1    3    3  502    0  0.13752141275E+03 -0.78307221366E+03  0.16367099947E+03  0.81172804980E+03  0.00000000000E+00 0.  1.
         -4    1    3    3    0  502  0.69085034458E+02 -0.28002671092E+03  0.11360783994E+03  0.30999103553E+03  0.00000000000E+00 0. -1.
         13    1    5    5    0    0 -0.65432908725E+02  0.69707683501E+02 -0.52843157112E+03  0.53701075598E+03  0.00000000000E+00 0. -1.
        -13    1    5    5    0    0  0.16251834887E+02 -0.13568940979E+02 -0.21939320130E+03  0.22041237504E+03  0.00000000000E+00 0.  1.
          1    1    6    6  503    0 -0.17475346396E+02  0.49542238873E+02 -0.12808596095E+03  0.13844072579E+03  0.00000000000E+00 0. -1.
         -1    1    6    6    0  503 -0.13995002698E+03  0.95741794318E+03 -0.15385939970E+04  0.18175551204E+04  0.00000000000E+00 0.  1.
<mgrwt>
<rscale>  0 0.11101918E+04</rscale>
<asrwt>0</asrwt>
<pdfrwt beam="1">  1        2 0.45941261E+00 0.11101918E+04</pdfrwt>
<pdfrwt beam="2">  1       -2 0.13060863E+00 0.11101918E+04</pdfrwt>
<totfact> 0.76186523E-01</totfact>
</mgrwt>
</event>
<event>
12    1  0.1335216E-007  0.8898533E+03  0.7818608E-02  0.9438355E-01
          1   -1    0    0  501    0  0.00000000000E+00  0.00000000000E+00  0.12242590129E+04  0.12242590129E+04  0.00000000000E+00 0. -1.
         -1   -1    0    0    0  501 -0.00000000000E+00 -0.00000000000E+00 -0.10304587887E+04  0.10304587887E+04  0.00000000000E+00 0.  1.
         23    2    1    2    0    0 -0.54220265681E+03 -0.57394030880E+03 -0.59072009444E+03  0.99030882593E+03  0.91488478128E+02 0.  0.
    5000000    2    1    2    0    0  0.54220265681E+03  0.57394030880E+03  0.78452031862E+03  0.12644089756E+04  0.59988892993E+03 0.  0.
         23    2    4    4    0    0  0.15915511240E+03  0.56325893668E+03  0.40568186267E+03  0.71794295721E+03  0.90957883446E+02 0.  0.
         23    2    4    4    0    0  0.38304754441E+03  0.10681372124E+02  0.37883845595E+03  0.54646601843E+03  0.90923157700E+02 0.  0.
          2    1    3    3  502    0 -0.44215912053E+03 -0.41378951666E+03 -0.46391367470E+03  0.76285145969E+03  0.00000000000E+00 0. -1.
         -2    1    3    3    0  502 -0.10004353627E+03 -0.16015079214E+03 -0.12680641973E+03  0.22745736624E+03  0.00000000000E+00 0.  1.
         11    1    5    5    0    0  0.22421010365E+01  0.15252706489E+03  0.11058301039E+03  0.18840948683E+03  0.00000000000E+00 0. -1.
        -11    1    5    5    0    0  0.15691301136E+03  0.41073187179E+03  0.29509885228E+03  0.52953347038E+03  0.00000000000E+00 0.  1.
          2    1    6    6  503    0  0.47972649258E+02 -0.28357435829E+02  0.42322082976E+02  0.69976267055E+02  0.00000000000E+00 0. -1.
         -2    1    6    6    0  503  0.33507489515E+03  0.39038807953E+02  0.33651637298E+03  0.47648975138E+03  0.00000000000E+00 0.  1.
<mgrwt>
<rscale>  0 0.88985326E+03</rscale>
<asrwt>0</asrwt>
<pdfrwt beam="1">  1        1 0.18834754E+00 0.88985326E+03</pdfrwt>
<pdfrwt beam="2">  1       -1 0.15853212E+00 0.88985326E+03</pdfrwt>
<totfact> 0.31334646E+00</totfact>
</mgrwt>
</event>
<event>
12    1  0.1335216E-007  0.5613387E+03  0.7818608E-02  0.9989030E-01
         -1   -1    0    0    0  501 -0.00000000000E+00  0.00000000000E+00  0.27539361712E+03  0.27539361712E+03  0.00000000000E+00 0.  1.
          1   -1    0    0  501    0  0.00000000000E+00 -0.00000000000E+00 -0.12900454402E+04  0.12900454402E+04  0.00000000000E+00 0. -1.
         23    2    1    2    0    0  0.35740627972E+01  0.43895037004E+03 -0.38590892872E+03  0.59179521635E+03  0.92766780370E+02 0.  0.
    5000000    2    1    2    0    0 -0.35740627972E+01 -0.43895037004E+03 -0.62874289440E+03  0.97364384102E+03  0.59997875013E+03 0.  0.
         23    2    4    4    0    0  0.42109528853E+02 -0.54540076345E+03 -0.60798575813E+03  0.82316129855E+03  0.93341502796E+02 0.  0.
         23    2    4    4    0    0 -0.45683591650E+02  0.10645039341E+03 -0.20757136275E+02  0.15048254247E+03  0.93784114219E+02 0.  0.
          1    1    3    3  502    0 -0.28094204984E+02  0.26479937422E+03 -0.27561214878E+03  0.38323628416E+03  0.00000000000E+00 0. -1.
         -1    1    3    3    0  502  0.31668267781E+02  0.17415099583E+03 -0.11029677994E+03  0.20855893219E+03  0.00000000000E+00 0.  1.
         13    1    5    5    0    0  0.42096916535E+02 -0.47313309483E+03 -0.47468010394E+03  0.67152682513E+03  0.00000000000E+00 0.  1.
        -13    1    5    5    0    0  0.12612317849E-01 -0.72267668628E+02 -0.13330565419E+03  0.15163447341E+03  0.00000000000E+00 0. -1.
          3    1    6    6  503    0  0.52233356578E+01  0.68299781270E+02 -0.45489606356E+02  0.82228022251E+02  0.00000000000E+00 0. -1.
         -3    1    6    6    0  503 -0.50906927308E+02  0.38150612140E+02  0.24732470081E+02  0.68254520223E+02  0.00000000000E+00 0.  1.
<mgrwt>
<rscale>  0 0.56133873E+03</rscale>
<asrwt>0</asrwt>
<pdfrwt beam="1">  1        1 0.19846853E+00 0.56133873E+03</pdfrwt>
<pdfrwt beam="2">  1       -1 0.42368249E-01 0.56133873E+03</pdfrwt>
<totfact> 0.52868467E+01</totfact>
</mgrwt>
</event>
<event>
12    1  0.1335216E-007  0.6119697E+03  0.7818608E-02  0.9880879E-01
          2   -1    0    0  501    0  0.00000000000E+00  0.00000000000E+00  0.29031476879E+03  0.29031476879E+03  0.00000000000E+00 0. -1.
         -2   -1    0    0    0  501 -0.00000000000E+00 -0.00000000000E+00 -0.13577902142E+04  0.13577902142E+04  0.00000000000E+00 0.  1.
         23    2    1    2    0    0 -0.27250811340E+03 -0.39540280138E+03 -0.40331624962E+03  0.63233208141E+03  0.81091409918E+02 0.  0.
    5000000    2    1    2    0    0  0.27250811340E+03  0.39540280138E+03 -0.66415919579E+03  0.10157729016E+04  0.60006924853E+03 0.  0.
         23    2    4    4    0    0 -0.19501675246E+02 -0.11285357782E+03 -0.26048261543E+03  0.29852962015E+03  0.90291172337E+02 0.  0.
         23    2    4    4    0    0  0.29200978864E+03  0.50825637920E+03 -0.40367658036E+03  0.71724328143E+03  0.88819364797E+02 0.  0.
          1    1    3    3  502    0 -0.13252669131E+03 -0.13199026289E+03 -0.18123477034E+03  0.26044345910E+03  0.00000000000E+00 0. -1.
         -1    1    3    3    0  502 -0.13998142209E+03 -0.26341253849E+03 -0.22208147928E+03  0.37188862231E+03  0.00000000000E+00 0.  1.
         13    1    5    5    0    0  0.33251071795E+02 -0.19576085415E+02 -0.73692388291E+02  0.83183081139E+02  0.00000000000E+00 0. -1.
        -13    1    5    5    0    0 -0.52752747041E+02 -0.93277492408E+02 -0.18679022714E+03  0.21534653901E+03  0.00000000000E+00 0.  1.
          3    1    6    6  503    0  0.19210058553E+03  0.24537821866E+03 -0.21388869295E+03  0.37797020799E+03  0.00000000000E+00 0. -1.
         -3    1    6    6    0  503  0.99909203115E+02  0.26287816054E+03 -0.18978788741E+03  0.33927307344E+03  0.00000000000E+00 0.  1.
<mgrwt>
<rscale>  0 0.61196968E+03</rscale>
<asrwt>0</asrwt>
<pdfrwt beam="1">  1        2 0.44663812E-01 0.61196968E+03</pdfrwt>
<pdfrwt beam="2">  1       -2 0.20889080E+00 0.61196968E+03</pdfrwt>
<totfact> 0.13699964E+01</totfact>
</mgrwt>
</event>
<event>
12    1  0.1335216E-007  0.1168696E+04  0.7818608E-02  0.9140707E-01
          2   -1    0    0  501    0  0.00000000000E+00  0.00000000000E+00  0.28740902696E+04  0.28740902696E+04  0.00000000000E+00 0.  1.
         -2   -1    0    0    0  501 -0.00000000000E+00 -0.00000000000E+00 -0.51509082612E+03  0.51509082612E+03  0.00000000000E+00 0. -1.
         23    2    1    2    0    0 -0.10080669814E+04  0.51946680218E+03  0.93717102860E+03  0.14740532717E+04  0.92188466018E+02 0.  0.
    5000000    2    1    2    0    0  0.10080669814E+04 -0.51946680218E+03  0.14218284149E+04  0.19151278240E+04  0.60006144981E+03 0.  0.
         23    2    4    4    0    0  0.87994616733E+03 -0.27403932583E+03  0.78123834363E+03  0.12113800425E+04  0.87780683210E+02 0.  0.
         23    2    4    4    0    0  0.12812081407E+03 -0.24542747635E+03  0.64059007122E+03  0.70374778152E+03  0.90860945939E+02 0.  0.
          1    1    3    3  502    0 -0.92985712368E+03  0.45975881351E+03  0.82944347909E+03  0.13281524468E+04  0.00000000000E+00 0. -1.
         -1    1    3    3    0  502 -0.78209857720E+02  0.59707988677E+02  0.10772754951E+03  0.14590082481E+03  0.00000000000E+00 0.  1.
         13    1    5    5    0    0  0.70615268188E+03 -0.19155986674E+03  0.64803475867E+03  0.97739236805E+03  0.00000000000E+00 0.  1.
        -13    1    5    5    0    0  0.17379348546E+03 -0.82479459089E+02  0.13320358496E+03  0.23398767447E+03  0.00000000000E+00 0. -1.
          1    1    6    6  503    0  0.76031016055E+02 -0.16694787442E+03  0.31210693053E+03  0.36202630327E+03  0.00000000000E+00 0. -1.
         -1    1    6    6    0  503  0.52089798016E+02 -0.78479601937E+02  0.32848314069E+03  0.34172147825E+03  0.00000000000E+00 0.  1.
<mgrwt>
<rscale>  0 0.11686958E+04</rscale>
<asrwt>0</asrwt>
<pdfrwt beam="1">  1        2 0.44216773E+00 0.11686958E+04</pdfrwt>
<pdfrwt beam="2">  1       -2 0.79244744E-01 0.11686958E+04</pdfrwt>
<totfact> 0.29293742E+00</totfact>
</mgrwt>
</event>
<event>
12    1  0.1335216E-007  0.6113329E+03  0.7818608E-02  0.9882169E-01
          1   -1    0    0  501    0  0.00000000000E+00  0.00000000000E+00  0.13574178019E+04  0.13574178019E+04  0.00000000000E+00 0. -1.
         -1   -1    0    0    0  501 -0.00000000000E+00 -0.00000000000E+00 -0.66137879988E+03  0.66137879988E+03  0.00000000000E+00 0.  1.
         23    2    1    2    0    0 -0.36585647676E+03  0.33381930461E+03  0.10506489635E+04  0.11652841541E+04  0.93475267261E+02 0.  0.
    5000000    2    1    2    0    0  0.36585647676E+03 -0.33381930461E+03 -0.35460996146E+03  0.85351244770E+03  0.59787037382E+03 0.  0.
         23    2    4    4    0    0  0.43627100417E+03 -0.67908438134E+02 -0.33759509788E+03  0.56303975798E+03  0.89996521590E+02 0.  0.
         23    2    4    4    0    0 -0.70414527412E+02 -0.26591086648E+03 -0.17014863572E+02  0.29047268972E+03  0.91750113406E+02 0.  0.
          1    1    3    3  502    0 -0.18719905104E+03  0.23118048406E+03  0.64596249848E+03  0.71116485456E+03  0.00000000000E+00 0. -1.
         -1    1    3    3    0  502 -0.17865742572E+03  0.10263882055E+03  0.40468646498E+03  0.45411929951E+03  0.00000000000E+00 0.  1.
         11    1    5    5    0    0  0.30582399838E+03 -0.59841154824E+02 -0.18611791628E+03  0.36297267191E+03  0.00000000000E+00 0.  1.
        -11    1    5    5    0    0  0.13044700579E+03 -0.80672833103E+01 -0.15147718160E+03  0.20006708606E+03  0.00000000000E+00 0. -1.
          3    1    6    6  503    0 -0.55459961253E+02 -0.14928002280E+03 -0.52448958170E+02  0.16766402632E+03  0.00000000000E+00 0. -1.
         -3    1    6    6    0  503 -0.14954566159E+02 -0.11663084367E+03  0.35434094598E+02  0.12280866339E+03  0.00000000000E+00 0.  1.
<mgrwt>
<rscale>  0 0.61133286E+03</rscale>
<asrwt>0</asrwt>
<pdfrwt beam="1">  1        1 0.20883351E+00 0.61133286E+03</pdfrwt>
<pdfrwt beam="2">  1       -1 0.10175058E+00 0.61133286E+03</pdfrwt>
<totfact> 0.80106756E+00</totfact>
</mgrwt>
</event>
<event>
12    1  0.1335216E-007  0.1298988E+04  0.7818608E-02  0.9030368E-01
         -2   -1    0    0    0  501 -0.00000000000E+00  0.00000000000E+00  0.63913962660E+03  0.63913962660E+03  0.00000000000E+00 0.  1.
          2   -1    0    0  501    0  0.00000000000E+00 -0.00000000000E+00 -0.28517035954E+04  0.28517035954E+04  0.00000000000E+00 0. -1.
         23    2    1    2    0    0 -0.13771259605E+03 -0.12537702808E+04 -0.13464976107E+04  0.18472722618E+04  0.91947362438E+02 0.  0.
    5000000    2    1    2    0    0  0.13771259605E+03  0.12537702808E+04 -0.86606635813E+03  0.16435709603E+04  0.60029150310E+03 0.  0.
         23    2    4    4    0    0  0.28801549345E+03  0.69570097170E+03 -0.26188642625E+03  0.80235839659E+03  0.90783973439E+02 0.  0.
         23    2    4    4    0    0 -0.15030289740E+03  0.55806930906E+03 -0.60417993188E+03  0.84121256367E+03  0.92589807781E+02 0.  0.
          4    1    3    3  502    0 -0.83325322566E+02 -0.72302966720E+03 -0.84252426813E+03  0.11133562554E+04  0.00000000000E+00 0. -1.
         -4    1    3    3    0  502 -0.54387273484E+02 -0.53074061356E+03 -0.50397334258E+03  0.73391600639E+03  0.00000000000E+00 0.  1.
         13    1    5    5    0    0  0.11950795942E+03  0.37657342110E+03 -0.16901628277E+03  0.42971641542E+03  0.00000000000E+00 0.  1.
        -13    1    5    5    0    0  0.16850753403E+03  0.31912755060E+03 -0.92870143475E+02  0.37264198117E+03  0.00000000000E+00 0. -1.
          3    1    6    6  503    0 -0.11699138961E+03  0.50204250955E+03 -0.56645344567E+03  0.76590023681E+03  0.00000000000E+00 0. -1.
         -3    1    6    6    0  503 -0.33311507793E+02  0.56026799513E+02 -0.37726486212E+02  0.75312326859E+02  0.00000000000E+00 0.  1.
<mgrwt>
<rscale>  0 0.12989882E+04</rscale>
<asrwt>0</asrwt>
<pdfrwt beam="1">  1        2 0.43872363E+00 0.12989882E+04</pdfrwt>
<pdfrwt beam="2">  1       -2 0.98329173E-01 0.12989882E+04</pdfrwt>
<totfact> 0.18056169E+00</totfact>
</mgrwt>
</event>
<event>
12    1  0.1335216E-007  0.4674985E+03  0.7818608E-02  0.1022629E+00
          1   -1    0    0  501    0  0.00000000000E+00  0.00000000000E+00  0.68121929843E+03  0.68121929843E+03  0.00000000000E+00 0. -1.
         -1   -1    0    0    0  501 -0.00000000000E+00 -0.00000000000E+00 -0.73040113284E+03  0.73040113284E+03  0.00000000000E+00 0.  1.
         23    2    1    2    0    0  0.17098262530E+03  0.29826007015E+03  0.43893847866E+03  0.56504572705E+03  0.91736350533E+02 0.  0.
    5000000    2    1    2    0    0 -0.17098262530E+03 -0.29826007015E+03 -0.48812031307E+03  0.84657470422E+03  0.60019427038E+03 0.  0.
         23    2    4    4    0    0 -0.73901838889E+02  0.11381084886E+03  0.36474280462E+02  0.16607476378E+03  0.88521539295E+02 0.  0.
         23    2    4    4    0    0 -0.97080786410E+02 -0.41207091902E+03 -0.52459459353E+03  0.68049994044E+03  0.93024512843E+02 0.  0.
          4    1    3    3  502    0  0.20102112796E+02 -0.94770620995E+00  0.33158331704E+02  0.38787472815E+02  0.00000000000E+00 0. -1.
         -4    1    3    3    0  502  0.15088051250E+03  0.29920777636E+03  0.40578014695E+03  0.52625825424E+03  0.00000000000E+00 0.  1.
         13    1    5    5    0    0 -0.93747486380E+01  0.85319634800E+02 -0.17408073813E+01  0.85850779872E+02  0.00000000000E+00 0.  1.
        -13    1    5    5    0    0 -0.64527090251E+02  0.28491214063E+02  0.38215087843E+02  0.80223983907E+02  0.00000000000E+00 0. -1.
          4    1    6    6  503    0 -0.79108596487E+02 -0.32386733573E+03 -0.34588803577E+03  0.48040270033E+03  0.00000000000E+00 0.  1.
         -4    1    6    6    0  503 -0.17972189923E+02 -0.88203583282E+02 -0.17870655776E+03  0.20009724011E+03  0.00000000000E+00 0. -1.
<mgrwt>
<rscale>  0 0.46749852E+03</rscale>
<asrwt>0</asrwt>
<pdfrwt beam="1">  1        1 0.10480297E+00 0.46749852E+03</pdfrwt>
<pdfrwt beam="2">  1       -1 0.11236940E+00 0.46749852E+03</pdfrwt>
<totfact> 0.21997425E+01</totfact>
</mgrwt>
</event>
<event>
12    1  0.1335216E-007  0.2871696E+03  0.7818608E-02  0.1091836E+00
         -1   -1    0    0    0  501 -0.00000000000E+00  0.00000000000E+00  0.50758385684E+03  0.50758385684E+03  0.00000000000E+00 0.  1.
          1   -1    0    0  501    0  0.00000000000E+00 -0.00000000000E+00 -0.37673049733E+03  0.37673049733E+03  0.00000000000E+00 0. -1.
         23    2    1    2    0    0  0.10193367625E+03  0.11946356393E+01  0.22809581494E+03  0.26815988471E+03  0.97417254433E+02 0.  0.
    5000000    2    1    2    0    0 -0.10193367625E+03 -0.11946356393E+01 -0.97242455436E+02  0.61615446946E+03  0.59983192111E+03 0.  0.
         23    2    4    4    0    0  0.69283766172E+02 -0.16098628037E+03  0.16242181082E+03  0.25600864744E+03  0.91884493852E+02 0.  0.
         23    2    4    4    0    0 -0.17121744243E+03  0.15979164474E+03 -0.25966426625E+03  0.36014582202E+03  0.86201505975E+02 0.  0.
          4    1    3    3  502    0  0.69146014639E+02  0.43378294240E+02  0.98134097604E+02  0.12764461941E+03  0.00000000000E+00 0. -1.
         -4    1    3    3    0  502  0.32787661615E+02 -0.42183658601E+02  0.12996171734E+03  0.14051526530E+03  0.00000000000E+00 0.  1.
         13    1    5    5    0    0  0.60866509424E+02 -0.32633165463E+02  0.51354217753E+02  0.86063413474E+02  0.00000000000E+00 0. -1.
        -13    1    5    5    0    0  0.84172567481E+01 -0.12835311491E+03  0.11106759306E+03  0.16994523396E+03  0.00000000000E+00 0.  1.
          2    1    6    6  503    0 -0.48689806441E+02  0.85246194536E+02 -0.15142365887E+03  0.18046255955E+03  0.00000000000E+00 0. -1.
         -2    1    6    6    0  503 -0.12252763598E+03  0.74545450199E+02 -0.10824060739E+03  0.17968326247E+03  0.00000000000E+00 0.  1.
<mgrwt>
<rscale>  0 0.28716958E+03</rscale>
<asrwt>0</asrwt>
<pdfrwt beam="1">  1        1 0.57958538E-01 0.28716958E+03</pdfrwt>
<pdfrwt beam="2">  1       -1 0.78089824E-01 0.28716958E+03</pdfrwt>
<totfact> 0.11324071E+02</totfact>
</mgrwt>
</event>
<event>
12    1  0.1335216E-007  0.4348483E+03  0.7818608E-02  0.1032339E+00
          2   -1    0    0  501    0  0.00000000000E+00  0.00000000000E+00  0.14878121204E+04  0.14878121204E+04  0.00000000000E+00 0. -1.
         -2   -1    0    0    0  501 -0.00000000000E+00 -0.00000000000E+00 -0.14259430774E+03  0.14259430774E+03  0.00000000000E+00 0.  1.
         23    2    1    2    0    0  0.19575516552E+03  0.13915642964E+03  0.53809960235E+03  0.59634247532E+03  0.91589131881E+02 0.  0.
    5000000    2    1    2    0    0 -0.19575516552E+03 -0.13915642964E+03  0.80711821030E+03  0.10340639528E+04  0.60013653144E+03 0.  0.
         23    2    4    4    0    0  0.19434464786E+03 -0.96007475888E+02  0.38353934216E+03  0.44938727747E+03  0.88652245243E+02 0.  0.
         23    2    4    4    0    0 -0.39009981338E+03 -0.43148953755E+02  0.42357886814E+03  0.58467667534E+03  0.91586355695E+02 0.  0.
          4    1    3    3  502    0  0.31043121504E+02  0.57596761186E+02  0.21370323012E+03  0.22349526361E+03  0.00000000000E+00 0. -1.
         -4    1    3    3    0  502  0.16471204401E+03  0.81559668457E+02  0.32439637223E+03  0.37284721171E+03  0.00000000000E+00 0.  1.
         11    1    5    5    0    0  0.13758010528E+03 -0.34105794165E+02  0.29535570149E+03  0.32760720530E+03  0.00000000000E+00 0.  1.
        -11    1    5    5    0    0  0.56764542576E+02 -0.61901681723E+02  0.88183640676E+02  0.12178007217E+03  0.00000000000E+00 0. -1.
          1    1    6    6  503    0 -0.28467925285E+03 -0.50231509492E+02  0.25367441416E+03  0.38459873888E+03  0.00000000000E+00 0. -1.
         -1    1    6    6    0  503 -0.10542056053E+03  0.70825557372E+01  0.16990445398E+03  0.20007793646E+03  0.00000000000E+00 0.  1.
<mgrwt>
<rscale>  0 0.43484831E+03</rscale>
<asrwt>0</asrwt>
<pdfrwt beam="1">  1        2 0.22889416E+00 0.43484831E+03</pdfrwt>
<pdfrwt beam="2">  1       -2 0.21937587E-01 0.43484831E+03</pdfrwt>
<totfact> 0.24389402E+02</totfact>
</mgrwt>
</event>
<event>
12    1  0.1335216E-007  0.9200870E+03  0.7818608E-02  0.9400814E-01
          1   -1    0    0  501    0  0.00000000000E+00  0.00000000000E+00  0.81630871480E+03  0.81630871480E+03  0.00000000000E+00 0. -1.
         -1   -1    0    0    0  501 -0.00000000000E+00 -0.00000000000E+00 -0.10589720255E+04  0.10589720255E+04  0.00000000000E+00 0.  1.
         23    2    1    2    0    0  0.67926330359E+03  0.47796636739E+03 -0.97121361639E+02  0.84118271593E+03  0.91133521381E+02 0.  0.
    5000000    2    1    2    0    0 -0.67926330359E+03 -0.47796636739E+03 -0.14554194910E+03  0.10340980244E+04  0.59860319176E+03 0.  0.
         23    2    4    4    0    0  0.11302479251E+02 -0.28493021872E+03 -0.72675449230E+02  0.30801678729E+03  0.90992553294E+02 0.  0.
         23    2    4    4    0    0 -0.69056578284E+03 -0.19303614868E+03 -0.72866499869E+02  0.72608123713E+03  0.87979434951E+02 0.  0.
          3    1    3    3  502    0  0.42485133153E+03  0.32397683709E+03 -0.23404148264E+02  0.53479659594E+03  0.00000000000E+00 0. -1.
         -3    1    3    3    0  502  0.25441197206E+03  0.15398953030E+03 -0.73717213374E+02  0.30638611999E+03  0.00000000000E+00 0.  1.
         13    1    5    5    0    0  0.27889626668E+02 -0.16240967962E+03 -0.36877431121E+00  0.16478735177E+03  0.00000000000E+00 0.  1.
        -13    1    5    5    0    0 -0.16587147417E+02 -0.12252053910E+03 -0.72306674918E+02  0.14322943551E+03  0.00000000000E+00 0. -1.
          1    1    6    6  503    0 -0.36084437075E+03 -0.13510159460E+03 -0.68078149928E+02  0.39127450116E+03  0.00000000000E+00 0. -1.
         -1    1    6    6    0  503 -0.32972141210E+03 -0.57934554076E+02 -0.47883499410E+01  0.33480673596E+03  0.00000000000E+00 0.  1.
<mgrwt>
<rscale>  0 0.92008704E+03</rscale>
<asrwt>0</asrwt>
<pdfrwt beam="1">  1        1 0.12558596E+00 0.92008704E+03</pdfrwt>
<pdfrwt beam="2">  1       -1 0.16291877E+00 0.92008704E+03</pdfrwt>
<totfact> 0.60136850E+00</totfact>
</mgrwt>
</event>
<event>
12    1  0.1335216E-007  0.1038217E+04  0.7818608E-02  0.9267595E-01
          2   -1    0    0  501    0  0.00000000000E+00  0.00000000000E+00  0.14441871617E+04  0.14441871617E+04  0.00000000000E+00 0. -1.
         -2   -1    0    0    0  501 -0.00000000000E+00 -0.00000000000E+00 -0.79373316087E+03  0.79373316087E+03  0.00000000000E+00 0.  1.
         23    2    1    2    0    0 -0.61015939293E+03  0.74673275197E+03  0.91364481978E+02  0.97200009524E+03  0.80823443024E+02 0.  0.
    5000000    2    1    2    0    0  0.61015939293E+03 -0.74673275197E+03  0.55908951886E+03  0.12659202273E+04  0.60005720082E+03 0.  0.
         23    2    4    4    0    0  0.67289892659E+03 -0.47453205829E+03  0.50339328456E+03  0.96936563639E+03  0.91056566595E+02 0.  0.
         23    2    4    4    0    0 -0.62739533660E+02 -0.27220069368E+03  0.55696234300E+02  0.29655459095E+03  0.82541433088E+02 0.  0.
          1    1    3    3  502    0 -0.79124474227E+02  0.60021623746E+02  0.20731817261E+01  0.99335672451E+02  0.00000000000E+00 0. -1.
         -1    1    3    3    0  502 -0.53103491871E+03  0.68671112822E+03  0.89291300252E+02  0.87266442279E+03  0.00000000000E+00 0.  1.
         13    1    5    5    0    0  0.28149651886E+03 -0.16947775885E+03  0.15681077986E+03  0.36407776856E+03  0.00000000000E+00 0.  1.
        -13    1    5    5    0    0  0.39140240773E+03 -0.30505429943E+03  0.34658250470E+03  0.60528786783E+03  0.00000000000E+00 0. -1.
          3    1    6    6  503    0 -0.57293086147E+02 -0.13182721673E+03  0.60596862882E+02  0.15599004001E+03  0.00000000000E+00 0. -1.
         -3    1    6    6    0  503 -0.54464475126E+01 -0.14037347695E+03 -0.49006285817E+01  0.14056455094E+03  0.00000000000E+00 0.  1.
<mgrwt>
<rscale>  0 0.10382167E+04</rscale>
<asrwt>0</asrwt>
<pdfrwt beam="1">  1        2 0.22218264E+00 0.10382167E+04</pdfrwt>
<pdfrwt beam="2">  1       -2 0.12211279E+00 0.10382167E+04</pdfrwt>
<totfact> 0.68694121E+00</totfact>
</mgrwt>
</event>
<event>
12    1  0.1335216E-007  0.6541547E+03  0.7818608E-02  0.9799014E-01
         -2   -1    0    0    0  501 -0.00000000000E+00  0.00000000000E+00  0.43495349156E+03  0.43495349156E+03  0.00000000000E+00 0.  1.
          2   -1    0    0  501    0  0.00000000000E+00 -0.00000000000E+00 -0.13503141392E+04  0.13503141392E+04  0.00000000000E+00 0. -1.
         23    2    1    2    0    0 -0.51519708058E+03 -0.36479470554E+03 -0.54324063629E+03  0.83802101720E+03  0.93089351247E+02 0.  0.
    5000000    2    1    2    0    0  0.51519708058E+03  0.36479470554E+03 -0.37212001135E+03  0.94724661357E+03  0.60024964394E+03 0.  0.
         23    2    4    4    0    0  0.41562104146E+03  0.38655465056E+03 -0.25943479415E+02  0.57545026340E+03  0.91129542680E+02 0.  0.
         23    2    4    4    0    0  0.99576039118E+02 -0.21759945013E+02 -0.34617653194E+03  0.37179635017E+03  0.89473191315E+02 0.  0.
          3    1    3    3  502    0 -0.16557640310E+03 -0.10402698462E+03 -0.22503251901E+03  0.29812211156E+03  0.00000000000E+00 0. -1.
         -3    1    3    3    0  502 -0.34962067749E+03 -0.26076772092E+03 -0.31820811728E+03  0.53989890563E+03  0.00000000000E+00 0.  1.
         11    1    5    5    0    0  0.18052204130E+03  0.22639653003E+03 -0.28628390379E+02  0.29096938145E+03  0.00000000000E+00 0. -1.
        -11    1    5    5    0    0  0.23509900017E+03  0.16015812052E+03  0.26849109634E+01  0.28448088195E+03  0.00000000000E+00 0.  1.
          3    1    6    6  503    0  0.55980488225E+02 -0.18094893672E+02 -0.30849989392E+03  0.31405958795E+03  0.00000000000E+00 0. -1.
         -3    1    6    6    0  503  0.43595550894E+02 -0.36650513411E+01 -0.37676638021E+02  0.57736762220E+02  0.00000000000E+00 0.  1.
<mgrwt>
<rscale>  0 0.65415470E+03</rscale>
<asrwt>0</asrwt>
<pdfrwt beam="1">  1        2 0.20774064E+00 0.65415470E+03</pdfrwt>
<pdfrwt beam="2">  1       -2 0.66915922E-01 0.65415470E+03</pdfrwt>
<totfact> 0.32708047E+01</totfact>
</mgrwt>
</event>
<event>
12    1  0.1335216E-007  0.8994122E+03  0.7818608E-02  0.9426316E-01
         -4   -1    0    0    0  501 -0.00000000000E+00  0.00000000000E+00  0.23242119918E+04  0.23242119918E+04  0.00000000000E+00 0.  1.
          4   -1    0    0  501    0  0.00000000000E+00 -0.00000000000E+00 -0.41987686314E+03  0.41987686314E+03  0.00000000000E+00 0. -1.
         23    2    1    2    0    0  0.86711619355E+03  0.12759676801E+03  0.62029161494E+03  0.10775987707E+04  0.91027439573E+02 0.  0.
    5000000    2    1    2    0    0 -0.86711619355E+03 -0.12759676801E+03  0.12840435137E+04  0.16664900842E+04  0.60020832001E+03 0.  0.
         23    2    4    4    0    0 -0.59535147180E+03 -0.19676840595E+03  0.43844901823E+03  0.77071057273E+03  0.92714965241E+02 0.  0.
         23    2    4    4    0    0 -0.27176472175E+03  0.69171637943E+02  0.84559449549E+03  0.89577951150E+03  0.93541984930E+02 0.  0.
          1    1    3    3  502    0  0.55420144264E+03  0.95988902735E+02  0.34652805113E+03  0.66063212054E+03  0.00000000000E+00 0. -1.
         -1    1    3    3    0  502  0.31291475090E+03  0.31607865270E+02  0.27376356381E+03  0.41696665016E+03  0.00000000000E+00 0.  1.
         13    1    5    5    0    0 -0.56515921986E+03 -0.17292852365E+03  0.43110352029E+03  0.73154594066E+03  0.00000000000E+00 0.  1.
        -13    1    5    5    0    0 -0.30192251942E+02 -0.23839882302E+02  0.73454979304E+01  0.39164632072E+02  0.00000000000E+00 0. -1.
          3    1    6    6  503    0 -0.17239062426E+02 -0.16451637873E+02  0.11380207666E+03  0.11627017810E+03  0.00000000000E+00 0. -1.
         -3    1    6    6    0  503 -0.25452565932E+03  0.85623275816E+02  0.73179241883E+03  0.77950933340E+03  0.00000000000E+00 0.  1.
<mgrwt>
<rscale>  0 0.89941224E+03</rscale>
<asrwt>0</asrwt>
<pdfrwt beam="1">  1        4 0.64596442E-01 0.89941224E+03</pdfrwt>
<pdfrwt beam="2">  1       -4 0.35757107E+00 0.89941224E+03</pdfrwt>
<totfact> 0.59292765E-02</totfact>
</mgrwt>
</event>
<event>
12    1  0.1335216E-007  0.8451406E+03  0.7818608E-02  0.9496882E-01
          2   -1    0    0  501    0  0.00000000000E+00  0.00000000000E+00  0.57580369563E+03  0.57580369563E+03  0.00000000000E+00 0. -1.
         -2   -1    0    0    0  501 -0.00000000000E+00 -0.00000000000E+00 -0.14669131525E+04  0.14669131525E+04  0.00000000000E+00 0.  1.
         23    2    1    2    0    0  0.75142836649E+03  0.76705576014E+02 -0.74883890718E+03  0.10674723272E+04  0.90604221963E+02 0.  0.
    5000000    2    1    2    0    0 -0.75142836649E+03 -0.76705576014E+02 -0.14227054968E+03  0.97524452094E+03  0.60027712846E+03 0.  0.
         23    2    4    4    0    0 -0.72045338222E+03  0.11993768044E+03 -0.16727414891E+03  0.75536176840E+03  0.95669415826E+02 0.  0.
         23    2    4    4    0    0 -0.30974984274E+02 -0.19664325645E+03  0.25003599230E+02  0.21988275254E+03  0.89973467931E+02 0.  0.
          1    1    3    3  502    0  0.10422662928E+03 -0.11434203603E+02 -0.13677304828E+03  0.17233919462E+03  0.00000000000E+00 0. -1.
         -1    1    3    3    0  502  0.64720173721E+03  0.88139779616E+02 -0.61206585889E+03  0.89513313257E+03  0.00000000000E+00 0.  1.
         11    1    5    5    0    0 -0.55256429555E+03  0.96009776551E+02 -0.86329336192E+02  0.56744861635E+03  0.00000000000E+00 0. -1.
        -11    1    5    5    0    0 -0.16788908667E+03  0.23927903887E+02 -0.80944812715E+02  0.18791315205E+03  0.00000000000E+00 0.  1.
          4    1    6    6  503    0 -0.26802166391E+02 -0.67681141580E+02  0.50187056040E+02  0.88418514140E+02  0.00000000000E+00 0. -1.
         -4    1    6    6    0  503 -0.41728178833E+01 -0.12896211487E+03 -0.25183456809E+02  0.13146423840E+03  0.00000000000E+00 0.  1.
<mgrwt>
<rscale>  0 0.84514060E+03</rscale>
<asrwt>0</asrwt>
<pdfrwt beam="1">  1        2 0.88585184E-01 0.84514060E+03</pdfrwt>
<pdfrwt beam="2">  1       -2 0.22567895E+00 0.84514060E+03</pdfrwt>
<totfact> 0.48038926E+00</totfact>
</mgrwt>
</event>
<event>
12    1  0.1335216E-007  0.9038650E+03  0.7818608E-02  0.9420763E-01
          1   -1    0    0  501    0  0.00000000000E+00  0.00000000000E+00  0.20573411250E+04  0.20573411250E+04  0.00000000000E+00 0. -1.
         -1   -1    0    0    0  501 -0.00000000000E+00 -0.00000000000E+00 -0.50628454781E+03  0.50628454781E+03  0.00000000000E+00 0.  1.
         23    2    1    2    0    0  0.81516561227E+03 -0.25319763326E+02  0.14838649962E+03  0.83371930865E+03  0.89068886216E+02 0.  0.
    5000000    2    1    2    0    0 -0.81516561227E+03  0.25319763326E+02  0.14026700776E+04  0.17299063641E+04  0.59996384588E+03 0.  0.
         23    2    4    4    0    0 -0.62559572630E+03  0.25339601366E+03  0.79036207305E+03  0.10433456903E+04  0.91205649078E+02 0.  0.
         23    2    4    4    0    0 -0.18956988598E+03 -0.22807625033E+03  0.61230800451E+03  0.68656067385E+03  0.92135491847E+02 0.  0.
          1    1    3    3  502    0  0.73205416343E+03 -0.42619821230E+02  0.11389079819E+03  0.74208548111E+03  0.00000000000E+00 0. -1.
         -1    1    3    3    0  502  0.83111448843E+02  0.17300057905E+02  0.34495701430E+02  0.91633827539E+02  0.00000000000E+00 0.  1.
         13    1    5    5    0    0 -0.16465488243E+03  0.10510460716E+03  0.25983410934E+03  0.32507225832E+03  0.00000000000E+00 0.  1.
        -13    1    5    5    0    0 -0.46094084387E+03  0.14829140650E+03  0.53052796371E+03  0.71827343196E+03  0.00000000000E+00 0. -1.
          4    1    6    6  503    0 -0.12889872580E+03 -0.84503350909E+02  0.32505759826E+03  0.35974732802E+03  0.00000000000E+00 0. -1.
         -4    1    6    6    0  503 -0.60671160179E+02 -0.14357289943E+03  0.28725040624E+03  0.32681334583E+03  0.00000000000E+00 0.  1.
<mgrwt>
<rscale>  0 0.90386501E+03</rscale>
<asrwt>0</asrwt>
<pdfrwt beam="1">  1        1 0.31651401E+00 0.90386501E+03</pdfrwt>
<pdfrwt beam="2">  1       -1 0.77889932E-01 0.90386501E+03</pdfrwt>
<totfact> 0.46133409E+00</totfact>
</mgrwt>
</event>
<event>
12    1  0.1335216E-007  0.7912565E+03  0.7818608E-02  0.9572760E-01
          2   -1    0    0  501    0  0.00000000000E+00  0.00000000000E+00  0.75658727845E+03  0.75658727845E+03  0.00000000000E+00 0. -1.
         -2   -1    0    0    0  501 -0.00000000000E+00 -0.00000000000E+00 -0.16418147843E+04  0.16418147843E+04  0.00000000000E+00 0.  1.
         23    2    1    2    0    0  0.94691202865E+02  0.68439829862E+03 -0.12356274090E+04  0.14185551773E+04  0.90311916281E+02 0.  0.
    5000000    2    1    2    0    0 -0.94691202865E+02 -0.68439829862E+03  0.35039990315E+03  0.97984688542E+03  0.59996030842E+03 0.  0.
         23    2    4    4    0    0 -0.31861305026E+03 -0.31881704764E+03  0.27612005789E+03  0.53560135323E+03  0.86417229458E+02 0.  0.
         23    2    4    4    0    0  0.22392184739E+03 -0.36558125098E+03  0.74279845261E+02  0.44424553219E+03  0.89699234402E+02 0.  0.
          3    1    3    3  502    0  0.45057055258E+02  0.50394577933E+03 -0.96376302700E+03  0.10884992692E+04  0.00000000000E+00 0. -1.
         -3    1    3    3    0  502  0.49634147607E+02  0.18045251929E+03 -0.27186438199E+03  0.33005590817E+03  0.00000000000E+00 0.  1.
         13    1    5    5    0    0 -0.17469899393E+03 -0.23304117226E+03  0.16864966752E+03  0.33655703351E+03  0.00000000000E+00 0. -1.
        -13    1    5    5    0    0 -0.14391405633E+03 -0.85775875379E+02  0.10747039037E+03  0.19904431972E+03  0.00000000000E+00 0.  1.
          1    1    6    6  503    0  0.73196149953E+02 -0.15749735254E+03 -0.96602146006E+01  0.17394370403E+03  0.00000000000E+00 0. -1.
         -1    1    6    6    0  503  0.15072569744E+03 -0.20808389844E+03  0.83940059862E+02  0.27030182816E+03  0.00000000000E+00 0.  1.
<mgrwt>
<rscale>  0 0.79125653E+03</rscale>
<asrwt>0</asrwt>
<pdfrwt beam="1">  1        2 0.11639804E+00 0.79125653E+03</pdfrwt>
<pdfrwt beam="2">  1       -2 0.25258689E+00 0.79125653E+03</pdfrwt>
<totfact> 0.23554022E+00</totfact>
</mgrwt>
</event>
<event>
12    1  0.1674008E-007  0.1008668E+04  0.7818608E-02  0.9299089E-01
         -2   -1    0    0    0  501 -0.00000000000E+00  0.00000000000E+00  0.49877598589E+03  0.49877598589E+03  0.00000000000E+00 0.  1.
          2   -1    0    0  501    0  0.00000000000E+00 -0.00000000000E+00 -0.21270018637E+04  0.21270018637E+04  0.00000000000E+00 0. -1.
         23    2    1    2    0    0 -0.88026057306E+03 -0.32909792334E+03 -0.79778194749E+03  0.12352714564E+04  0.79217521520E+02 0.  0.
    5000000    2    1    2    0    0  0.88026057306E+03  0.32909792334E+03 -0.83044393036E+03  0.13905063932E+04  0.60058870154E+03 0.  0.
         23    2    4    4    0    0 -0.23229612392E+02  0.14447139384E+03 -0.50962859597E+02  0.17965372875E+03  0.90921123307E+02 0.  0.
         23    2    4    4    0    0  0.90349018545E+03  0.18462652950E+03 -0.77948107077E+03  0.12108526644E+04  0.90509473127E+02 0.  0.
          2    1    3    3  502    0 -0.45418029621E+03 -0.19021058496E+03 -0.37218722525E+03  0.61723831600E+03  0.00000000000E+00 0. -1.
         -2    1    3    3    0  502 -0.42608027684E+03 -0.13888733838E+03 -0.42559472224E+03  0.61803314043E+03  0.00000000000E+00 0.  1.
         13    1    5    5    0    0 -0.31493703463E+02  0.68331846670E+02  0.17139085419E+02  0.77167628421E+02  0.00000000000E+00 0.  1.
        -13    1    5    5    0    0  0.82640910718E+01  0.76139547172E+02 -0.68101945016E+02  0.10248610032E+03  0.00000000000E+00 0. -1.
          1    1    6    6  503    0  0.32321384639E+03  0.10140632248E+03 -0.25123830541E+03  0.42174769572E+03  0.00000000000E+00 0. -1.
         -1    1    6    6    0  503  0.58027633906E+03  0.83220207017E+02 -0.52824276536E+03  0.78910496873E+03  0.00000000000E+00 0.  1.
<mgrwt>
<rscale>  0 0.10086680E+04</rscale>
<asrwt>0</asrwt>
<pdfrwt beam="1">  1        2 0.32723106E+00 0.10086680E+04</pdfrwt>
<pdfrwt beam="2">  1       -2 0.76734765E-01 0.10086680E+04</pdfrwt>
<totfact> 0.86397045E+00</totfact>
</mgrwt>
</event>
<event>
12    1  0.1335216E-007  0.9158043E+03  0.7818608E-02  0.9406038E-01
          2   -1    0    0  501    0  0.00000000000E+00  0.00000000000E+00  0.13248633161E+04  0.13248633161E+04  0.00000000000E+00 0. -1.
         -2   -1    0    0    0  501 -0.00000000000E+00 -0.00000000000E+00 -0.67234719486E+03  0.67234719486E+03  0.00000000000E+00 0.  1.
         23    2    1    2    0    0 -0.81570503589E+03  0.22389812410E+03  0.29234643667E+03  0.89934097831E+03  0.88558910849E+02 0.  0.
    5000000    2    1    2    0    0  0.81570503589E+03 -0.22389812410E+03  0.36016968462E+03  0.10978695327E+04  0.60007518991E+03 0.  0.
         23    2    4    4    0    0  0.92867748587E+01 -0.15602362155E+03 -0.52663823541E+02  0.18503616667E+03  0.83876635584E+02 0.  0.
         23    2    4    4    0    0  0.80641826103E+03 -0.67874502554E+02  0.41283350816E+03  0.91283336603E+03  0.88971281053E+02 0.  0.
          3    1    3    3  502    0 -0.21742588792E+03  0.49734845269E+02  0.11781560778E+03  0.25224608819E+03  0.00000000000E+00 0. -1.
         -3    1    3    3    0  502 -0.59827914797E+03  0.17416327883E+03  0.17453082888E+03  0.64709489012E+03  0.00000000000E+00 0.  1.
         11    1    5    5    0    0 -0.10986513213E+02  0.41058575493E+01 -0.15443844766E+02  0.19392624370E+02  0.00000000000E+00 0.  1.
        -11    1    5    5    0    0  0.20273288072E+02 -0.16012947909E+03 -0.37219978775E+02  0.16564354230E+03  0.00000000000E+00 0. -1.
          1    1    6    6  503    0  0.49626797784E+03 -0.76036289146E+02  0.28465138509E+03  0.57713935417E+03  0.00000000000E+00 0. -1.
         -1    1    6    6    0  503  0.31015028318E+03  0.81617865924E+01  0.12818212308E+03  0.33569401186E+03  0.00000000000E+00 0.  1.
<mgrwt>
<rscale>  0 0.91580433E+03</rscale>
<asrwt>0</asrwt>
<pdfrwt beam="1">  1        2 0.20382512E+00 0.91580433E+03</pdfrwt>
<pdfrwt beam="2">  1       -2 0.10343803E+00 0.91580433E+03</pdfrwt>
<totfact> 0.12213994E+01</totfact>
</mgrwt>
</event>
<event>
12    1  0.1335216E-007  0.6103982E+03  0.7818608E-02  0.9884065E-01
         -1   -1    0    0    0  501 -0.00000000000E+00  0.00000000000E+00  0.85058158203E+03  0.85058158203E+03  0.00000000000E+00 0.  1.
          1   -1    0    0  501    0  0.00000000000E+00 -0.00000000000E+00 -0.78323886705E+03  0.78323886705E+03  0.00000000000E+00 0. -1.
         23    2    1    2    0    0  0.14810798791E+03  0.46757934165E+03 -0.47431852578E+03  0.68833447502E+03  0.90883820224E+02 0.  0.
    5000000    2    1    2    0    0 -0.14810798791E+03 -0.46757934165E+03  0.54166124076E+03  0.94548597407E+03  0.59998367528E+03 0.  0.
         23    2    4    4    0    0 -0.84212057629E+02  0.10566295524E+03  0.23560088627E+02  0.16466236472E+03  0.91116879990E+02 0.  0.
         23    2    4    4    0    0 -0.63895930278E+02 -0.57324229689E+03  0.51810115213E+03  0.78082360935E+03  0.92559625268E+02 0.  0.
          3    1    3    3  502    0  0.39326285510E+01 -0.37523566610E+01 -0.89082332299E+01  0.10435629694E+02  0.00000000000E+00 0. -1.
         -3    1    3    3    0  502  0.14417535936E+03  0.47133169831E+03 -0.46541029255E+03  0.67789884532E+03  0.00000000000E+00 0.  1.
         11    1    5    5    0    0 -0.89712069047E+02  0.94305206007E+02  0.46716922005E+02  0.13829026724E+03  0.00000000000E+00 0.  1.
        -11    1    5    5    0    0  0.55000114175E+01  0.11357749231E+02 -0.23156833378E+02  0.26372097476E+02  0.00000000000E+00 0. -1.
          4    1    6    6  503    0 -0.69924254584E+02 -0.38154352780E+03  0.39080530402E+03  0.55063023041E+03  0.00000000000E+00 0. -1.
         -4    1    6    6    0  503  0.60283243063E+01 -0.19169876908E+03  0.12729584811E+03  0.23019337894E+03  0.00000000000E+00 0.  1.
<mgrwt>
<rscale>  0 0.61039822E+03</rscale>
<asrwt>0</asrwt>
<pdfrwt beam="1">  1        1 0.12049829E+00 0.61039822E+03</pdfrwt>
<pdfrwt beam="2">  1       -1 0.13085870E+00 0.61039822E+03</pdfrwt>
<totfact> 0.11987825E+01</totfact>
</mgrwt>
</event>
<event>
12    1  0.1335216E-007  0.1404003E+04  0.7818608E-02  0.8950926E-01
         -1   -1    0    0    0  501 -0.00000000000E+00  0.00000000000E+00  0.10834495298E+04  0.10834495298E+04  0.00000000000E+00 0.  1.
          1   -1    0    0  501    0  0.00000000000E+00 -0.00000000000E+00 -0.21737708363E+04  0.21737708363E+04  0.00000000000E+00 0. -1.
         23    2    1    2    0    0  0.13420166589E+04  0.29109031936E+03 -0.10949101221E+04  0.17586273726E+04  0.90552599256E+02 0.  0.
    5000000    2    1    2    0    0 -0.13420166589E+04 -0.29109031936E+03  0.45888155861E+01  0.14985929935E+04  0.60001468006E+03 0.  0.
         23    2    4    4    0    0 -0.65156799853E+03 -0.32768380083E+03 -0.21847909973E+03  0.76681159623E+03  0.91374925773E+02 0.  0.
         23    2    4    4    0    0 -0.69044866036E+03  0.36593481467E+02  0.22306791532E+03  0.73178139731E+03  0.87671449881E+02 0.  0.
          1    1    3    3  502    0  0.30340491312E+03  0.28209602196E+02 -0.23254044965E+03  0.38330847067E+03  0.00000000000E+00 0. -1.
         -1    1    3    3    0  502  0.10386117458E+04  0.26288071716E+03 -0.86236967248E+03  0.13753189019E+04  0.00000000000E+00 0.  1.
         13    1    5    5    0    0 -0.18538990394E+03 -0.48450560795E+02 -0.57941561828E+02  0.20018515907E+03  0.00000000000E+00 0.  1.
        -13    1    5    5    0    0 -0.46617809460E+03 -0.27923324003E+03 -0.16053753790E+03  0.56662643717E+03  0.00000000000E+00 0. -1.
          3    1    6    6  503    0 -0.13347501578E+03 -0.27423675811E+02  0.47109173725E+02  0.14417666969E+03  0.00000000000E+00 0. -1.
         -3    1    6    6    0  503 -0.55697364458E+03  0.64017157278E+02  0.17595874159E+03  0.58760472762E+03  0.00000000000E+00 0.  1.
<mgrwt>
<rscale>  0 0.14040032E+04</rscale>
<asrwt>0</asrwt>
<pdfrwt beam="1">  1        1 0.33442628E+00 0.14040032E+04</pdfrwt>
<pdfrwt beam="2">  1       -1 0.16668454E+00 0.14040032E+04</pdfrwt>
<totfact> 0.56637805E-01</totfact>
</mgrwt>
</event>
<event>
12    1  0.1335216E-007  0.5863909E+03  0.7818608E-02  0.9934050E-01
         -2   -1    0    0    0  501 -0.00000000000E+00  0.00000000000E+00  0.15078710282E+04  0.15078710282E+04  0.00000000000E+00 0.  1.
          2   -1    0    0  501    0  0.00000000000E+00 -0.00000000000E+00 -0.28471282544E+03  0.28471282544E+03  0.00000000000E+00 0. -1.
         23    2    1    2    0    0  0.33842852154E+03 -0.36473186570E+03  0.31388012793E+03  0.59504205877E+03  0.89393058731E+02 0.  0.
    5000000    2    1    2    0    0 -0.33842852154E+03  0.36473186570E+03  0.90927807488E+03  0.11975417949E+04  0.59979707823E+03 0.  0.
         23    2    4    4    0    0 -0.32937489716E+03  0.46226887048E+03  0.89353490541E+03  0.10630111345E+04  0.96993367722E+02 0.  0.
         23    2    4    4    0    0 -0.90536243767E+01 -0.97537004781E+02  0.15743169468E+02  0.13453066041E+03  0.90858218067E+02 0.  0.
          3    1    3    3  502    0  0.16493825173E+03 -0.15566257744E+03  0.19252695872E+03  0.29749301628E+03  0.00000000000E+00 0. -1.
         -3    1    3    3    0  502  0.17349026981E+03 -0.20906928826E+03  0.12135316920E+03  0.29754904249E+03  0.00000000000E+00 0.  1.
         13    1    5    5    0    0 -0.17107729288E+03  0.31968285038E+03  0.54889214126E+03  0.65783519798E+03  0.00000000000E+00 0.  1.
        -13    1    5    5    0    0 -0.15829760429E+03  0.14258602010E+03  0.34464276415E+03  0.40517593652E+03  0.00000000000E+00 0. -1.
          1    1    6    6  503    0 -0.99631155742E+01 -0.43032001631E+02  0.52631279479E+02  0.68710031407E+02  0.00000000000E+00 0. -1.
         -1    1    6    6    0  503  0.90949119752E+00 -0.54505003149E+02 -0.36888110011E+02  0.65820629006E+02  0.00000000000E+00 0.  1.
<mgrwt>
<rscale>  0 0.58639088E+03</rscale>
<asrwt>0</asrwt>
<pdfrwt beam="1">  1        2 0.43801974E-01 0.58639088E+03</pdfrwt>
<pdfrwt beam="2">  1       -2 0.23198015E+00 0.58639088E+03</pdfrwt>
<totfact> 0.10085195E+01</totfact>
</mgrwt>
</event>
<event>
12    1  0.1335216E-007  0.8562845E+03  0.7818608E-02  0.9481941E-01
         -1   -1    0    0    0  501 -0.00000000000E+00  0.00000000000E+00  0.81622541235E+03  0.81622541235E+03  0.00000000000E+00 0.  1.
          1   -1    0    0  501    0  0.00000000000E+00 -0.00000000000E+00 -0.11841234146E+04  0.11841234146E+04  0.00000000000E+00 0. -1.
         23    2    1    2    0    0  0.66893120358E+03 -0.34633670907E+03  0.31311999123E+03  0.82077042941E+03  0.90564329200E+02 0.  0.
    5000000    2    1    2    0    0 -0.66893120358E+03  0.34633670907E+03 -0.68101799351E+03  0.11795783976E+04  0.60016799095E+03 0.  0.
         23    2    4    4    0    0 -0.25455964966E+02  0.29703052704E+03 -0.22288581234E+03  0.38296461191E+03  0.90048145375E+02 0.  0.
         23    2    4    4    0    0 -0.64347523861E+03  0.49306182021E+02 -0.45813218117E+03  0.79661378566E+03  0.90647370540E+02 0.  0.
          2    1    3    3  502    0  0.33787716160E+03 -0.17739311801E+03  0.20752315279E+03  0.43439055421E+03  0.00000000000E+00 0. -1.
         -2    1    3    3    0  502  0.33105404198E+03 -0.16894359106E+03  0.10559683844E+03  0.38637987520E+03  0.00000000000E+00 0.  1.
         11    1    5    5    0    0  0.28745614985E+02  0.10276277968E+03 -0.10315022991E+03  0.14841317057E+03  0.00000000000E+00 0.  1.
        -11    1    5    5    0    0 -0.54201579952E+02  0.19426774736E+03 -0.11973558243E+03  0.23455144134E+03  0.00000000000E+00 0. -1.
          3    1    6    6  503    0 -0.63270915559E+03  0.60208879476E+02 -0.45288779715E+03  0.78041869631E+03  0.00000000000E+00 0. -1.
         -3    1    6    6    0  503 -0.10766083022E+02 -0.10902697455E+02 -0.52443840210E+01  0.16195089354E+02  0.00000000000E+00 0.  1.
<mgrwt>
<rscale>  0 0.85628449E+03</rscale>
<asrwt>0</asrwt>
<pdfrwt beam="1">  1        1 0.18217283E+00 0.85628449E+03</pdfrwt>
<pdfrwt beam="2">  1       -1 0.12557314E+00 0.85628449E+03</pdfrwt>
<totfact> 0.62011200E+00</totfact>
</mgrwt>
</event>
<event>
12    1  0.1335216E-007  0.3353015E+03  0.7818608E-02  0.1068815E+00
         -1   -1    0    0    0  501 -0.00000000000E+00  0.00000000000E+00  0.15655511152E+03  0.15655511152E+03  0.00000000000E+00 0.  1.
          1   -1    0    0  501    0  0.00000000000E+00 -0.00000000000E+00 -0.15702740841E+04  0.15702740841E+04  0.00000000000E+00 0. -1.
         23    2    1    2    0    0 -0.15156261243E+03 -0.25665990972E+03 -0.33832187469E+03  0.45988826512E+03  0.90498567663E+02 0.  0.
    5000000    2    1    2    0    0  0.15156261243E+03  0.25665990972E+03 -0.10753970979E+04  0.12669409306E+04  0.59984570394E+03 0.  0.
         23    2    4    4    0    0  0.15935233227E+03  0.16898741890E+03 -0.78217788873E+02  0.26183915340E+03  0.92150996810E+02 0.  0.
         23    2    4    4    0    0 -0.77897198342E+01  0.87672490820E+02 -0.99717930905E+03  0.10051017771E+04  0.90088082684E+02 0.  0.
          3    1    3    3  502    0 -0.10626542278E+03 -0.23421428912E+03 -0.30666894714E+03  0.40024307170E+03  0.00000000000E+00 0. -1.
         -3    1    3    3    0  502 -0.45297189651E+02 -0.22445620603E+02 -0.31652927556E+02  0.59645193414E+02  0.00000000000E+00 0.  1.
         11    1    5    5    0    0  0.86379524612E+02  0.28812827334E+02 -0.18615322281E+02  0.92941548915E+02  0.00000000000E+00 0.  1.
        -11    1    5    5    0    0  0.72972807655E+02  0.14017459157E+03 -0.59602466591E+02  0.16889760449E+03  0.00000000000E+00 0. -1.
          4    1    6    6  503    0 -0.15162272817E+02  0.99052739661E+02 -0.65192910124E+03  0.65958539462E+03  0.00000000000E+00 0. -1.
         -4    1    6    6    0  503  0.73725529823E+01 -0.11380248841E+02 -0.34525020781E+03  0.34551638253E+03  0.00000000000E+00 0.  1.
<mgrwt>
<rscale>  0 0.33530153E+03</rscale>
<asrwt>0</asrwt>
<pdfrwt beam="1">  1        1 0.24158062E+00 0.33530153E+03</pdfrwt>
<pdfrwt beam="2">  1       -1 0.24085402E-01 0.33530153E+03</pdfrwt>
<totfact> 0.94756260E+01</totfact>
</mgrwt>
</event>
<event>
12    1  0.1335216E-007  0.6822905E+03  0.7818608E-02  0.9748007E-01
         -2   -1    0    0    0  501 -0.00000000000E+00  0.00000000000E+00  0.71361455989E+03  0.71361455989E+03  0.00000000000E+00 0.  1.
          2   -1    0    0  501    0  0.00000000000E+00 -0.00000000000E+00 -0.98092899427E+03  0.98092899427E+03  0.00000000000E+00 0. -1.
         23    2    1    2    0    0  0.23833630005E+03  0.53781972637E+03 -0.54754415849E+03  0.80880277056E+03  0.91121162097E+02 0.  0.
    5000000    2    1    2    0    0 -0.23833630005E+03 -0.53781972637E+03  0.28022972410E+03  0.88574078360E+03  0.59996148832E+03 0.  0.
         23    2    4    4    0    0  0.14105057111E+03 -0.95682831558E+02  0.22068482947E+03  0.29314635426E+03  0.90457300361E+02 0.  0.
         23    2    4    4    0    0 -0.37938687116E+03 -0.44213689481E+03  0.59544894626E+02  0.59259442934E+03  0.90571140235E+02 0.  0.
          3    1    3    3  502    0  0.15436011680E+03  0.36790733142E+03 -0.31207219463E+03  0.50652927342E+03  0.00000000000E+00 0. -1.
         -3    1    3    3    0  502  0.83976183245E+02  0.16991239495E+03 -0.23547196386E+03  0.30227349714E+03  0.00000000000E+00 0.  1.
         11    1    5    5    0    0  0.64714468398E+02 -0.96979496993E+02  0.13553840352E+03  0.17878379145E+03  0.00000000000E+00 0. -1.
        -11    1    5    5    0    0  0.76336102716E+02  0.12966654344E+01  0.85146425956E+02  0.11436256281E+03  0.00000000000E+00 0.  1.
          3    1    6    6  503    0 -0.11547461533E+03 -0.11725539199E+03  0.56558830643E+02  0.17401757112E+03  0.00000000000E+00 0. -1.
         -3    1    6    6    0  503 -0.26391225583E+03 -0.32488150283E+03  0.29860639830E+01  0.41857685822E+03  0.00000000000E+00 0.  1.
<mgrwt>
<rscale>  0 0.68229045E+03</rscale>
<asrwt>0</asrwt>
<pdfrwt beam="1">  1        2 0.15091215E+00 0.68229045E+03</pdfrwt>
<pdfrwt beam="2">  1       -2 0.10978686E+00 0.68229045E+03</pdfrwt>
<totfact> 0.17520109E+01</totfact>
</mgrwt>
</event>
<event>
12    1  0.1335216E-007  0.4917156E+03  0.7818608E-02  0.1015964E+00
          2   -1    0    0  501    0  0.00000000000E+00  0.00000000000E+00  0.38938667714E+03  0.38938667714E+03  0.00000000000E+00 0. -1.
         -2   -1    0    0    0  501 -0.00000000000E+00 -0.00000000000E+00 -0.10719343394E+04  0.10719343394E+04  0.00000000000E+00 0.  1.
         23    2    1    2    0    0 -0.17028110453E+03 -0.38348328421E+03 -0.58097445905E+03  0.72204371238E+03  0.88094929981E+02 0.  0.
    5000000    2    1    2    0    0  0.17028110453E+03  0.38348328421E+03 -0.10157320319E+03  0.73927730413E+03  0.60013226290E+03 0.  0.
         23    2    4    4    0    0  0.11652687549E+03  0.43271308235E+03  0.13379337612E+03  0.47654040263E+03  0.91492969641E+02 0.  0.
         23    2    4    4    0    0  0.53754229040E+02 -0.49229798140E+02 -0.23536657931E+03  0.26273690151E+03  0.91214925279E+02 0.  0.
          2    1    3    3  502    0 -0.14774582386E+03 -0.24273275251E+03 -0.41912458395E+03  0.50637282162E+03  0.00000000000E+00 0. -1.
         -2    1    3    3    0  502 -0.22535280671E+02 -0.14075053170E+03 -0.16184987510E+03  0.21567089076E+03  0.00000000000E+00 0.  1.
         13    1    5    5    0    0  0.24244672888E+01  0.18019312439E+03  0.56538743662E+02  0.18887051028E+03  0.00000000000E+00 0.  1.
        -13    1    5    5    0    0  0.11410240821E+03  0.25251995796E+03  0.77254632458E+02  0.28766989235E+03  0.00000000000E+00 0. -1.
          4    1    6    6  503    0  0.69791906130E+02 -0.44180917113E+02 -0.11721700475E+03  0.14339696580E+03  0.00000000000E+00 0.  1.
         -4    1    6    6    0  503 -0.16037677090E+02 -0.50488810268E+01 -0.11814957456E+03  0.11933993571E+03  0.00000000000E+00 0. -1.
<mgrwt>
<rscale>  0 0.49171556E+03</rscale>
<asrwt>0</asrwt>
<pdfrwt beam="1">  1        2 0.59905644E-01 0.49171556E+03</pdfrwt>
<pdfrwt beam="2">  1       -2 0.16491297E+00 0.49171556E+03</pdfrwt>
<totfact> 0.19792448E+01</totfact>
</mgrwt>
</event>
<event>
12    1  0.1335216E-007  0.7334726E+03  0.7818608E-02  0.9661642E-01
          2   -1    0    0  501    0  0.00000000000E+00  0.00000000000E+00  0.83620716553E+03  0.83620716553E+03  0.00000000000E+00 0.  1.
         -2   -1    0    0    0  501 -0.00000000000E+00 -0.00000000000E+00 -0.80350726458E+03  0.80350726458E+03  0.00000000000E+00 0. -1.
         23    2    1    2    0    0  0.67733328035E+03  0.16115204375E+03  0.13531245858E+03  0.71483080833E+03  0.89012747501E+02 0.  0.
    5000000    2    1    2    0    0 -0.67733328035E+03 -0.16115204375E+03 -0.10261255762E+03  0.92488362178E+03  0.60010834270E+03 0.  0.
         23    2    4    4    0    0 -0.40857742795E+03  0.43801578362E+02  0.19610580260E+03  0.46483291770E+03  0.93584521496E+02 0.  0.
         23    2    4    4    0    0 -0.26875585240E+03 -0.20495362211E+03 -0.29871836022E+03  0.46005070408E+03  0.90433932653E+02 0.  0.
          4    1    3    3  502    0  0.45455272136E+03  0.13628605026E+03  0.59837304522E+02  0.47830175309E+03  0.00000000000E+00 0. -1.
         -4    1    3    3    0  502  0.22278055899E+03  0.24865993495E+02  0.75475154057E+02  0.23652905524E+03  0.00000000000E+00 0.  1.
         13    1    5    5    0    0 -0.16534421395E+03 -0.25517097374E+02  0.60880480941E+02  0.17803444696E+03  0.00000000000E+00 0. -1.
        -13    1    5    5    0    0 -0.24323321400E+03  0.69318675735E+02  0.13522532166E+03  0.28679847074E+03  0.00000000000E+00 0.  1.
          2    1    6    6  503    0 -0.56724911986E+02 -0.56238980230E+01 -0.67599914560E+02  0.88425631563E+02  0.00000000000E+00 0. -1.
         -2    1    6    6    0  503 -0.21203094041E+03 -0.19932972409E+03 -0.23111844566E+03  0.37162507252E+03  0.00000000000E+00 0.  1.
<mgrwt>
<rscale>  0 0.73347257E+03</rscale>
<asrwt>0</asrwt>
<pdfrwt beam="1">  1        2 0.12864726E+00 0.73347257E+03</pdfrwt>
<pdfrwt beam="2">  1       -2 0.12361650E+00 0.73347257E+03</pdfrwt>
<totfact> 0.16272600E+01</totfact>
</mgrwt>
</event>
<event>
12    1  0.1335216E-007  0.5548632E+03  0.7818608E-02  0.1000375E+00
          1   -1    0    0  501    0  0.00000000000E+00  0.00000000000E+00  0.81722477671E+03  0.81722477671E+03  0.00000000000E+00 0. -1.
         -1   -1    0    0    0  501 -0.00000000000E+00 -0.00000000000E+00 -0.51175429112E+03  0.51175429112E+03  0.00000000000E+00 0.  1.
         23    2    1    2    0    0  0.42462825411E+03  0.26767031315E+03  0.15821730293E+03  0.53294704816E+03  0.83924313903E+02 0.  0.
    5000000    2    1    2    0    0 -0.42462825411E+03 -0.26767031315E+03  0.14725318265E+03  0.79603201967E+03  0.60002243775E+03 0.  0.
         23    2    4    4    0    0 -0.40895546685E+03 -0.10579113154E+03 -0.13848878755E+03  0.45381908896E+03  0.91303252096E+02 0.  0.
         23    2    4    4    0    0 -0.15672787257E+02 -0.16187918161E+03  0.28574197020E+03  0.34221293071E+03  0.94924763443E+02 0.  0.
          3    1    3    3  502    0  0.24187684530E+03  0.11298391292E+03  0.10985541061E+03  0.28868318987E+03  0.00000000000E+00 0. -1.
         -3    1    3    3    0  502  0.18275140881E+03  0.15468640024E+03  0.48361892321E+02  0.24426385829E+03  0.00000000000E+00 0.  1.
         11    1    5    5    0    0 -0.16533388965E+03 -0.85683857881E+02 -0.41202746156E+02  0.19072148504E+03  0.00000000000E+00 0.  1.
        -11    1    5    5    0    0 -0.24362157721E+03 -0.20107273664E+02 -0.97286041394E+02  0.26309760391E+03  0.00000000000E+00 0. -1.
          1    1    6    6  503    0  0.19712259317E+02 -0.94784314016E+02  0.89591102149E+02  0.13190604586E+03  0.00000000000E+00 0. -1.
         -1    1    6    6    0  503 -0.35385046574E+02 -0.67094867593E+02  0.19615086805E+03  0.21030688485E+03  0.00000000000E+00 0.  1.
<mgrwt>
<rscale>  0 0.55486318E+03</rscale>
<asrwt>0</asrwt>
<pdfrwt beam="1">  1        1 0.12572689E+00 0.55486318E+03</pdfrwt>
<pdfrwt beam="2">  1       -1 0.78731429E-01 0.55486318E+03</pdfrwt>
<totfact> 0.36155133E+01</totfact>
</mgrwt>
</event>
<event>
12    1  0.1335216E-007  0.3470299E+03  0.7818608E-02  0.1063841E+00
          2   -1    0    0  501    0  0.00000000000E+00  0.00000000000E+00  0.37085585149E+03  0.37085585149E+03  0.00000000000E+00 0. -1.
         -2   -1    0    0    0  501 -0.00000000000E+00 -0.00000000000E+00 -0.71680987195E+03  0.71680987195E+03  0.00000000000E+00 0.  1.
         23    2    1    2    0    0 -0.29768180100E+03 -0.14404682934E+03 -0.82197861048E+02  0.35358753535E+03  0.94359488690E+02 0.  0.
    5000000    2    1    2    0    0  0.29768180100E+03  0.14404682934E+03 -0.26375615941E+03  0.73407818809E+03  0.59994960698E+03 0.  0.
         23    2    4    4    0    0  0.17632368334E+03  0.74304981885E+02 -0.44227861557E+03  0.49038035366E+03  0.90836368423E+02 0.  0.
         23    2    4    4    0    0  0.12135811766E+03  0.69741847455E+02  0.17852245616E+03  0.24369783443E+03  0.89031731105E+02 0.  0.
          3    1    3    3  502    0 -0.19561349564E+03 -0.14037926061E+03 -0.69916822103E+02  0.25071764697E+03  0.00000000000E+00 0. -1.
         -3    1    3    3    0  502 -0.10206830536E+03 -0.36675687287E+01 -0.12281038945E+02  0.10286988839E+03  0.00000000000E+00 0.  1.
         13    1    5    5    0    0  0.30812266768E+02 -0.19444346732E+02 -0.52599857801E+02  0.63986119151E+02  0.00000000000E+00 0.  1.
        -13    1    5    5    0    0  0.14551141657E+03  0.93749328617E+02 -0.38967875777E+03  0.42639423451E+03  0.00000000000E+00 0. -1.
          1    1    6    6  503    0  0.91067224489E+02  0.41019500390E+02  0.56543065516E+02  0.11477350324E+03  0.00000000000E+00 0. -1.
         -1    1    6    6    0  503  0.30290893168E+02  0.28722347065E+02  0.12197939064E+03  0.12892433119E+03  0.00000000000E+00 0.  1.
<mgrwt>
<rscale>  0 0.34702986E+03</rscale>
<asrwt>0</asrwt>
<pdfrwt beam="1">  1        2 0.57054747E-01 0.34702986E+03</pdfrwt>
<pdfrwt beam="2">  1       -2 0.11027844E+00 0.34702986E+03</pdfrwt>
<totfact> 0.59072080E+01</totfact>
</mgrwt>
</event>
<event>
12    1  0.1335216E-007  0.6746679E+03  0.7818608E-02  0.9761562E-01
          2   -1    0    0  501    0  0.00000000000E+00  0.00000000000E+00  0.82006288999E+03  0.82006288999E+03  0.00000000000E+00 0. -1.
         -2   -1    0    0    0  501 -0.00000000000E+00 -0.00000000000E+00 -0.90391432621E+03  0.90391432621E+03  0.00000000000E+00 0.  1.
         23    2    1    2    0    0  0.57428472779E+03  0.20317201014E+03 -0.48050565453E+03  0.78142421258E+03  0.93039248193E+02 0.  0.
    5000000    2    1    2    0    0 -0.57428472779E+03 -0.20317201014E+03  0.39665421830E+03  0.94255300361E+03  0.59999148448E+03 0.  0.
         23    2    4    4    0    0 -0.43300277088E+03  0.47280041371E+02 -0.11346471903E+01  0.44324597947E+03  0.82090858140E+02 0.  0.
         23    2    4    4    0    0 -0.14128195691E+03 -0.25045205151E+03  0.39778886549E+03  0.49930702415E+03  0.91568015155E+02 0.  0.
          3    1    3    3  502    0  0.40563538324E+03  0.18666240182E+03 -0.33828501677E+03  0.56019609866E+03  0.00000000000E+00 0. -1.
         -3    1    3    3    0  502  0.16864934455E+03  0.16509608319E+02 -0.14222063776E+03  0.22122811392E+03  0.00000000000E+00 0.  1.
         11    1    5    5    0    0 -0.10762835801E+03 -0.96623256194E+01  0.28042201575E+02  0.11164044542E+03  0.00000000000E+00 0. -1.
        -11    1    5    5    0    0 -0.32537441286E+03  0.56942366990E+02 -0.29176848765E+02  0.33160553405E+03  0.00000000000E+00 0.  1.
          1    1    6    6  503    0 -0.14599032623E+03 -0.21916522927E+03  0.31438125584E+03  0.41010016714E+03  0.00000000000E+00 0. -1.
         -1    1    6    6    0  503  0.47083693158E+01 -0.31286822243E+02  0.83407609657E+02  0.89206857003E+02  0.00000000000E+00 0.  1.
<mgrwt>
<rscale>  0 0.67466790E+03</rscale>
<asrwt>0</asrwt>
<pdfrwt beam="1">  1        2 0.12616352E+00 0.67466790E+03</pdfrwt>
<pdfrwt beam="2">  1       -2 0.13906374E+00 0.67466790E+03</pdfrwt>
<totfact> 0.12476626E+01</totfact>
</mgrwt>
</event>
<event>
12    1  0.1335216E-007  0.4440854E+03  0.7818608E-02  0.1029501E+00
          2   -1    0    0  501    0  0.00000000000E+00  0.00000000000E+00  0.23809515482E+03  0.23809515482E+03  0.00000000000E+00 0.  1.
         -2   -1    0    0    0  501 -0.00000000000E+00 -0.00000000000E+00 -0.94236839296E+03  0.94236839296E+03  0.00000000000E+00 0. -1.
         23    2    1    2    0    0  0.22212159542E+02  0.25314340402E+03 -0.86452984978E+02  0.28262802909E+03  0.88484581630E+02 0.  0.
    5000000    2    1    2    0    0 -0.22212159542E+02 -0.25314340402E+03 -0.61782025317E+03  0.89783551869E+03  0.59985980892E+03 0.  0.
         23    2    4    4    0    0  0.21797695983E+03 -0.28669144867E+03 -0.47101023069E+03  0.60056436528E+03  0.95503809756E+02 0.  0.
         23    2    4    4    0    0 -0.24018911938E+03  0.33548044648E+02 -0.14681002248E+03  0.29727115340E+03  0.89446473259E+02 0.  0.
          3    1    3    3  502    0 -0.17048087194E+02  0.15302533137E+03 -0.83255989963E+02  0.17503985027E+03  0.00000000000E+00 0. -1.
         -3    1    3    3    0  502  0.39260246736E+02  0.10011807265E+03 -0.31969950141E+01  0.10758817882E+03  0.00000000000E+00 0.  1.
         11    1    5    5    0    0  0.18929797556E+03 -0.17686470377E+03 -0.32463367230E+03  0.41533344216E+03  0.00000000000E+00 0.  1.
        -11    1    5    5    0    0  0.28678984279E+02 -0.10982674490E+03 -0.14637655839E+03  0.18523092312E+03  0.00000000000E+00 0. -1.
          1    1    6    6  503    0 -0.15967079768E+03  0.58087357442E+02 -0.12311739230E+03  0.20982563478E+03  0.00000000000E+00 0. -1.
         -1    1    6    6    0  503 -0.80518321702E+02 -0.24539312794E+02 -0.23692630178E+02  0.87445518621E+02  0.00000000000E+00 0.  1.
<mgrwt>
<rscale>  0 0.44408536E+03</rscale>
<asrwt>0</asrwt>
<pdfrwt beam="1">  1        2 0.36630024E-01 0.44408536E+03</pdfrwt>
<pdfrwt beam="2">  1       -2 0.14497975E+00 0.44408536E+03</pdfrwt>
<totfact> 0.48146121E+01</totfact>
</mgrwt>
</event>
<event>
12    1  0.1335216E-007  0.1393089E+04  0.7818608E-02  0.8958837E-01
          1   -1    0    0  501    0  0.00000000000E+00  0.00000000000E+00  0.21250148895E+04  0.21250148895E+04  0.00000000000E+00 0. -1.
         -1   -1    0    0    0  501 -0.00000000000E+00 -0.00000000000E+00 -0.10535018201E+04  0.10535018201E+04  0.00000000000E+00 0.  1.
         23    2    1    2    0    0  0.13645191514E+04  0.16739037950E+03  0.79074190375E+02  0.13799809149E+04  0.90346798579E+02 0.  0.
    5000000    2    1    2    0    0 -0.13645191514E+04 -0.16739037950E+03  0.99243887903E+03  0.17985357947E+04  0.59988667470E+03 0.  0.
         23    2    4    4    0    0 -0.61971991138E+03 -0.21446775928E+03  0.16805278845E+03  0.68279224534E+03  0.88962476712E+02 0.  0.
         23    2    4    4    0    0 -0.74479924007E+03  0.47077379783E+02  0.82438609058E+03  0.11157435494E+04  0.91263650773E+02 0.  0.
          3    1    3    3  502    0  0.10025882045E+04  0.16253479701E+03  0.64530536428E+02  0.10177253353E+04  0.00000000000E+00 0. -1.
         -3    1    3    3    0  502  0.36193094699E+03  0.48555824955E+01  0.14543653947E+02  0.36225557958E+03  0.00000000000E+00 0.  1.
         11    1    5    5    0    0 -0.34808194682E+03 -0.73558269498E+02  0.88688286010E+02  0.36665715974E+03  0.00000000000E+00 0. -1.
        -11    1    5    5    0    0 -0.27163796456E+03 -0.14090948979E+03  0.79364502440E+02  0.31613508561E+03  0.00000000000E+00 0.  1.
          1    1    6    6  503    0 -0.15415492277E+03 -0.10014228611E+01  0.12080836969E+03  0.19585557242E+03  0.00000000000E+00 0. -1.
         -1    1    6    6    0  503 -0.59064431730E+03  0.48078802644E+02  0.70357772090E+03  0.91988797696E+03  0.00000000000E+00 0.  1.
<mgrwt>
<rscale>  0 0.13930887E+04</rscale>
<asrwt>0</asrwt>
<pdfrwt beam="1">  1        1 0.32692537E+00 0.13930887E+04</pdfrwt>
<pdfrwt beam="2">  1       -1 0.16207720E+00 0.13930887E+04</pdfrwt>
<totfact> 0.66292199E-01</totfact>
</mgrwt>
</event>
<event>
12    1  0.1335216E-007  0.9655630E+03  0.7818608E-02  0.9347142E-01
          1   -1    0    0  501    0  0.00000000000E+00  0.00000000000E+00  0.74648171716E+03  0.74648171716E+03  0.00000000000E+00 0. -1.
         -1   -1    0    0    0  501 -0.00000000000E+00 -0.00000000000E+00 -0.14493380631E+04  0.14493380631E+04  0.00000000000E+00 0.  1.
         23    2    1    2    0    0 -0.91732374022E+03 -0.20679420383E+03 -0.17093872009E+03  0.96006320037E+03  0.90854914920E+02 0.  0.
    5000000    2    1    2    0    0  0.91732374022E+03  0.20679420383E+03 -0.53191762588E+03  0.12357565799E+04  0.59992605960E+03 0.  0.
         23    2    4    4    0    0  0.40297076718E+03  0.23852379778E+03  0.17531658690E+02  0.47770220757E+03  0.92806243093E+02 0.  0.
         23    2    4    4    0    0  0.51435297304E+03 -0.31729593948E+02 -0.54944928457E+03  0.75805437235E+03  0.84771263448E+02 0.  0.
          1    1    3    3  502    0 -0.19097738622E+03 -0.37122374101E+02  0.12074233393E+01  0.19455562335E+03  0.00000000000E+00 0. -1.
         -1    1    3    3    0  502 -0.72634635400E+03 -0.16967182973E+03 -0.17214614343E+03  0.76550757702E+03  0.00000000000E+00 0.  1.
         11    1    5    5    0    0  0.13283880112E+03  0.66317025586E+02 -0.36328622420E+02  0.15285242482E+03  0.00000000000E+00 0. -1.
        -11    1    5    5    0    0  0.27013196606E+03  0.17220677219E+03  0.53860281110E+02  0.32484978276E+03  0.00000000000E+00 0.  1.
          3    1    6    6  503    0  0.44222148653E+03  0.19846115805E+01 -0.47611118319E+03  0.64980430946E+03  0.00000000000E+00 0. -1.
         -3    1    6    6    0  503  0.72131486509E+02 -0.33714205529E+02 -0.73338101385E+02  0.10825006289E+03  0.00000000000E+00 0.  1.
<mgrwt>
<rscale>  0 0.96556304E+03</rscale>
<asrwt>0</asrwt>
<pdfrwt beam="1">  1        1 0.11484334E+00 0.96556304E+03</pdfrwt>
<pdfrwt beam="2">  1       -1 0.22297509E+00 0.96556304E+03</pdfrwt>
<totfact> 0.26193944E+00</totfact>
</mgrwt>
</event>
<event>
12    1  0.1335216E-007  0.7083720E+03  0.7818608E-02  0.9703021E-01
         -2   -1    0    0    0  501 -0.00000000000E+00  0.00000000000E+00  0.96625239384E+03  0.96625239384E+03  0.00000000000E+00 0.  1.
          2   -1    0    0  501    0  0.00000000000E+00 -0.00000000000E+00 -0.98937578082E+03  0.98937578082E+03  0.00000000000E+00 0. -1.
         23    2    1    2    0    0  0.56363352696E+03  0.17257179653E+03  0.64788372027E+03  0.87969941063E+03  0.81571811324E+02 0.  0.
    5000000    2    1    2    0    0 -0.56363352696E+03 -0.17257179653E+03 -0.67100710725E+03  0.10759287640E+04  0.59992365315E+03 0.  0.
         23    2    4    4    0    0  0.74493649108E+02 -0.14691265389E+03 -0.21934682727E+03  0.28898177529E+03  0.90910968457E+02 0.  0.
         23    2    4    4    0    0 -0.63812717607E+03 -0.25659142649E+02 -0.45166027998E+03  0.78694698874E+03  0.86161883308E+02 0.  0.
          1    1    3    3  502    0  0.23179750255E+03  0.36354724889E+02  0.22371913658E+03  0.32419438657E+03  0.00000000000E+00 0. -1.
         -1    1    3    3    0  502  0.33183602441E+03  0.13621707164E+03  0.42416458369E+03  0.55550502407E+03  0.00000000000E+00 0.  1.
         13    1    5    5    0    0  0.75696899298E+02 -0.71911925294E+02 -0.83066412447E+02  0.13342179147E+03  0.00000000000E+00 0.  1.
        -13    1    5    5    0    0 -0.12032501904E+01 -0.75000728591E+02 -0.13628041482E+03  0.15555998381E+03  0.00000000000E+00 0. -1.
          1    1    6    6  503    0 -0.46149607722E+03 -0.55609280241E+02 -0.31281169722E+03  0.56028758620E+03  0.00000000000E+00 0. -1.
         -1    1    6    6    0  503 -0.17663109885E+03  0.29950137592E+02 -0.13884858277E+03  0.22665940254E+03  0.00000000000E+00 0.  1.
<mgrwt>
<rscale>  0 0.70837202E+03</rscale>
<asrwt>0</asrwt>
<pdfrwt beam="1">  1        2 0.15221166E+00 0.70837202E+03</pdfrwt>
<pdfrwt beam="2">  1       -2 0.14865421E+00 0.70837202E+03</pdfrwt>
<totfact> 0.80380756E+00</totfact>
</mgrwt>
</event>
<event>
12    1  0.1335216E-007  0.4652689E+03  0.7818608E-02  0.1023264E+00
          1   -1    0    0  501    0  0.00000000000E+00  0.00000000000E+00  0.45880738457E+03  0.45880738457E+03  0.00000000000E+00 0. -1.
         -1   -1    0    0    0  501 -0.00000000000E+00 -0.00000000000E+00 -0.71756639492E+03  0.71756639492E+03  0.00000000000E+00 0.  1.
         23    2    1    2    0    0  0.32005669655E+03  0.17232106112E+03  0.10054450744E+03  0.38805941785E+03  0.91378754054E+02 0.  0.
    5000000    2    1    2    0    0 -0.32005669655E+03 -0.17232106112E+03 -0.35930351779E+03  0.78831436164E+03  0.60017470603E+03 0.  0.
         23    2    4    4    0    0  0.83277564450E+02  0.21542296896E+02 -0.30095149263E+03  0.32764281250E+03  0.96844144741E+02 0.  0.
         23    2    4    4    0    0 -0.40333426100E+03 -0.19386335802E+03 -0.58352025153E+02  0.46067154913E+03  0.92475886909E+02 0.  0.
          2    1    3    3  502    0  0.17773060534E+03  0.90563760662E+02  0.10173170378E+03  0.22391807067E+03  0.00000000000E+00 0. -1.
         -2    1    3    3    0  502  0.14232609122E+03  0.81757300462E+02 -0.11871963426E+01  0.16414134718E+03  0.00000000000E+00 0.  1.
         13    1    5    5    0    0  0.99690674733E+02  0.13827812586E+02 -0.28874255241E+03  0.30578047780E+03  0.00000000000E+00 0.  1.
        -13    1    5    5    0    0 -0.16413110284E+02  0.77144843103E+01 -0.12208940220E+02  0.21862334702E+02  0.00000000000E+00 0. -1.
          4    1    6    6  503    0 -0.85493319457E+02 -0.30428083315E+02  0.24084827753E+02  0.93888523547E+02  0.00000000000E+00 0. -1.
         -4    1    6    6    0  503 -0.31784094155E+03 -0.16343527470E+03 -0.82436852906E+02  0.36678302558E+03  0.00000000000E+00 0.  1.
<mgrwt>
<rscale>  0 0.46526886E+03</rscale>
<asrwt>0</asrwt>
<pdfrwt beam="1">  1        1 0.70585752E-01 0.46526886E+03</pdfrwt>
<pdfrwt beam="2">  1       -1 0.11039483E+00 0.46526886E+03</pdfrwt>
<totfact> 0.39841463E+01</totfact>
</mgrwt>
</event>
<event>
12    1  0.1335216E-007  0.4833023E+03  0.7818608E-02  0.1018232E+00
         -2   -1    0    0    0  501 -0.00000000000E+00  0.00000000000E+00  0.68938238898E+03  0.68938238898E+03  0.00000000000E+00 0.  1.
          2   -1    0    0  501    0  0.00000000000E+00 -0.00000000000E+00 -0.43482045878E+03  0.43482045878E+03  0.00000000000E+00 0. -1.
         23    2    1    2    0    0  0.20927757806E+03 -0.25603231472E+03  0.27380580862E+03  0.43883505328E+03  0.90867663617E+02 0.  0.
    5000000    2    1    2    0    0 -0.20927757806E+03  0.25603231472E+03 -0.19243878412E+02  0.68536779449E+03  0.60000752995E+03 0.  0.
         23    2    4    4    0    0  0.12491741048E+03  0.24713808427E+03  0.11923894725E+03  0.31196991453E+03  0.80160519535E+02 0.  0.
         23    2    4    4    0    0 -0.33419498854E+03  0.88942304421E+01 -0.13848282566E+03  0.37339787995E+03  0.92103670101E+02 0.  0.
          3    1    3    3  502    0  0.16262677298E+03 -0.23688930907E+03  0.25750399048E+03  0.38583975580E+03  0.00000000000E+00 0. -1.
         -3    1    3    3    0  502  0.46650805083E+02 -0.19143005646E+02  0.16301818139E+02  0.52995297477E+02  0.00000000000E+00 0.  1.
         13    1    5    5    0    0  0.27282748274E+01  0.84481013042E+02  0.41738305288E+02  0.94268611830E+02  0.00000000000E+00 0.  1.
        -13    1    5    5    0    0  0.12218913565E+03  0.16265707123E+03  0.77500641963E+02  0.21770130270E+03  0.00000000000E+00 0. -1.
          4    1    6    6  503    0 -0.20400950886E+03 -0.27109465877E+02 -0.11667850328E+03  0.23657699798E+03  0.00000000000E+00 0. -1.
         -4    1    6    6    0  503 -0.13018547969E+03  0.36003696319E+02 -0.21804322384E+02  0.13682088197E+03  0.00000000000E+00 0.  1.
<mgrwt>
<rscale>  0 0.48330231E+03</rscale>
<asrwt>0</asrwt>
<pdfrwt beam="1">  1        2 0.66895455E-01 0.48330231E+03</pdfrwt>
<pdfrwt beam="2">  1       -2 0.10605883E+00 0.48330231E+03</pdfrwt>
<totfact> 0.53579489E+01</totfact>
</mgrwt>
</event>
<event>
12    1  0.1335216E-007  0.6711920E+03  0.7818608E-02  0.9767807E-01
         -2   -1    0    0    0  501 -0.00000000000E+00  0.00000000000E+00  0.13682935502E+04  0.13682935502E+04  0.00000000000E+00 0.  1.
          2   -1    0    0  501    0  0.00000000000E+00 -0.00000000000E+00 -0.51684489414E+03  0.51684489414E+03  0.00000000000E+00 0. -1.
         23    2    1    2    0    0 -0.15820309609E+03  0.52780251048E+03 -0.16494045961E+03  0.58257562018E+03  0.92656830995E+02 0.  0.
    5000000    2    1    2    0    0  0.15820309609E+03 -0.52780251048E+03  0.10163891157E+04  0.13025628242E+04  0.60001613875E+03 0.  0.
         23    2    4    4    0    0 -0.13476404255E+03 -0.46538975554E+03  0.71651263826E+03  0.86943327937E+03  0.88175363663E+02 0.  0.
         23    2    4    4    0    0  0.29296713864E+03 -0.62412754936E+02  0.29987647741E+03  0.43312954479E+03  0.89163919653E+02 0.  0.
          2    1    3    3  502    0 -0.17891718222E+02  0.53178923602E+02 -0.48427582031E+02  0.74117084385E+02  0.00000000000E+00 0. -1.
         -2    1    3    3    0  502 -0.14031137787E+03  0.47462358688E+03 -0.11651287757E+03  0.50845853579E+03  0.00000000000E+00 0.  1.
         11    1    5    5    0    0 -0.52213529906E+02 -0.82060352252E+02  0.10618116098E+03  0.14399511472E+03  0.00000000000E+00 0.  1.
        -11    1    5    5    0    0 -0.82550512649E+02 -0.38332940329E+03  0.61033147728E+03  0.72543816464E+03  0.00000000000E+00 0. -1.
          1    1    6    6  503    0  0.57481060730E+02  0.30142441510E+01  0.10808233263E+03  0.12245386330E+03  0.00000000000E+00 0. -1.
         -1    1    6    6    0  503  0.23548607791E+03 -0.65426999087E+02  0.19179414477E+03  0.31067568149E+03  0.00000000000E+00 0.  1.
<mgrwt>
<rscale>  0 0.67119203E+03</rscale>
<asrwt>0</asrwt>
<pdfrwt beam="1">  1        2 0.79514599E-01 0.67119203E+03</pdfrwt>
<pdfrwt beam="2">  1       -2 0.21050670E+00 0.67119203E+03</pdfrwt>
<totfact> 0.69433172E+00</totfact>
</mgrwt>
</event>
<event>
12    1  0.1335216E-007  0.7568585E+03  0.7818608E-02  0.9624651E-01
         -1   -1    0    0    0  501 -0.00000000000E+00  0.00000000000E+00  0.81917771919E+03  0.81917771919E+03  0.00000000000E+00 0.  1.
          1   -1    0    0  501    0  0.00000000000E+00 -0.00000000000E+00 -0.71774891047E+03  0.71774891047E+03  0.00000000000E+00 0. -1.
         23    2    1    2    0    0 -0.11329992059E+03 -0.63017294085E+03 -0.39782820621E+02  0.64814039084E+03  0.92458023157E+02 0.  0.
    5000000    2    1    2    0    0  0.11329992059E+03  0.63017294085E+03  0.14121162933E+03  0.88878623882E+03  0.60003787103E+03 0.  0.
         23    2    4    4    0    0  0.14616170594E+03  0.72339248951E+03  0.11603272095E+03  0.75140603562E+03  0.80545017709E+02 0.  0.
         23    2    4    4    0    0 -0.32861785358E+02 -0.93219548665E+02  0.25178908384E+02  0.13738020319E+03  0.92030221187E+02 0.  0.
          2    1    3    3  502    0 -0.30313000215E+02 -0.28850320667E+03  0.22897352643E+02  0.29099358584E+03  0.00000000000E+00 0. -1.
         -2    1    3    3    0  502 -0.82986920370E+02 -0.34166973417E+03 -0.62680173264E+02  0.35714680500E+03  0.00000000000E+00 0.  1.
         11    1    5    5    0    0  0.73593111255E+02  0.39256033733E+03  0.10295866719E+03  0.41245612084E+03  0.00000000000E+00 0. -1.
        -11    1    5    5    0    0  0.72568594689E+02  0.33083215218E+03  0.13074053763E+02  0.33894991478E+03  0.00000000000E+00 0.  1.
          1    1    6    6  503    0  0.31533967943E+02 -0.35042503513E+02  0.45743754644E+00  0.47144219538E+02  0.00000000000E+00 0. -1.
         -1    1    6    6    0  503 -0.64395753302E+02 -0.58177045152E+02  0.24721470837E+02  0.90235983656E+02  0.00000000000E+00 0.  1.
<mgrwt>
<rscale>  0 0.75685853E+03</rscale>
<asrwt>0</asrwt>
<pdfrwt beam="1">  1        1 0.11042291E+00 0.75685853E+03</pdfrwt>
<pdfrwt beam="2">  1       -1 0.12602734E+00 0.75685853E+03</pdfrwt>
<totfact> 0.14775241E+01</totfact>
</mgrwt>
</event>
<event>
12    1  0.1335216E-007  0.7617000E+03  0.7818608E-02  0.9617172E-01
         -1   -1    0    0    0  501 -0.00000000000E+00  0.00000000000E+00  0.16771953536E+04  0.16771953536E+04  0.00000000000E+00 0.  1.
          1   -1    0    0  501    0  0.00000000000E+00 -0.00000000000E+00 -0.36870364874E+03  0.36870364874E+03  0.00000000000E+00 0. -1.
         23    2    1    2    0    0  0.52126794900E+03 -0.38225685020E+03  0.34084613028E+03  0.73655953483E+03  0.92213283427E+02 0.  0.
    5000000    2    1    2    0    0 -0.52126794900E+03  0.38225685020E+03  0.96764557455E+03  0.13093394675E+04  0.60015940299E+03 0.  0.
         23    2    4    4    0    0 -0.58878354922E+03  0.14252556688E+03  0.69522672037E+03  0.92675240322E+03  0.92467394803E+02 0.  0.
         23    2    4    4    0    0  0.67515600221E+02  0.23973128332E+03  0.27241885418E+03  0.38258706427E+03  0.10065478210E+03 0.  0.
          2    1    3    3  502    0  0.26938472681E+03 -0.22273495811E+03  0.13721836322E+03  0.37551014874E+03  0.00000000000E+00 0. -1.
         -2    1    3    3    0  502  0.25188322219E+03 -0.15952189209E+03  0.20362776706E+03  0.36104938609E+03  0.00000000000E+00 0.  1.
         13    1    5    5    0    0 -0.17314203987E+03 -0.75709729112E+00  0.19947095891E+03  0.26413519760E+03  0.00000000000E+00 0. -1.
        -13    1    5    5    0    0 -0.41564150936E+03  0.14328266417E+03  0.49575576147E+03  0.66261720562E+03  0.00000000000E+00 0.  1.
          1    1    6    6  503    0  0.72091988836E+02  0.10086368058E+03  0.16793985958E+03  0.20874513970E+03  0.00000000000E+00 0. -1.
         -1    1    6    6    0  503 -0.45763886152E+01  0.13886760275E+03  0.10447899460E+03  0.17384192457E+03  0.00000000000E+00 0.  1.
<mgrwt>
<rscale>  0 0.76169996E+03</rscale>
<asrwt>0</asrwt>
<pdfrwt beam="1">  1        1 0.56723639E-01 0.76169996E+03</pdfrwt>
<pdfrwt beam="2">  1       -1 0.25803005E+00 0.76169996E+03</pdfrwt>
<totfact> 0.42957517E+00</totfact>
</mgrwt>
</event>
<event>
12    1  0.1335216E-007  0.7659080E+03  0.7818608E-02  0.9610718E-01
         -2   -1    0    0    0  501 -0.00000000000E+00  0.00000000000E+00  0.98218968957E+03  0.98218968957E+03  0.00000000000E+00 0.  1.
          2   -1    0    0  501    0  0.00000000000E+00 -0.00000000000E+00 -0.74015162692E+03  0.74015162692E+03  0.00000000000E+00 0. -1.
         23    2    1    2    0    0 -0.47268818950E+03  0.52730697180E+03  0.33737198894E+03  0.78938385939E+03  0.88432186113E+02 0.  0.
    5000000    2    1    2    0    0  0.47268818950E+03 -0.52730697180E+03 -0.95333926293E+02  0.93295745710E+03  0.59986189431E+03 0.  0.
         23    2    4    4    0    0  0.17341479892E+03  0.17351999037E+02  0.16090212787E+03  0.25477590999E+03  0.92991855566E+02 0.  0.
         23    2    4    4    0    0  0.29927339058E+03 -0.54465897083E+03 -0.25623605416E+03  0.67818154711E+03  0.89751537967E+02 0.  0.
          3    1    3    3  502    0 -0.28760010915E+03  0.25654561206E+03  0.19336305323E+03  0.43118295908E+03  0.00000000000E+00 0. -1.
         -3    1    3    3    0  502 -0.18508808036E+03  0.27076135973E+03  0.14400893571E+03  0.35820090030E+03  0.00000000000E+00 0.  1.
         11    1    5    5    0    0  0.17433385485E+03  0.31609801181E+02  0.16248458382E+03  0.24040114903E+03  0.00000000000E+00 0.  1.
        -11    1    5    5    0    0 -0.91905592791E+00 -0.14257802144E+02 -0.15824559462E+01  0.14374760958E+02  0.00000000000E+00 0. -1.
          1    1    6    6  503    0  0.27389392168E+02 -0.11737711176E+03 -0.34921187961E+02  0.12548726843E+03  0.00000000000E+00 0. -1.
         -1    1    6    6    0  503  0.27188399841E+03 -0.42728185907E+03 -0.22131486620E+03  0.55269427868E+03  0.00000000000E+00 0.  1.
<mgrwt>
<rscale>  0 0.76590803E+03</rscale>
<asrwt>0</asrwt>
<pdfrwt beam="1">  1        2 0.11386948E+00 0.76590803E+03</pdfrwt>
<pdfrwt beam="2">  1       -2 0.15110611E+00 0.76590803E+03</pdfrwt>
<totfact> 0.11365472E+01</totfact>
</mgrwt>
</event>
<event>
12    1  0.1335216E-007  0.5991074E+03  0.7818608E-02  0.9907260E-01
          2   -1    0    0  501    0  0.00000000000E+00  0.00000000000E+00  0.20719928821E+03  0.20719928821E+03  0.00000000000E+00 0. -1.
         -2   -1    0    0    0  501 -0.00000000000E+00 -0.00000000000E+00 -0.18045852409E+04  0.18045852409E+04  0.00000000000E+00 0.  1.
         23    2    1    2    0    0 -0.15494224561E+03 -0.42708460295E+03 -0.68599678252E+03  0.82925056438E+03  0.10323059304E+03 0.  0.
    5000000    2    1    2    0    0  0.15494224561E+03  0.42708460295E+03 -0.91138917020E+03  0.11825339648E+04  0.60112228433E+03 0.  0.
         23    2    4    4    0    0 -0.18509348373E+02 -0.12426437251E+03 -0.29625134284E+03  0.33318789928E+03  0.86400739808E+02 0.  0.
         23    2    4    4    0    0  0.17345159398E+03  0.55134897546E+03 -0.61513782736E+03  0.84934606548E+03  0.94461865914E+02 0.  0.
          2    1    3    3  502    0 -0.13152389945E+03 -0.21898589114E+03 -0.34922597246E+03  0.43268017806E+03  0.00000000000E+00 0. -1.
         -2    1    3    3    0  502 -0.23418346153E+02 -0.20809871180E+03 -0.33677081006E+03  0.39657038631E+03  0.00000000000E+00 0.  1.
         11    1    5    5    0    0  0.25254141468E+02 -0.97847988163E+02 -0.20648513046E+03  0.22988716699E+03  0.00000000000E+00 0.  1.
        -11    1    5    5    0    0 -0.43763489842E+02 -0.26416384348E+02 -0.89766212384E+02  0.10330073229E+03  0.00000000000E+00 0. -1.
          1    1    6    6  503    0  0.70886905497E+02  0.32559336880E+03 -0.30016526983E+03  0.44848097439E+03  0.00000000000E+00 0. -1.
         -1    1    6    6    0  503  0.10256468848E+03  0.22575560665E+03 -0.31497255753E+03  0.40086509109E+03  0.00000000000E+00 0.  1.
<mgrwt>
<rscale>  0 0.59910740E+03</rscale>
<asrwt>0</asrwt>
<pdfrwt beam="1">  1        2 0.31876813E-01 0.59910740E+03</pdfrwt>
<pdfrwt beam="2">  1       -2 0.27762850E+00 0.59910740E+03</pdfrwt>
<totfact> 0.76170990E+00</totfact>
</mgrwt>
</event>
<event>
12    1  0.1335216E-007  0.6692990E+03  0.7818608E-02  0.9771225E-01
         -2   -1    0    0    0  501 -0.00000000000E+00  0.00000000000E+00  0.49560007918E+03  0.49560007918E+03  0.00000000000E+00 0. -1.
          2   -1    0    0  501    0  0.00000000000E+00 -0.00000000000E+00 -0.11600631593E+04  0.11600631593E+04  0.00000000000E+00 0.  1.
         23    2    1    2    0    0  0.62490175580E+03 -0.31767291810E+02 -0.40465664998E+03  0.75061272650E+03  0.90338782291E+02 0.  0.
    5000000    2    1    2    0    0 -0.62490175580E+03  0.31767291810E+02 -0.25980643016E+03  0.90505051201E+03  0.60008806262E+03 0.  0.
         23    2    4    4    0    0 -0.90890173178E+02 -0.94038490712E+02 -0.30781973402E+03  0.34674709368E+03  0.91522112119E+02 0.  0.
         23    2    4    4    0    0 -0.53401158262E+03  0.12580578252E+03  0.48013303860E+02  0.55830341833E+03  0.91662229297E+02 0.  0.
          1    1    3    3  502    0  0.11211651570E+03  0.15383213048E+01 -0.34520318076E+02  0.11732063708E+03  0.00000000000E+00 0. -1.
         -1    1    3    3    0  502  0.51278524009E+03 -0.33305613115E+02 -0.37013633190E+03  0.63329208942E+03  0.00000000000E+00 0.  1.
         11    1    5    5    0    0  0.89557941880E+01  0.95485919178E+01 -0.11836312321E+02  0.17648800144E+02  0.00000000000E+00 0.  1.
        -11    1    5    5    0    0 -0.99845967366E+02 -0.10358708263E+03 -0.29598342170E+03  0.32909829354E+03  0.00000000000E+00 0. -1.
          4    1    6    6  503    0 -0.18051771381E+03  0.27033808368E+00  0.35302176809E+01  0.18055243150E+03  0.00000000000E+00 0. -1.
         -4    1    6    6    0  503 -0.35349386881E+03  0.12553544444E+03  0.44483086179E+02  0.37775098683E+03  0.00000000000E+00 0.  1.
<mgrwt>
<rscale>  0 0.66929896E+03</rscale>
<asrwt>0</asrwt>
<pdfrwt beam="1">  1        2 0.17847125E+00 0.66929896E+03</pdfrwt>
<pdfrwt beam="2">  1       -2 0.76246166E-01 0.66929896E+03</pdfrwt>
<totfact> 0.31647454E+01</totfact>
</mgrwt>
</event>
<event>
12    1  0.1335216E-007  0.4830369E+03  0.7818608E-02  0.1018304E+00
          1   -1    0    0  501    0  0.00000000000E+00  0.00000000000E+00  0.13980393035E+04  0.13980393035E+04  0.00000000000E+00 0. -1.
         -1   -1    0    0    0  501 -0.00000000000E+00 -0.00000000000E+00 -0.18715062813E+03  0.18715062813E+03  0.00000000000E+00 0.  1.
         23    2    1    2    0    0 -0.29742738351E+03  0.11441733090E+03  0.28684381987E+03  0.43833412534E+03  0.91121097269E+02 0.  0.
    5000000    2    1    2    0    0  0.29742738351E+03 -0.11441733090E+03  0.92404485548E+03  0.11468558063E+04  0.59988746558E+03 0.  0.
         23    2    4    4    0    0  0.58023828205E+02  0.22053547088E+03  0.23880887562E+03  0.34180010670E+03  0.88289157350E+02 0.  0.
         23    2    4    4    0    0  0.23940355530E+03 -0.33495280178E+03  0.68523597985E+03  0.80505569957E+03  0.95178199211E+02 0.  0.
          1    1    3    3  502    0 -0.20372086018E+03  0.61713972114E+02  0.24075085407E+03  0.32135926462E+03  0.00000000000E+00 0. -1.
         -1    1    3    3    0  502 -0.93706523333E+02  0.52703358788E+02  0.46092965797E+02  0.11697486071E+03  0.00000000000E+00 0.  1.
         13    1    5    5    0    0  0.16062730033E+02  0.78881868798E+02  0.29780435316E+02  0.85832597822E+02  0.00000000000E+00 0.  1.
        -13    1    5    5    0    0  0.41961098171E+02  0.14165360208E+03  0.20902844031E+03  0.25596750888E+03  0.00000000000E+00 0. -1.
          4    1    6    6  503    0  0.81048332975E+02 -0.62565481616E+02  0.22618729956E+03  0.24828202966E+03  0.00000000000E+00 0. -1.
         -4    1    6    6    0  503  0.15835522233E+03 -0.27238732017E+03  0.45904868029E+03  0.55677366991E+03  0.00000000000E+00 0.  1.
<mgrwt>
<rscale>  0 0.48303692E+03</rscale>
<asrwt>0</asrwt>
<pdfrwt beam="1">  1        1 0.21508296E+00 0.48303692E+03</pdfrwt>
<pdfrwt beam="2">  1       -1 0.28792405E-01 0.48303692E+03</pdfrwt>
<totfact> 0.89131737E+01</totfact>
</mgrwt>
</event>
<event>
12    1  0.1335216E-007  0.7832502E+03  0.7818608E-02  0.9584583E-01
          2   -1    0    0  501    0  0.00000000000E+00  0.00000000000E+00  0.13803223481E+04  0.13803223481E+04  0.00000000000E+00 0. -1.
         -2   -1    0    0    0  501 -0.00000000000E+00 -0.00000000000E+00 -0.51565235521E+03  0.51565235521E+03  0.00000000000E+00 0.  1.
         23    2    1    2    0    0  0.62766039624E+03 -0.37652783556E+03  0.43637183012E+03  0.85717525581E+03  0.92726808924E+02 0.  0.
    5000000    2    1    2    0    0 -0.62766039624E+03  0.37652783556E+03  0.42829816279E+03  0.10387994475E+04  0.59994515744E+03 0.  0.
         23    2    4    4    0    0  0.25738184005E+02  0.26015399986E+02 -0.86696007431E+02  0.13145369778E+03  0.91785738559E+02 0.  0.
         23    2    4    4    0    0 -0.65339858025E+03  0.35051243558E+03  0.51499417022E+03  0.90734574974E+03  0.90932073726E+02 0.  0.
          1    1    3    3  502    0  0.13210560019E+03 -0.73982578350E+02  0.13574585627E+03  0.20335252395E+03  0.00000000000E+00 0. -1.
         -1    1    3    3    0  502  0.49555479606E+03 -0.30254525721E+03  0.30062597384E+03  0.65382273187E+03  0.00000000000E+00 0.  1.
         11    1    5    5    0    0  0.12360837126E+02 -0.31538201275E+02 -0.54484717009E+02  0.64156315524E+02  0.00000000000E+00 0.  1.
        -11    1    5    5    0    0  0.13377346879E+02  0.57553601261E+02 -0.32211290422E+02  0.67297382254E+02  0.00000000000E+00 0. -1.
          3    1    6    6  503    0 -0.52288261130E+03  0.28397595286E+03  0.45496148762E+03  0.74902504780E+03  0.00000000000E+00 0. -1.
         -3    1    6    6    0  503 -0.13051596894E+03  0.66536482720E+02  0.60032682602E+02  0.15832070194E+03  0.00000000000E+00 0.  1.
<mgrwt>
<rscale>  0 0.78325020E+03</rscale>
<asrwt>0</asrwt>
<pdfrwt beam="1">  1        2 0.21235728E+00 0.78325020E+03</pdfrwt>
<pdfrwt beam="2">  1       -2 0.79331132E-01 0.78325020E+03</pdfrwt>
<totfact> 0.21296824E+01</totfact>
</mgrwt>
</event>
<event>
12    1  0.1335216E-007  0.7394730E+03  0.7818608E-02  0.9652012E-01
          2   -1    0    0  501    0  0.00000000000E+00  0.00000000000E+00  0.94185730380E+03  0.94185730380E+03  0.00000000000E+00 0. -1.
         -2   -1    0    0    0  501 -0.00000000000E+00 -0.00000000000E+00 -0.66251975956E+03  0.66251975956E+03  0.00000000000E+00 0.  1.
         23    2    1    2    0    0  0.63244039344E+03  0.74427362772E+02 -0.99901486515E+02  0.65090890829E+03  0.90453392945E+02 0.  0.
    5000000    2    1    2    0    0 -0.63244039344E+03 -0.74427362772E+02  0.37923903075E+03  0.95346815507E+03  0.59979913030E+03 0.  0.
         23    2    4    4    0    0 -0.34419679706E+03 -0.30618966714E+03  0.31723329934E+03  0.56720553931E+03  0.94136126145E+02 0.  0.
         23    2    4    4    0    0 -0.28824359639E+03  0.23176230437E+03  0.62005731414E+02  0.38626261576E+03  0.92498437957E+02 0.  0.
          1    1    3    3  502    0  0.53531148883E+03  0.53317378170E+02 -0.51691750225E+02  0.54043794272E+03  0.00000000000E+00 0. -1.
         -1    1    3    3    0  502  0.97128904618E+02  0.21109984602E+02 -0.48209736290E+02  0.11047096558E+03  0.00000000000E+00 0.  1.
         11    1    5    5    0    0 -0.28253112853E+03 -0.20406275040E+03  0.21067954432E+03  0.40724846849E+03  0.00000000000E+00 0.  1.
        -11    1    5    5    0    0 -0.61665668529E+02 -0.10212691674E+03  0.10655375502E+03  0.15995707083E+03  0.00000000000E+00 0. -1.
          2    1    6    6  503    0 -0.22914081020E+03  0.20992072426E+03  0.79695459442E+02  0.32081706256E+03  0.00000000000E+00 0. -1.
         -2    1    6    6    0  503 -0.59102786189E+02  0.21841580111E+02 -0.17689728028E+02  0.65445553208E+02  0.00000000000E+00 0.  1.
<mgrwt>
<rscale>  0 0.73947302E+03</rscale>
<asrwt>0</asrwt>
<pdfrwt beam="1">  1        2 0.14490112E+00 0.73947302E+03</pdfrwt>
<pdfrwt beam="2">  1       -2 0.10192612E+00 0.73947302E+03</pdfrwt>
<totfact> 0.22062888E+01</totfact>
</mgrwt>
</event>
<event>
12    1  0.1335216E-007  0.7825173E+03  0.7818608E-02  0.9585673E-01
          1   -1    0    0  501    0  0.00000000000E+00  0.00000000000E+00  0.41971504620E+03  0.41971504620E+03  0.00000000000E+00 0.  1.
         -1   -1    0    0    0  501 -0.00000000000E+00 -0.00000000000E+00 -0.18587343391E+04  0.18587343391E+04  0.00000000000E+00 0. -1.
         23    2    1    2    0    0 -0.21315446878E+03 -0.68338437695E+03 -0.10326560777E+04  0.12598136390E+04  0.91119679289E+02 0.  0.
    5000000    2    1    2    0    0  0.21315446878E+03  0.68338437695E+03 -0.40636321518E+03  0.10186357463E+04  0.60003223810E+03 0.  0.
         23    2    4    4    0    0 -0.76142934483E+02  0.47677969769E+03 -0.42702396256E+03  0.65099074260E+03  0.91229686801E+02 0.  0.
         23    2    4    4    0    0  0.28929740326E+03  0.20660467926E+03  0.20660747374E+02  0.36764500369E+03  0.91419370124E+02 0.  0.
          1    1    3    3  502    0 -0.66016624916E+01 -0.12866439201E+03 -0.20909920227E+03  0.24560249207E+03  0.00000000000E+00 0. -1.
         -1    1    3    3    0  502 -0.20655280629E+03 -0.55471998494E+03 -0.82355687545E+03  0.10142111469E+04  0.00000000000E+00 0.  1.
         13    1    5    5    0    0 -0.42437540422E+02  0.80016339172E+02 -0.54478843609E+02  0.10569533468E+03  0.00000000000E+00 0. -1.
        -13    1    5    5    0    0 -0.33705394061E+02  0.39676335852E+03 -0.37254511895E+03  0.54529540793E+03  0.00000000000E+00 0.  1.
          1    1    6    6  503    0  0.19360450480E+02  0.13021439579E+02  0.26643869044E+02  0.35415825405E+02  0.00000000000E+00 0. -1.
         -1    1    6    6    0  503  0.26993695278E+03  0.19358323968E+03 -0.59831216695E+01  0.33222917829E+03  0.00000000000E+00 0.  1.
<mgrwt>
<rscale>  0 0.78251729E+03</rscale>
<asrwt>0</asrwt>
<pdfrwt beam="1">  1        1 0.64571546E-01 0.78251729E+03</pdfrwt>
<pdfrwt beam="2">  1       -1 0.28595913E+00 0.78251729E+03</pdfrwt>
<totfact> 0.23897418E+00</totfact>
</mgrwt>
</event>
<event>
12    1  0.1335216E-007  0.7897807E+03  0.7818608E-02  0.9574928E-01
         -1   -1    0    0    0  501 -0.00000000000E+00  0.00000000000E+00  0.21491828364E+04  0.21491828364E+04  0.00000000000E+00 0.  1.
          1   -1    0    0  501    0  0.00000000000E+00 -0.00000000000E+00 -0.48364102488E+03  0.48364102488E+03  0.00000000000E+00 0. -1.
         23    2    1    2    0    0  0.73703775234E+03  0.72021845859E+02  0.14879242613E+04  0.16646255890E+04  0.92994352077E+02 0.  0.
    5000000    2    1    2    0    0 -0.73703775234E+03 -0.72021845859E+02  0.17761755025E+03  0.96819827232E+03  0.59786963939E+03 0.  0.
         23    2    4    4    0    0 -0.74839536421E+03 -0.31349778658E+02 -0.10397132825E+02  0.75483896975E+03  0.92711057057E+02 0.  0.
         23    2    4    4    0    0  0.11357611863E+02 -0.40672067201E+02  0.18801468308E+03  0.21335930256E+03  0.91593987464E+02 0.  0.
          3    1    3    3  502    0  0.26392123931E+03  0.60567652128E+02  0.47955625376E+03  0.55072412473E+03  0.00000000000E+00 0. -1.
         -3    1    3    3    0  502  0.47311651304E+03  0.11454193731E+02  0.10083680075E+04  0.11139014643E+04  0.00000000000E+00 0.  1.
         11    1    5    5    0    0 -0.47931345425E+03 -0.32193783090E+02  0.36181787155E+02  0.48175403352E+03  0.00000000000E+00 0. -1.
        -11    1    5    5    0    0 -0.26908190996E+03  0.84400443259E+00 -0.46578919980E+02  0.27308493624E+03  0.00000000000E+00 0.  1.
          2    1    6    6  503    0  0.74348021861E+01 -0.62969980089E+02  0.17732816948E+03  0.18832358952E+03  0.00000000000E+00 0. -1.
         -2    1    6    6    0  503  0.39228096767E+01  0.22297912888E+02  0.10686513595E+02  0.25035713046E+02  0.00000000000E+00 0.  1.
<mgrwt>
<rscale>  0 0.78978073E+03</rscale>
<asrwt>0</asrwt>
<pdfrwt beam="1">  1        1 0.74406312E-01 0.78978073E+03</pdfrwt>
<pdfrwt beam="2">  1       -1 0.33064351E+00 0.78978073E+03</pdfrwt>
<totfact> 0.10180034E+00</totfact>
</mgrwt>
</event>
<event>
12    1  0.1335216E-007  0.8390119E+03  0.7818608E-02  0.9505205E-01
          2   -1    0    0  501    0  0.00000000000E+00  0.00000000000E+00  0.20027497827E+04  0.20027497827E+04  0.00000000000E+00 0. -1.
         -2   -1    0    0    0  501 -0.00000000000E+00 -0.00000000000E+00 -0.45761036455E+03  0.45761036455E+03  0.00000000000E+00 0.  1.
         23    2    1    2    0    0  0.64946219818E+03 -0.35766046160E+03  0.12599603544E+04  0.14647421056E+04  0.90814033550E+02 0.  0.
    5000000    2    1    2    0    0 -0.64946219818E+03  0.35766046160E+03  0.28517906384E+03  0.99561804170E+03  0.60017167032E+03 0.  0.
         23    2    4    4    0    0 -0.65130832673E+03  0.88520366230E+02  0.15491314332E+03  0.68135616371E+03  0.90607660548E+02 0.  0.
         23    2    4    4    0    0  0.18461285515E+01  0.26914009537E+03  0.13026592052E+03  0.31426187799E+03  0.96703251141E+02 0.  0.
          3    1    3    3  502    0  0.34637019554E+03 -0.14251863085E+03  0.59974952711E+03  0.70709502032E+03  0.00000000000E+00 0. -1.
         -3    1    3    3    0  502  0.30309200263E+03 -0.21514183075E+03  0.66021082725E+03  0.75764708527E+03  0.00000000000E+00 0.  1.
         13    1    5    5    0    0 -0.37076496816E+03  0.75029889623E+02  0.12733925047E+03  0.39913836029E+03  0.00000000000E+00 0.  1.
        -13    1    5    5    0    0 -0.28054335857E+03  0.13490476607E+02  0.27573892854E+02  0.28221780342E+03  0.00000000000E+00 0. -1.
          2    1    6    6  503    0  0.21817796252E+02  0.17861190485E+03  0.12925466525E+03  0.22155134230E+03  0.00000000000E+00 0. -1.
         -2    1    6    6    0  503 -0.19971667701E+02  0.90528190521E+02  0.10112552679E+01  0.92710535685E+02  0.00000000000E+00 0.  1.
<mgrwt>
<rscale>  0 0.83901192E+03</rscale>
<asrwt>0</asrwt>
<pdfrwt beam="1">  1        2 0.30811535E+00 0.83901192E+03</pdfrwt>
<pdfrwt beam="2">  1       -2 0.70401596E-01 0.83901192E+03</pdfrwt>
<totfact> 0.12496141E+01</totfact>
</mgrwt>
</event>
<event>
12    1  0.1335216E-007  0.8480571E+03  0.7818608E-02  0.9492948E-01
          1   -1    0    0  501    0  0.00000000000E+00  0.00000000000E+00  0.14907589171E+04  0.14907589171E+04  0.00000000000E+00 0. -1.
         -1   -1    0    0    0  501 -0.00000000000E+00 -0.00000000000E+00 -0.63671501018E+03  0.63671501018E+03  0.00000000000E+00 0.  1.
         23    2    1    2    0    0  0.61746515673E+03 -0.48423559669E+03  0.82057076961E+03  0.11390126604E+04  0.90918203256E+02 0.  0.
    5000000    2    1    2    0    0 -0.61746515673E+03  0.48423559669E+03  0.33473137347E+02  0.98846126694E+03  0.60015655660E+03 0.  0.
         23    2    4    4    0    0 -0.68575671568E+03  0.43863408113E+03 -0.77641814859E+02  0.82284625861E+03  0.91572832551E+02 0.  0.
         23    2    4    4    0    0  0.68291558957E+02  0.45601515555E+02  0.11111495221E+03  0.16561500832E+03  0.91315733213E+02 0.  0.
          1    1    3    3  502    0  0.28239942463E+03 -0.17082857823E+03  0.37317641614E+03  0.49818919673E+03  0.00000000000E+00 0. -1.
         -1    1    3    3    0  502  0.33506573210E+03 -0.31340701846E+03  0.44739435346E+03  0.64082346365E+03  0.00000000000E+00 0.  1.
         13    1    5    5    0    0 -0.14174966535E+03  0.13406585953E+03 -0.50510477280E+01  0.19517206614E+03  0.00000000000E+00 0.  1.
        -13    1    5    5    0    0 -0.54400705034E+03  0.30456822161E+03 -0.72590767131E+02  0.62767419248E+03  0.00000000000E+00 0. -1.
          1    1    6    6  503    0  0.58108047886E+02  0.20508690597E+02  0.12180176595E+03  0.13650209452E+03  0.00000000000E+00 0. -1.
         -1    1    6    6    0  503  0.10183511071E+02  0.25092824958E+02 -0.10686813745E+02  0.29112913804E+02  0.00000000000E+00 0.  1.
<mgrwt>
<rscale>  0 0.84805706E+03</rscale>
<asrwt>0</asrwt>
<pdfrwt beam="1">  1        1 0.22934753E+00 0.84805706E+03</pdfrwt>
<pdfrwt beam="2">  1       -1 0.97956156E-01 0.84805706E+03</pdfrwt>
<totfact> 0.67998965E+00</totfact>
</mgrwt>
</event>
<event>
12    1  0.1335216E-007  0.9593829E+03  0.7818608E-02  0.9354250E-01
          2   -1    0    0  501    0  0.00000000000E+00  0.00000000000E+00  0.20554666296E+04  0.20554666296E+04  0.00000000000E+00 0. -1.
         -2   -1    0    0    0  501 -0.00000000000E+00 -0.00000000000E+00 -0.50611124409E+03  0.50611124409E+03  0.00000000000E+00 0.  1.
         23    2    1    2    0    0  0.90598956439E+03 -0.12851591089E+03  0.91230907354E+03  0.12953867498E+04  0.91572680717E+02 0.  0.
    5000000    2    1    2    0    0 -0.90598956439E+03  0.12851591089E+03  0.63704631200E+03  0.12661911239E+04  0.60006543679E+03 0.  0.
         23    2    4    4    0    0 -0.38489135439E+02  0.95106613300E+02  0.30043740405E+03  0.33111443429E+03  0.94060902626E+02 0.  0.
         23    2    4    4    0    0 -0.86750042895E+03  0.33409297587E+02  0.33660890795E+03  0.93507668959E+03  0.85963266055E+02 0.  0.
          1    1    3    3  502    0  0.20993856698E+03 -0.11469342781E+02  0.25921636683E+03  0.33376469640E+03  0.00000000000E+00 0. -1.
         -1    1    3    3    0  502  0.69605099741E+03 -0.11704656811E+03  0.65309270671E+03  0.96162205344E+03  0.00000000000E+00 0.  1.
         11    1    5    5    0    0  0.22031491241E+02  0.50644052451E+02  0.72598489284E+02  0.91218130332E+02  0.00000000000E+00 0.  1.
        -11    1    5    5    0    0 -0.60520626680E+02  0.44462560848E+02  0.22783891477E+03  0.23989630396E+03  0.00000000000E+00 0. -1.
          2    1    6    6  503    0 -0.69917239294E+02 -0.20786535990E+02  0.30114133298E+02  0.78913632873E+02  0.00000000000E+00 0. -1.
         -2    1    6    6    0  503 -0.79758318966E+03  0.54195833577E+02  0.30649477465E+03  0.85616305672E+03  0.00000000000E+00 0.  1.
<mgrwt>
<rscale>  0 0.95938285E+03</rscale>
<asrwt>0</asrwt>
<pdfrwt beam="1">  1        2 0.31622563E+00 0.95938285E+03</pdfrwt>
<pdfrwt beam="2">  1       -2 0.77863269E-01 0.95938285E+03</pdfrwt>
<totfact> 0.92117197E+00</totfact>
</mgrwt>
</event>
<event>
12    1  0.1335216E-007  0.4564278E+03  0.7818608E-02  0.1025822E+00
          1   -1    0    0  501    0  0.00000000000E+00  0.00000000000E+00  0.32277281732E+04  0.32277281732E+04  0.00000000000E+00 0. -1.
         -1   -1    0    0    0  501 -0.00000000000E+00 -0.00000000000E+00 -0.95592309705E+02  0.95592309705E+02  0.00000000000E+00 0.  1.
         23    2    1    2    0    0  0.16495972464E+03  0.33231205805E+03  0.14601383731E+04  0.15085791008E+04  0.78509998438E+02 0.  0.
    5000000    2    1    2    0    0 -0.16495972464E+03 -0.33231205805E+03  0.16719974904E+04  0.18147413822E+04  0.60005638206E+03 0.  0.
         23    2    4    4    0    0  0.28219784711E+02  0.42248775096E+02  0.16550457105E+02  0.10406106047E+03  0.89294296736E+02 0.  0.
         23    2    4    4    0    0 -0.19317950935E+03 -0.37456083315E+03  0.16554470333E+04  0.17106803217E+04  0.91149012683E+02 0.  0.
          4    1    3    3  502    0  0.11239497293E+03  0.29144041011E+03  0.12246374864E+04  0.12638461599E+04  0.00000000000E+00 0. -1.
         -4    1    3    3    0  502  0.52564751710E+02  0.40871647940E+02  0.23550088671E+03  0.24473294091E+03  0.00000000000E+00 0.  1.
         11    1    5    5    0    0 -0.15147372171E+02  0.55376652896E+02  0.83687473351E+01  0.58017691281E+02  0.00000000000E+00 0.  1.
        -11    1    5    5    0    0  0.43367156881E+02 -0.13127877800E+02  0.81817097699E+01  0.46043369189E+02  0.00000000000E+00 0. -1.
          1    1    6    6  503    0 -0.83243153330E+02 -0.25739112799E+03  0.10391082793E+04  0.10737437457E+04  0.00000000000E+00 0. -1.
         -1    1    6    6    0  503 -0.10993635602E+03 -0.11716970516E+03  0.61633875397E+03  0.63693657599E+03  0.00000000000E+00 0.  1.
<mgrwt>
<rscale>  0 0.45642780E+03</rscale>
<asrwt>0</asrwt>
<pdfrwt beam="1">  1        1 0.49657348E+00 0.45642780E+03</pdfrwt>
<pdfrwt beam="2">  1       -1 0.14706512E-01 0.45642780E+03</pdfrwt>
<totfact> 0.15578653E+01</totfact>
</mgrwt>
</event>
<event>
12    1  0.1335216E-007  0.5838183E+03  0.7818608E-02  0.9939558E-01
         -2   -1    0    0    0  501 -0.00000000000E+00  0.00000000000E+00  0.91656440784E+03  0.91656440784E+03  0.00000000000E+00 0.  1.
          2   -1    0    0  501    0  0.00000000000E+00 -0.00000000000E+00 -0.56196857495E+03  0.56196857495E+03  0.00000000000E+00 0. -1.
         23    2    1    2    0    0 -0.35685937957E+03  0.36626795376E+03 -0.15216633026E+03  0.54129642341E+03  0.91358607667E+02 0.  0.
    5000000    2    1    2    0    0  0.35685937957E+03 -0.36626795376E+03  0.50676216314E+03  0.93723655938E+03  0.60008636672E+03 0.  0.
         23    2    4    4    0    0  0.26543724084E+03  0.19065004112E+01  0.46715638957E+03  0.54520639333E+03  0.92489758556E+02 0.  0.
         23    2    4    4    0    0  0.91422138731E+02 -0.36817445417E+03  0.39605773569E+02  0.39203016606E+03  0.90601311513E+02 0.  0.
          3    1    3    3  502    0 -0.30018062632E+03  0.25773807830E+03 -0.99214325333E+02  0.40789803600E+03  0.00000000000E+00 0. -1.
         -3    1    3    3    0  502 -0.56678753246E+02  0.10852987546E+03 -0.52952004922E+02  0.13339838741E+03  0.00000000000E+00 0.  1.
         13    1    5    5    0    0  0.12842715103E+03  0.10495806464E+02  0.13923992941E+03  0.18971413499E+03  0.00000000000E+00 0. -1.
        -13    1    5    5    0    0  0.13701008981E+03 -0.85893060533E+01  0.32791646016E+03  0.35549225833E+03  0.00000000000E+00 0.  1.
          2    1    6    6  503    0  0.31440168794E+02 -0.46081117009E+02 -0.19530950542E+02  0.59105089355E+02  0.00000000000E+00 0. -1.
         -2    1    6    6    0  503  0.59981969937E+02 -0.32209333716E+03  0.59136724111E+02  0.33292507670E+03  0.00000000000E+00 0.  1.
<mgrwt>
<rscale>  0 0.58381835E+03</rscale>
<asrwt>0</asrwt>
<pdfrwt beam="1">  1        2 0.86456704E-01 0.58381835E+03</pdfrwt>
<pdfrwt beam="2">  1       -2 0.14100991E+00 0.58381835E+03</pdfrwt>
<totfact> 0.19497244E+01</totfact>
</mgrwt>
</event>
<event>
12    1  0.1335216E-007  0.4038132E+03  0.7818608E-02  0.1042467E+00
         -2   -1    0    0    0  501 -0.00000000000E+00  0.00000000000E+00  0.15251583552E+03  0.15251583552E+03  0.00000000000E+00 0.  1.
          2   -1    0    0  501    0  0.00000000000E+00 -0.00000000000E+00 -0.15844598248E+04  0.15844598248E+04  0.00000000000E+00 0. -1.
         23    2    1    2    0    0 -0.22077055853E+03 -0.15079435660E+03 -0.21727081236E+03  0.35602263864E+03  0.89816122296E+02 0.  0.
    5000000    2    1    2    0    0  0.22077055853E+03  0.15079435660E+03 -0.12146731770E+04  0.13809530217E+04  0.60010144464E+03 0.  0.
         23    2    4    4    0    0  0.17725462708E+03  0.31201808918E+03 -0.40246508470E+03  0.54670132356E+03  0.90164860057E+02 0.  0.
         23    2    4    4    0    0  0.43515931451E+02 -0.16122373258E+03 -0.81220809227E+03  0.83425169816E+03  0.91690689199E+02 0.  0.
          1    1    3    3  502    0 -0.19738618662E+02 -0.32191146076E+02 -0.93153861377E+00  0.37772353865E+02  0.00000000000E+00 0. -1.
         -1    1    3    3    0  502 -0.20103193987E+03 -0.11860321053E+03 -0.21633927375E+03  0.31825028478E+03  0.00000000000E+00 0.  1.
         13    1    5    5    0    0  0.12249008703E+03  0.17204062922E+03 -0.17610514736E+03  0.27498149474E+03  0.00000000000E+00 0.  1.
        -13    1    5    5    0    0  0.54764540046E+02  0.13997745996E+03 -0.22635993734E+03  0.27171982883E+03  0.00000000000E+00 0. -1.
          1    1    6    6  503    0 -0.12085596060E+02 -0.34966233282E+02 -0.34845596481E+03  0.35041440968E+03  0.00000000000E+00 0. -1.
         -1    1    6    6    0  503  0.55601527511E+02 -0.12625749930E+03 -0.46375212747E+03  0.48383728848E+03  0.00000000000E+00 0.  1.
<mgrwt>
<rscale>  0 0.40381317E+03</rscale>
<asrwt>0</asrwt>
<pdfrwt beam="1">  1        2 0.24376305E+00 0.40381317E+03</pdfrwt>
<pdfrwt beam="2">  1       -2 0.23463975E-01 0.40381317E+03</pdfrwt>
<totfact> 0.19275506E+02</totfact>
</mgrwt>
</event>
<event>
12    1  0.1335216E-007  0.7243043E+03  0.7818608E-02  0.9676548E-01
          2   -1    0    0  501    0  0.00000000000E+00  0.00000000000E+00  0.11764767743E+04  0.11764767743E+04  0.00000000000E+00 0. -1.
         -2   -1    0    0    0  501 -0.00000000000E+00 -0.00000000000E+00 -0.71653006687E+03  0.71653006687E+03  0.00000000000E+00 0.  1.
         23    2    1    2    0    0  0.11991870071E+03 -0.64445346065E+03  0.70930211735E+03  0.97003198879E+03  0.90287362751E+02 0.  0.
    5000000    2    1    2    0    0 -0.11991870071E+03  0.64445346065E+03 -0.24935540992E+03  0.92297485239E+03  0.60000308330E+03 0.  0.
         23    2    4    4    0    0 -0.12776484395E+03  0.46344670848E+01  0.10091745271E+03  0.18643487847E+03  0.90709966465E+02 0.  0.
         23    2    4    4    0    0  0.78461432410E+01  0.63981899356E+03 -0.35027286263E+03  0.73653997392E+03  0.10183392558E+03 0.  0.
          1    1    3    3  502    0  0.53706408923E+02 -0.47380763477E+03  0.47946220523E+03  0.67621154927E+03  0.00000000000E+00 0. -1.
         -1    1    3    3    0  502  0.66212291785E+02 -0.17064582588E+03  0.22983991213E+03  0.29382043952E+03  0.00000000000E+00 0.  1.
         11    1    5    5    0    0 -0.13540273859E+03  0.30000862034E+01  0.10998323936E+03  0.17446837844E+03  0.00000000000E+00 0.  1.
        -11    1    5    5    0    0  0.76378946429E+01  0.16343808814E+01 -0.90657866520E+01  0.11966500034E+02  0.00000000000E+00 0. -1.
          1    1    6    6  503    0 -0.33030117433E+02  0.13399843252E+03 -0.10188123297E+03  0.17154111520E+03  0.00000000000E+00 0. -1.
         -1    1    6    6    0  503  0.40876260674E+02  0.50582056104E+03 -0.24839162966E+03  0.56499885871E+03  0.00000000000E+00 0.  1.
<mgrwt>
<rscale>  0 0.72430425E+03</rscale>
<asrwt>0</asrwt>
<pdfrwt beam="1">  1        2 0.18099643E+00 0.72430425E+03</pdfrwt>
<pdfrwt beam="2">  1       -2 0.11023540E+00 0.72430425E+03</pdfrwt>
<totfact> 0.13075706E+01</totfact>
</mgrwt>
</event>
<event>
12    1  0.1335216E-007  0.8603356E+03  0.7818608E-02  0.9476569E-01
          2   -1    0    0  501    0  0.00000000000E+00  0.00000000000E+00  0.22212124421E+04  0.22212124421E+04  0.00000000000E+00 0. -1.
         -2   -1    0    0    0  501 -0.00000000000E+00 -0.00000000000E+00 -0.10463711089E+04  0.10463711089E+04  0.00000000000E+00 0.  1.
         23    2    1    2    0    0  0.42355223372E+03 -0.69565567688E+03 -0.73857475983E+03  0.11032539747E+04  0.91341892190E+02 0.  0.
    5000000    2    1    2    0    0 -0.42355223372E+03  0.69565567688E+03  0.19134160930E+04  0.21643295764E+04  0.59985669509E+03 0.  0.
         23    2    4    4    0    0 -0.46369232409E+03  0.63817992672E+03  0.11821972898E+04  0.14240859492E+04  0.90256127151E+02 0.  0.
         23    2    4    4    0    0  0.40140090369E+02  0.57475750164E+02  0.73121880329E+03  0.74024362720E+03  0.91460377301E+02 0.  0.
          1    1    3    3  502    0  0.16587960581E+03 -0.32658999542E+03 -0.37965933810E+03  0.52755879458E+03  0.00000000000E+00 0. -1.
         -1    1    3    3    0  502  0.25767262791E+03 -0.36906568147E+03 -0.35891542173E+03  0.57569518008E+03  0.00000000000E+00 0.  1.
         13    1    5    5    0    0 -0.11938436216E+03  0.12443954171E+03  0.20834020603E+03  0.27045048885E+03  0.00000000000E+00 0. -1.
        -13    1    5    5    0    0 -0.34430796193E+03  0.51374038501E+03  0.97385708372E+03  0.11536354603E+04  0.00000000000E+00 0.  1.
          4    1    6    6  503    0  0.42245915312E+02 -0.11948354796E+02  0.35075838086E+03  0.35349529316E+03  0.00000000000E+00 0. -1.
         -4    1    6    6    0  503 -0.21058249428E+01  0.69424104960E+02  0.38046042242E+03  0.38674833404E+03  0.00000000000E+00 0.  1.
<mgrwt>
<rscale>  0 0.86033562E+03</rscale>
<asrwt>0</asrwt>
<pdfrwt beam="1">  1        2 0.34172499E+00 0.86033562E+03</pdfrwt>
<pdfrwt beam="2">  1       -2 0.16098017E+00 0.86033562E+03</pdfrwt>
<totfact> 0.12737106E+00</totfact>
</mgrwt>
</event>
<event>
12    1  0.1335216E-007  0.6804302E+03  0.7818608E-02  0.9751297E-01
         -2   -1    0    0    0  501 -0.00000000000E+00  0.00000000000E+00  0.64661564211E+03  0.64661564211E+03  0.00000000000E+00 0.  1.
          2   -1    0    0  501    0  0.00000000000E+00 -0.00000000000E+00 -0.44678304682E+04  0.44678304682E+04  0.00000000000E+00 0. -1.
         23    2    1    2    0    0  0.12449827767E+03  0.53756290514E+03  0.47950250134E+03  0.73716188375E+03  0.94927845976E+02 0.  0.
    5000000    2    1    2    0    0 -0.12449827767E+03 -0.53756290514E+03 -0.43007173275E+04  0.43772842266E+04  0.59997830925E+03 0.  0.
         23    2    4    4    0    0 -0.97719940974E+02 -0.64853509260E+03 -0.32992779200E+04  0.33650359602E+04  0.89918109707E+02 0.  0.
         23    2    4    4    0    0 -0.26778336697E+02  0.11097218746E+03 -0.10014394074E+04  0.10122482664E+04  0.93454590158E+02 0.  0.
          1    1    3    3  502    0  0.81920377028E+02  0.29513896203E+03  0.32481135307E+03  0.44645309962E+03  0.00000000000E+00 0. -1.
         -1    1    3    3    0  502  0.42577900644E+02  0.24242394311E+03  0.15469114826E+03  0.29070878413E+03  0.00000000000E+00 0.  1.
         11    1    5    5    0    0 -0.64805957320E+02 -0.16946440170E+03 -0.85616861655E+03  0.87518152147E+03  0.00000000000E+00 0.  1.
        -11    1    5    5    0    0 -0.32913983654E+02 -0.47907069090E+03 -0.24431093035E+04  0.24898544387E+04  0.00000000000E+00 0. -1.
          2    1    6    6  503    0  0.34465697466E+02  0.46385013484E+02 -0.44465301708E+03  0.44839241673E+03  0.00000000000E+00 0. -1.
         -2    1    6    6    0  503 -0.61244034164E+02  0.64587173975E+02 -0.55678639034E+03  0.56385584969E+03  0.00000000000E+00 0.  1.
<mgrwt>
<rscale>  0 0.68043024E+03</rscale>
<asrwt>0</asrwt>
<pdfrwt beam="1">  1        2 0.68735854E+00 0.68043024E+03</pdfrwt>
<pdfrwt beam="2">  1       -2 0.99479328E-01 0.68043024E+03</pdfrwt>
<totfact> 0.12928821E-01</totfact>
</mgrwt>
</event>
<event>
12    1  0.1335216E-007  0.1187016E+04  0.7818608E-02  0.9124298E-01
         -2   -1    0    0    0  501 -0.00000000000E+00  0.00000000000E+00  0.63990153576E+03  0.63990153576E+03  0.00000000000E+00 0.  1.
          2   -1    0    0  501    0  0.00000000000E+00 -0.00000000000E+00 -0.22576080697E+04  0.22576080697E+04  0.00000000000E+00 0. -1.
         23    2    1    2    0    0  0.51954102676E+03 -0.98448398174E+03 -0.95660605381E+03  0.14705688514E+04  0.91356531278E+02 0.  0.
    5000000    2    1    2    0    0 -0.51954102676E+03  0.98448398174E+03 -0.66110048018E+03  0.14269407541E+04  0.59997873459E+03 0.  0.
         23    2    4    4    0    0 -0.72123968431E+02  0.73440900978E+03 -0.40813461864E+03  0.84814039797E+03  0.90607986799E+02 0.  0.
         23    2    4    4    0    0 -0.44741705833E+03  0.25007497196E+03 -0.25296586154E+03  0.57880035610E+03  0.91096703745E+02 0.  0.
          1    1    3    3  502    0  0.36308303372E+03 -0.61587192753E+03 -0.64972814925E+03  0.96606117220E+03  0.00000000000E+00 0. -1.
         -1    1    3    3    0  502  0.15645799304E+03 -0.36861205421E+03 -0.30687790456E+03  0.50450767923E+03  0.00000000000E+00 0.  1.
         11    1    5    5    0    0 -0.64136314096E+01  0.12991446069E+03 -0.34900964392E+02  0.13467360201E+03  0.00000000000E+00 0.  1.
        -11    1    5    5    0    0 -0.65710337022E+02  0.60449454910E+03 -0.37323365425E+03  0.71346679596E+03  0.00000000000E+00 0. -1.
          4    1    6    6  503    0 -0.18460531550E+03  0.53087094625E+02 -0.88944388561E+02  0.21168010389E+03  0.00000000000E+00 0. -1.
         -4    1    6    6    0  503 -0.26281174284E+03  0.19698787733E+03 -0.16402147298E+03  0.36712025221E+03  0.00000000000E+00 0.  1.
<mgrwt>
<rscale>  0 0.11870156E+04</rscale>
<asrwt>0</asrwt>
<pdfrwt beam="1">  1        2 0.34732432E+00 0.11870156E+04</pdfrwt>
<pdfrwt beam="2">  1       -2 0.98446390E-01 0.11870156E+04</pdfrwt>
<totfact> 0.40349479E+00</totfact>
</mgrwt>
</event>
<event>
12    1  0.1335216E-007  0.5676650E+03  0.7818608E-02  0.9974859E-01
          2   -1    0    0  501    0  0.00000000000E+00  0.00000000000E+00  0.62958623813E+03  0.62958623813E+03  0.00000000000E+00 0. -1.
         -2   -1    0    0    0  501 -0.00000000000E+00 -0.00000000000E+00 -0.61592272571E+03  0.61592272571E+03  0.00000000000E+00 0.  1.
         23    2    1    2    0    0 -0.32645699519E+03 -0.34011403921E+03 -0.12191595250E+02  0.48200469766E+03  0.99640173579E+02 0.  0.
    5000000    2    1    2    0    0  0.32645699519E+03  0.34011403921E+03  0.25855107675E+02  0.76350426619E+03  0.60001545689E+03 0.  0.
         23    2    4    4    0    0  0.38802141981E+03  0.37255292513E+03 -0.13843151031E+03  0.56308770249E+03  0.92456332382E+02 0.  0.
         23    2    4    4    0    0 -0.61564424618E+02 -0.32438885912E+02  0.16428661799E+03  0.20041656370E+03  0.91292094162E+02 0.  0.
          4    1    3    3  502    0 -0.18642416855E+03 -0.13551689279E+03  0.22873935914E+02  0.23160746058E+03  0.00000000000E+00 0. -1.
         -4    1    3    3    0  502 -0.14003282664E+03 -0.20459714642E+03 -0.35065531164E+02  0.25039723708E+03  0.00000000000E+00 0.  1.
         13    1    5    5    0    0  0.16522914495E+03  0.10763733908E+03 -0.76121716102E+02  0.21137876613E+03  0.00000000000E+00 0.  1.
        -13    1    5    5    0    0  0.22279227486E+03  0.26491558604E+03 -0.62309794210E+02  0.35170893636E+03  0.00000000000E+00 0. -1.
          1    1    6    6  503    0 -0.66029604099E+02 -0.57847483578E+02  0.11383781973E+03  0.14375426663E+03  0.00000000000E+00 0.  1.
         -1    1    6    6    0  503  0.44651794809E+01  0.25408597667E+02  0.50448798252E+02  0.56662297061E+02  0.00000000000E+00 0. -1.
<mgrwt>
<rscale>  0 0.56766503E+03</rscale>
<asrwt>0</asrwt>
<pdfrwt beam="1">  1        2 0.96859422E-01 0.56766503E+03</pdfrwt>
<pdfrwt beam="2">  1       -2 0.94757342E-01 0.56766503E+03</pdfrwt>
<totfact> 0.45095164E+01</totfact>
</mgrwt>
</event>
<event>
12    1  0.1335216E-007  0.6927364E+03  0.7818608E-02  0.9729735E-01
          3   -1    0    0  501    0  0.00000000000E+00  0.00000000000E+00  0.18050656069E+04  0.18050656069E+04  0.00000000000E+00 0. -1.
         -3   -1    0    0    0  501 -0.00000000000E+00 -0.00000000000E+00 -0.28775512519E+03  0.28775512519E+03  0.00000000000E+00 0.  1.
         23    2    1    2    0    0 -0.51339600227E+03 -0.27859847585E+03  0.49337146942E+03  0.77005199315E+03  0.91499177191E+02 0.  0.
    5000000    2    1    2    0    0  0.51339600227E+03  0.27859847585E+03  0.10239390123E+04  0.13227687389E+04  0.60006122180E+03 0.  0.
         23    2    4    4    0    0  0.54609664594E+03  0.43950793259E+02  0.52816810013E+03  0.76614873265E+03  0.88708058343E+02 0.  0.
         23    2    4    4    0    0 -0.32700643667E+02  0.23464768259E+03  0.49577091213E+03  0.55662000625E+03  0.88927875340E+02 0.  0.
          3    1    3    3  502    0 -0.41246017215E+02 -0.23588956319E+02  0.78518262835E+02  0.91775761479E+02  0.00000000000E+00 0. -1.
         -3    1    3    3    0  502 -0.47214998505E+03 -0.25500951953E+03  0.41485320658E+03  0.67827623167E+03  0.00000000000E+00 0.  1.
         11    1    5    5    0    0  0.32284106784E+03  0.66943542969E+02  0.33493771337E+03  0.46999049444E+03  0.00000000000E+00 0.  1.
        -11    1    5    5    0    0  0.22325557809E+03 -0.22992749710E+02  0.19323038676E+03  0.29615823820E+03  0.00000000000E+00 0. -1.
          4    1    6    6  503    0 -0.43412538099E+02  0.71141732646E+02  0.11440085485E+03  0.14153921781E+03  0.00000000000E+00 0. -1.
         -4    1    6    6    0  503  0.10711894432E+02  0.16350594994E+03  0.38137005727E+03  0.41508078844E+03  0.00000000000E+00 0.  1.
<mgrwt>
<rscale>  0 0.69273639E+03</rscale>
<asrwt>0</asrwt>
<pdfrwt beam="1">  1        3 0.27770239E+00 0.69273639E+03</pdfrwt>
<pdfrwt beam="2">  1       -3 0.44270021E-01 0.69273639E+03</pdfrwt>
<totfact> 0.69564188E-01</totfact>
</mgrwt>
</event>
<event>
12    1  0.1335216E-007  0.1480374E+04  0.7818608E-02  0.8897610E-01
          2   -1    0    0  501    0  0.00000000000E+00  0.00000000000E+00  0.90754472236E+03  0.90754472236E+03  0.00000000000E+00 0. -1.
         -2   -1    0    0    0  501 -0.00000000000E+00 -0.00000000000E+00 -0.25797738322E+04  0.25797738322E+04  0.00000000000E+00 0.  1.
         23    2    1    2    0    0  0.14135180242E+04 -0.36741252287E+03 -0.99390458629E+03  0.17688580838E+04  0.89372406767E+02 0.  0.
    5000000    2    1    2    0    0 -0.14135180242E+04  0.36741252287E+03 -0.67832452352E+03  0.17184604708E+04  0.59996421870E+03 0.  0.
         23    2    4    4    0    0 -0.45541148866E+03 -0.20109942395E+02  0.24452728192E+02  0.46547401302E+03  0.90907024436E+02 0.  0.
         23    2    4    4    0    0 -0.95810653554E+03  0.38752246527E+03 -0.70277725171E+03  0.12529864578E+04  0.89092105577E+02 0.  0.
          1    1    3    3  502    0  0.76305044309E+03 -0.21661227018E+03 -0.58889441786E+03  0.98790864440E+03  0.00000000000E+00 0. -1.
         -1    1    3    3    0  502  0.65046758111E+03 -0.15080025269E+03 -0.40501016843E+03  0.78094943935E+03  0.00000000000E+00 0.  1.
         11    1    5    5    0    0  0.27212918181E+01 -0.58716150215E+01  0.61142396177E+00  0.65003947096E+01  0.00000000000E+00 0.  1.
        -11    1    5    5    0    0 -0.45813278048E+03 -0.14238327374E+02  0.23841304230E+02  0.45897361831E+03  0.00000000000E+00 0. -1.
          4    1    6    6  503    0 -0.67128392518E+03  0.29871340203E+03 -0.46005127578E+03  0.86689040894E+03  0.00000000000E+00 0.  1.
         -4    1    6    6    0  503 -0.28682261036E+03  0.88809063240E+02 -0.24272597592E+03  0.38609604882E+03  0.00000000000E+00 0. -1.
<mgrwt>
<rscale>  0 0.14803741E+04</rscale>
<asrwt>0</asrwt>
<pdfrwt beam="1">  1        2 0.13962227E+00 0.14803741E+04</pdfrwt>
<pdfrwt beam="2">  1       -2 0.39688828E+00 0.14803741E+04</pdfrwt>
<totfact> 0.21498317E-01</totfact>
</mgrwt>
</event>
<event>
12    1  0.1335216E-007  0.1134984E+04  0.7818608E-02  0.9171749E-01
         -2   -1    0    0    0  501 -0.00000000000E+00  0.00000000000E+00  0.20584714471E+04  0.20584714471E+04  0.00000000000E+00 0.  1.
          2   -1    0    0  501    0  0.00000000000E+00 -0.00000000000E+00 -0.70495160293E+03  0.70495160293E+03  0.00000000000E+00 0. -1.
         23    2    1    2    0    0 -0.98609122363E+03  0.52875474867E+03  0.47244556180E+03  0.12180276187E+04  0.91809506885E+02 0.  0.
    5000000    2    1    2    0    0  0.98609122363E+03 -0.52875474867E+03  0.88107428239E+03  0.15453954313E+04  0.59999805207E+03 0.  0.
         23    2    4    4    0    0  0.53868577513E+03 -0.17439610961E+03  0.76498804734E+03  0.95594449666E+03  0.89592414574E+02 0.  0.
         23    2    4    4    0    0  0.44740544850E+03 -0.35435863906E+03  0.11608623505E+03  0.58945093466E+03  0.90745302791E+02 0.  0.
          3    1    3    3  502    0 -0.19658414752E+03  0.73762329697E+02  0.64512039249E+02  0.21965430009E+03  0.00000000000E+00 0. -1.
         -3    1    3    3    0  502 -0.78950707611E+03  0.45499241897E+03  0.40793352255E+03  0.99837331864E+03  0.00000000000E+00 0.  1.
         13    1    5    5    0    0  0.47965415965E+03 -0.12352690461E+03  0.66409069258E+03  0.82845848237E+03  0.00000000000E+00 0. -1.
        -13    1    5    5    0    0  0.59031615477E+02 -0.50869204997E+02  0.10089735476E+03  0.12748601429E+03  0.00000000000E+00 0.  1.
          3    1    6    6  503    0  0.12087309681E+03 -0.55950609804E+02  0.46127226895E+01  0.13327435418E+03  0.00000000000E+00 0. -1.
         -3    1    6    6    0  503  0.32653235169E+03 -0.29840802926E+03  0.11147351236E+03  0.45617658048E+03  0.00000000000E+00 0.  1.
<mgrwt>
<rscale>  0 0.11349844E+04</rscale>
<asrwt>0</asrwt>
<pdfrwt beam="1">  1        2 0.10845409E+00 0.11349844E+04</pdfrwt>
<pdfrwt beam="2">  1       -2 0.31668791E+00 0.11349844E+04</pdfrwt>
<totfact> 0.10099606E+00</totfact>
</mgrwt>
</event>
<event>
12    1  0.1335216E-007  0.1074180E+04  0.7818608E-02  0.9230730E-01
         -2   -1    0    0    0  501 -0.00000000000E+00  0.00000000000E+00  0.54024382827E+03  0.54024382827E+03  0.00000000000E+00 0.  1.
          2   -1    0    0  501    0  0.00000000000E+00 -0.00000000000E+00 -0.35218725496E+04  0.35218725496E+04  0.00000000000E+00 0. -1.
         23    2    1    2    0    0 -0.33278395926E+03 -0.96037177336E+03 -0.20025458141E+03  0.10406579673E+04  0.99035351629E+02 0.  0.
    5000000    2    1    2    0    0  0.33278395926E+03  0.96037177336E+03 -0.27813741399E+04  0.30214584106E+04  0.60009142144E+03 0.  0.
         23    2    4    4    0    0  0.96981920568E+02 -0.33227530579E+02 -0.18055055849E+03  0.22584654903E+03  0.88874056005E+02 0.  0.
         23    2    4    4    0    0  0.23580203869E+03  0.99359930394E+03 -0.26008235814E+04  0.27956118616E+04  0.91215133290E+02 0.  0.
          3    1    3    3  502    0 -0.12236781464E+03 -0.49504433715E+03 -0.82603798441E+02  0.51659090712E+03  0.00000000000E+00 0. -1.
         -3    1    3    3    0  502 -0.21041614462E+03 -0.46532743621E+03 -0.11765078296E+03  0.52406706015E+03  0.00000000000E+00 0.  1.
         11    1    5    5    0    0  0.53780539068E+02 -0.33231556325E+02 -0.17000154156E+03  0.18137587175E+03  0.00000000000E+00 0. -1.
        -11    1    5    5    0    0  0.43201381500E+02  0.40257452015E-02 -0.10549016930E+02  0.44470677282E+02  0.00000000000E+00 0.  1.
          1    1    6    6  503    0  0.15459770456E+03  0.68129657976E+03 -0.18895464317E+04  0.20145598024E+04  0.00000000000E+00 0. -1.
         -1    1    6    6    0  503  0.81204334130E+02  0.31230272418E+03 -0.71127714974E+03  0.78105205918E+03  0.00000000000E+00 0.  1.
<mgrwt>
<rscale>  0 0.10741795E+04</rscale>
<asrwt>0</asrwt>
<pdfrwt beam="1">  1        2 0.54182653E+00 0.10741795E+04</pdfrwt>
<pdfrwt beam="2">  1       -2 0.83114437E-01 0.10741795E+04</pdfrwt>
<totfact> 0.10176732E+00</totfact>
</mgrwt>
</event>
<event>
12    1  0.1335216E-007  0.4456589E+03  0.7818608E-02  0.1029025E+00
         -1   -1    0    0    0  501 -0.00000000000E+00  0.00000000000E+00  0.30098275190E+03  0.30098275190E+03  0.00000000000E+00 0.  1.
          1   -1    0    0  501    0  0.00000000000E+00 -0.00000000000E+00 -0.70628299362E+03  0.70628299362E+03  0.00000000000E+00 0. -1.
         23    2    1    2    0    0 -0.25196542117E+03 -0.37131781213E+02 -0.10674788122E+03  0.29041095478E+03  0.89878083369E+02 0.  0.
    5000000    2    1    2    0    0  0.25196542117E+03  0.37131781213E+02 -0.29855236050E+03  0.71685479073E+03  0.59990160559E+03 0.  0.
         23    2    4    4    0    0  0.18166715297E+03 -0.25080770205E+03 -0.68484559337E+02  0.33087667043E+03  0.94243186978E+02 0.  0.
         23    2    4    4    0    0  0.70298268206E+02  0.28793948327E+03 -0.23006780117E+03  0.38597812030E+03  0.90536863665E+02 0.  0.
          1    1    3    3  502    0 -0.37347972272E+02 -0.21535879222E+02 -0.53552651465E+02  0.68749920768E+02  0.00000000000E+00 0. -1.
         -1    1    3    3    0  502 -0.21461744890E+03 -0.15595901990E+02 -0.53195229754E+02  0.22166103402E+03  0.00000000000E+00 0.  1.
         11    1    5    5    0    0  0.12075576961E+03 -0.87744066913E+02 -0.39556446551E+02  0.15442049616E+03  0.00000000000E+00 0.  1.
        -11    1    5    5    0    0  0.60911383363E+02 -0.16306363514E+03 -0.28928112785E+02  0.17645617427E+03  0.00000000000E+00 0. -1.
          2    1    6    6  503    0 -0.20414501837E+02  0.84614034224E+02 -0.58043084323E+02  0.10461972238E+03  0.00000000000E+00 0.  1.
         -2    1    6    6    0  503  0.90712770043E+02  0.20332544904E+03 -0.17202471684E+03  0.28135839792E+03  0.00000000000E+00 0. -1.
<mgrwt>
<rscale>  0 0.44565886E+03</rscale>
<asrwt>0</asrwt>
<pdfrwt beam="1">  1        1 0.10865892E+00 0.44565886E+03</pdfrwt>
<pdfrwt beam="2">  1       -1 0.46305039E-01 0.44565886E+03</pdfrwt>
<totfact> 0.13015027E+02</totfact>
</mgrwt>
</event>
<event>
12    1  0.1335216E-007  0.6636185E+03  0.7818608E-02  0.9781555E-01
          2   -1    0    0  501    0  0.00000000000E+00  0.00000000000E+00  0.12163259532E+04  0.12163259532E+04  0.00000000000E+00 0.  1.
         -2   -1    0    0    0  501 -0.00000000000E+00 -0.00000000000E+00 -0.43138562472E+03  0.43138562472E+03  0.00000000000E+00 0. -1.
         23    2    1    2    0    0 -0.57500737474E+03 -0.90202821143E+02  0.47328473451E+03  0.75557906120E+03  0.90173432125E+02 0.  0.
    5000000    2    1    2    0    0  0.57500737474E+03  0.90202821143E+02  0.31165559401E+03  0.89213251676E+03  0.60000099021E+03 0.  0.
         23    2    4    4    0    0  0.84713619210E+02 -0.15366651934E+03  0.27090298279E+03  0.33539361126E+03  0.91162777210E+02 0.  0.
         23    2    4    4    0    0  0.49029375553E+03  0.24386934048E+03  0.40752611217E+02  0.55673890550E+03  0.91854295726E+02 0.  0.
          1    1    3    3  502    0 -0.66896031256E+02 -0.11865666866E+02  0.97202802203E+02  0.11859282358E+03  0.00000000000E+00 0. -1.
         -1    1    3    3    0  502 -0.50811134348E+03 -0.78337154277E+02  0.37608193231E+03  0.63698623762E+03  0.00000000000E+00 0.  1.
         11    1    5    5    0    0 -0.19189000718E+02 -0.24995471141E+02  0.32760104072E+02  0.45455645908E+02  0.00000000000E+00 0.  1.
        -11    1    5    5    0    0  0.10390261993E+03 -0.12867104819E+03  0.23814287872E+03  0.28993796536E+03  0.00000000000E+00 0. -1.
          1    1    6    6  503    0  0.28821507639E+03  0.12816414905E+03 -0.20078430144E+02  0.31606506090E+03  0.00000000000E+00 0. -1.
         -1    1    6    6    0  503  0.20207867913E+03  0.11570519143E+03  0.60831041362E+02  0.24067384460E+03  0.00000000000E+00 0.  1.
<mgrwt>
<rscale>  0 0.66361851E+03</rscale>
<asrwt>0</asrwt>
<pdfrwt beam="1">  1        2 0.18712707E+00 0.66361851E+03</pdfrwt>
<pdfrwt beam="2">  1       -2 0.66367020E-01 0.66361851E+03</pdfrwt>
<totfact> 0.39732346E+01</totfact>
</mgrwt>
</event>
<event>
12    1  0.1335216E-007  0.5183821E+03  0.7818608E-02  0.1009089E+00
          1   -1    0    0  501    0  0.00000000000E+00  0.00000000000E+00  0.78762454311E+03  0.78762454311E+03  0.00000000000E+00 0. -1.
         -1   -1    0    0    0  501 -0.00000000000E+00 -0.00000000000E+00 -0.48133351306E+03  0.48133351306E+03  0.00000000000E+00 0.  1.
         23    2    1    2    0    0  0.14328352460E+02 -0.41266778280E+03  0.33510263889E+03  0.53989423298E+03  0.93230915311E+02 0.  0.
    5000000    2    1    2    0    0 -0.14328352460E+02  0.41266778280E+03 -0.28811608839E+02  0.72906382319E+03  0.60016993330E+03 0.  0.
         23    2    4    4    0    0 -0.16101033144E+03 -0.24345351416E+00  0.15736618736E+03  0.24428725462E+03  0.94803796069E+02 0.  0.
         23    2    4    4    0    0  0.14668197898E+03  0.41291123631E+03 -0.18617779620E+03  0.48477656856E+03  0.91295441298E+02 0.  0.
          4    1    3    3  502    0  0.12539358149E+01 -0.69216238489E+02  0.10681426127E+03  0.12728608108E+03  0.00000000000E+00 0. -1.
         -4    1    3    3    0  502  0.13074416645E+02 -0.34345154431E+03  0.22828837762E+03  0.41260815190E+03  0.00000000000E+00 0.  1.
         11    1    5    5    0    0 -0.29792703420E+02 -0.37814640088E+02  0.25391493398E+02  0.54426832712E+02  0.00000000000E+00 0. -1.
        -11    1    5    5    0    0 -0.13121762802E+03  0.37571186573E+02  0.13197469396E+03  0.18986042191E+03  0.00000000000E+00 0.  1.
          3    1    6    6  503    0  0.83841863895E+02  0.27816789652E+03 -0.77719403119E+02  0.30074431402E+03  0.00000000000E+00 0. -1.
         -3    1    6    6    0  503  0.62840115080E+02  0.13474333979E+03 -0.10845839308E+03  0.18403225454E+03  0.00000000000E+00 0.  1.
<mgrwt>
<rscale>  0 0.51838212E+03</rscale>
<asrwt>0</asrwt>
<pdfrwt beam="1">  1        1 0.12117301E+00 0.51838212E+03</pdfrwt>
<pdfrwt beam="2">  1       -1 0.74051310E-01 0.51838212E+03</pdfrwt>
<totfact> 0.43764361E+01</totfact>
</mgrwt>
</event>
<event>
12    1  0.1335216E-007  0.1029048E+04  0.7818608E-02  0.9277247E-01
         -1   -1    0    0    0  501 -0.00000000000E+00  0.00000000000E+00  0.13220687187E+04  0.13220687187E+04  0.00000000000E+00 0.  1.
          1   -1    0    0  501    0  0.00000000000E+00 -0.00000000000E+00 -0.17829871743E+04  0.17829871743E+04  0.00000000000E+00 0. -1.
         23    2    1    2    0    0  0.68281290788E+03  0.70510092922E+03 -0.13356593820E+04  0.16598950527E+04  0.88683786052E+02 0.  0.
    5000000    2    1    2    0    0 -0.68281290788E+03 -0.70510092922E+03  0.87474092641E+03  0.14451608402E+04  0.59993114457E+03 0.  0.
         23    2    4    4    0    0 -0.67406145425E+03 -0.46883412800E+03  0.42488224973E+03  0.92951414766E+03  0.96474560786E+02 0.  0.
         23    2    4    4    0    0 -0.87514536303E+01 -0.23626680122E+03  0.44985867668E+03  0.51564669257E+03  0.87293145613E+02 0.  0.
          3    1    3    3  502    0  0.10802813218E+03  0.15006064458E+03 -0.28930339146E+03  0.34334345298E+03  0.00000000000E+00 0. -1.
         -3    1    3    3    0  502  0.57478477570E+03  0.55504028464E+03 -0.10463559905E+04  0.13165515998E+04  0.00000000000E+00 0.  1.
         13    1    5    5    0    0 -0.18714106942E+03 -0.84572899261E+02  0.85431144919E+02  0.22242489895E+03  0.00000000000E+00 0.  1.
        -13    1    5    5    0    0 -0.48692038483E+03 -0.38426122874E+03  0.33945110481E+03  0.70708924871E+03  0.00000000000E+00 0. -1.
          1    1    6    6  503    0 -0.41091876999E+02 -0.93402220642E+02  0.22801801069E+03  0.24980938809E+03  0.00000000000E+00 0. -1.
         -1    1    6    6    0  503  0.32340423369E+02 -0.14286458057E+03  0.22184066599E+03  0.26583730448E+03  0.00000000000E+00 0.  1.
<mgrwt>
<rscale>  0 0.10290477E+04</rscale>
<asrwt>0</asrwt>
<pdfrwt beam="1">  1        1 0.27430572E+00 0.10290477E+04</pdfrwt>
<pdfrwt beam="2">  1       -1 0.20339519E+00 0.10290477E+04</pdfrwt>
<totfact> 0.60000511E-01</totfact>
</mgrwt>
</event>
<event>
12    1  0.1335216E-007  0.8578749E+03  0.7818608E-02  0.9479828E-01
          1   -1    0    0  501    0  0.00000000000E+00  0.00000000000E+00  0.40002050938E+03  0.40002050938E+03  0.00000000000E+00 0. -1.
         -1   -1    0    0    0  501 -0.00000000000E+00 -0.00000000000E+00 -0.29427797386E+04  0.29427797386E+04  0.00000000000E+00 0.  1.
         23    2    1    2    0    0  0.22369642944E+03  0.81130384550E+03 -0.20081494383E+04  0.21791504446E+04  0.88195642672E+02 0.  0.
    5000000    2    1    2    0    0 -0.22369642944E+03 -0.81130384550E+03 -0.53460979087E+03  0.11636498033E+04  0.60001601149E+03 0.  0.
         23    2    4    4    0    0 -0.14539733581E+03 -0.20075649930E+03 -0.46876685147E+03  0.53795512264E+03  0.90607922744E+02 0.  0.
         23    2    4    4    0    0 -0.78299093635E+02 -0.61054734620E+03 -0.65842939399E+02  0.62569468070E+03  0.90883060981E+02 0.  0.
          1    1    3    3  502    0  0.76246905222E+02  0.29685015260E+03 -0.84262703605E+03  0.89663477824E+03  0.00000000000E+00 0. -1.
         -1    1    3    3    0  502  0.14744952422E+03  0.51445369290E+03 -0.11655224023E+04  0.12825156664E+04  0.00000000000E+00 0.  1.
         11    1    5    5    0    0 -0.11744599217E+03 -0.10790342460E+03 -0.35003523063E+03  0.38465747464E+03  0.00000000000E+00 0.  1.
        -11    1    5    5    0    0 -0.27951343637E+02 -0.92853074709E+02 -0.11873162084E+03  0.15329764800E+03  0.00000000000E+00 0. -1.
          1    1    6    6  503    0 -0.55785363495E+02 -0.23958166335E+03 -0.63437079744E+02  0.25403866494E+03  0.00000000000E+00 0. -1.
         -1    1    6    6    0  503 -0.22513730140E+02 -0.37096568284E+03 -0.24058596545E+01  0.37165601576E+03  0.00000000000E+00 0.  1.
<mgrwt>
<rscale>  0 0.85787489E+03</rscale>
<asrwt>0</asrwt>
<pdfrwt beam="1">  1        1 0.61541617E-01 0.85787489E+03</pdfrwt>
<pdfrwt beam="2">  1       -1 0.45273535E+00 0.85787489E+03</pdfrwt>
<totfact> 0.19552156E-01</totfact>
</mgrwt>
</event>
<event>
12    1  0.1335216E-007  0.8439276E+03  0.7818608E-02  0.9498524E-01
         -1   -1    0    0    0  501 -0.00000000000E+00  0.00000000000E+00  0.55381097008E+03  0.55381097008E+03  0.00000000000E+00 0.  1.
          1   -1    0    0  501    0  0.00000000000E+00 -0.00000000000E+00 -0.20894141086E+04  0.20894141086E+04  0.00000000000E+00 0. -1.
         23    2    1    2    0    0  0.11076069765E+03 -0.76174632800E+03 -0.14715236736E+04  0.16650955909E+04  0.12097935627E+03 0.  0.
    5000000    2    1    2    0    0 -0.11076069765E+03  0.76174632800E+03 -0.64079464977E+02  0.97812948778E+03  0.60008809076E+03 0.  0.
         23    2    4    4    0    0  0.17666195474E+03  0.15260549754E+03 -0.15193157049E+03  0.29288187813E+03  0.90546718861E+02 0.  0.
         23    2    4    4    0    0 -0.28742265240E+03  0.60914083047E+03  0.87852105508E+02  0.68524760965E+03  0.90454196344E+02 0.  0.
          2    1    3    3  502    0  0.11241542224E+03 -0.59613091318E+03 -0.12399065395E+04  0.13803541283E+04  0.00000000000E+00 0. -1.
         -2    1    3    3    0  502 -0.16547245840E+01 -0.16561541482E+03 -0.23161713405E+03  0.28474146260E+03  0.00000000000E+00 0.  1.
         11    1    5    5    0    0  0.62827906870E+02  0.19091162298E+02 -0.79378311885E+02  0.10301812829E+03  0.00000000000E+00 0.  1.
        -11    1    5    5    0    0  0.11383404787E+03  0.13351433524E+03 -0.72553258600E+02  0.18986374984E+03  0.00000000000E+00 0. -1.
          3    1    6    6  503    0 -0.29842154549E+02  0.92300631078E+02  0.42786495978E+02  0.10602190775E+03  0.00000000000E+00 0. -1.
         -3    1    6    6    0  503 -0.25758049785E+03  0.51684019939E+03  0.45065609530E+02  0.57922570190E+03  0.00000000000E+00 0.  1.
<mgrwt>
<rscale>  0 0.84392757E+03</rscale>
<asrwt>0</asrwt>
<pdfrwt beam="1">  1        1 0.32144832E+00 0.84392757E+03</pdfrwt>
<pdfrwt beam="2">  1       -1 0.85201688E-01 0.84392757E+03</pdfrwt>
<totfact> 0.36565073E+00</totfact>
</mgrwt>
</event>
<event>
12    1  0.1335216E-007  0.5573347E+03  0.7818608E-02  0.9998103E-01
         -2   -1    0    0    0  501 -0.00000000000E+00  0.00000000000E+00  0.28388684004E+03  0.28388684004E+03  0.00000000000E+00 0.  1.
          2   -1    0    0  501    0  0.00000000000E+00 -0.00000000000E+00 -0.17860341558E+04  0.17860341558E+04  0.00000000000E+00 0. -1.
         23    2    1    2    0    0 -0.21104203589E+03 -0.34647661187E+03 -0.12262308571E+04  0.12948656210E+04  0.91924307001E+02 0.  0.
    5000000    2    1    2    0    0  0.21104203589E+03  0.34647661187E+03 -0.27591645865E+03  0.77505537477E+03  0.59999679859E+03 0.  0.
         23    2    4    4    0    0  0.14241393042E+02  0.46156007422E+03 -0.23628942357E+03  0.52674809896E+03  0.91598846449E+02 0.  0.
         23    2    4    4    0    0  0.19680064285E+03 -0.11508346235E+03 -0.39627035077E+02  0.24830727581E+03  0.90063893873E+02 0.  0.
          1    1    3    3  502    0 -0.95720978834E+02 -0.78733957258E+02 -0.39577815117E+03  0.41473110175E+03  0.00000000000E+00 0. -1.
         -1    1    3    3    0  502 -0.11532105706E+03 -0.26774265461E+03 -0.83045270590E+03  0.88013451928E+03  0.00000000000E+00 0.  1.
         11    1    5    5    0    0 -0.28699246199E+02  0.10950035314E+03 -0.32824375559E+02  0.11786184159E+03  0.00000000000E+00 0. -1.
        -11    1    5    5    0    0  0.42940639241E+02  0.35205972107E+03 -0.20346504801E+03  0.40888625737E+03  0.00000000000E+00 0.  1.
          2    1    6    6  503    0  0.56199520569E+02 -0.54348017755E+02 -0.53176646692E+02  0.94550774188E+02  0.00000000000E+00 0. -1.
         -2    1    6    6    0  503  0.14060112228E+03 -0.60735444598E+02  0.13549611615E+02  0.15375650162E+03  0.00000000000E+00 0.  1.
<mgrwt>
<rscale>  0 0.55733474E+03</rscale>
<asrwt>0</asrwt>
<pdfrwt beam="1">  1        2 0.27477449E+00 0.55733474E+03</pdfrwt>
<pdfrwt beam="2">  1       -2 0.43674898E-01 0.55733474E+03</pdfrwt>
<totfact> 0.46011329E+01</totfact>
</mgrwt>
</event>
<event>
12    1  0.1335216E-007  0.4237900E+03  0.7818608E-02  0.1035840E+00
          2   -1    0    0  501    0  0.00000000000E+00  0.00000000000E+00  0.20450753848E+04  0.20450753848E+04  0.00000000000E+00 0.  1.
         -2   -1    0    0    0  501 -0.00000000000E+00 -0.00000000000E+00 -0.21681053870E+03  0.21681053870E+03  0.00000000000E+00 0. -1.
         23    2    1    2    0    0  0.23128303773E+03  0.31755231617E+03  0.13810503286E+03  0.42587879242E+03  0.89266055612E+02 0.  0.
    5000000    2    1    2    0    0 -0.23128303773E+03 -0.31755231617E+03  0.16901598132E+04  0.18360071310E+04  0.59995889364E+03 0.  0.
         23    2    4    4    0    0 -0.23755962397E+03 -0.27416554154E+03  0.16934919840E+04  0.17342437874E+04  0.89917157774E+02 0.  0.
         23    2    4    4    0    0  0.62765862384E+01 -0.43386774628E+02 -0.33321708048E+01  0.10176334361E+03  0.91776178791E+02 0.  0.
          4    1    3    3  502    0  0.22465277494E+03  0.27809220548E+03  0.14404724363E+03  0.38542671473E+03  0.00000000000E+00 0. -1.
         -4    1    3    3    0  502  0.66302627971E+01  0.39460110689E+02 -0.59422107631E+01  0.40452077686E+02  0.00000000000E+00 0.  1.
         11    1    5    5    0    0 -0.20742808176E+03 -0.22903008563E+03  0.12584900738E+04  0.12958697678E+04  0.00000000000E+00 0.  1.
        -11    1    5    5    0    0 -0.30131542214E+02 -0.45135455906E+02  0.43500191020E+03  0.43837401964E+03  0.00000000000E+00 0. -1.
          2    1    6    6  503    0 -0.34428218598E+02 -0.18370594711E+02 -0.27965980147E+02  0.48009134875E+02  0.00000000000E+00 0. -1.
         -2    1    6    6    0  503  0.40704804836E+02 -0.25016179917E+02  0.24633809342E+02  0.53754208738E+02  0.00000000000E+00 0.  1.
<mgrwt>
<rscale>  0 0.42378995E+03</rscale>
<asrwt>0</asrwt>
<pdfrwt beam="1">  1        2 0.31462697E+00 0.42378995E+03</pdfrwt>
<pdfrwt beam="2">  1       -2 0.33355469E-01 0.42378995E+03</pdfrwt>
<totfact> 0.57430140E+01</totfact>
</mgrwt>
</event>
<event>
12    1  0.1335216E-007  0.4521229E+03  0.7818608E-02  0.1027091E+00
          1   -1    0    0  501    0  0.00000000000E+00  0.00000000000E+00  0.74743886850E+03  0.74743886850E+03  0.00000000000E+00 0. -1.
         -1   -1    0    0    0  501 -0.00000000000E+00 -0.00000000000E+00 -0.10115992353E+04  0.10115992353E+04  0.00000000000E+00 0.  1.
         23    2    1    2    0    0  0.30376999341E+03 -0.22116442761E+03  0.55495815540E+03  0.67638488466E+03  0.91258122962E+02 0.  0.
    5000000    2    1    2    0    0 -0.30376999341E+03  0.22116442761E+03 -0.81911852225E+03  0.10826532192E+04  0.59999410548E+03 0.  0.
         23    2    4    4    0    0  0.38622517969E+02 -0.11256934370E+02 -0.59601094482E+03  0.60449640241E+03  0.92565850686E+02 0.  0.
         23    2    4    4    0    0 -0.34239251138E+03  0.23242136198E+03 -0.22310757743E+03  0.47815681679E+03  0.87204523872E+02 0.  0.
          1    1    3    3  502    0  0.27671199479E+02 -0.49209577384E+02  0.12583114903E+03  0.13791575636E+03  0.00000000000E+00 0. -1.
         -1    1    3    3    0  502  0.27609879393E+03 -0.17195485022E+03  0.42912700637E+03  0.53846912829E+03  0.00000000000E+00 0.  1.
         13    1    5    5    0    0  0.66311748472E+02 -0.23867291930E+02 -0.42278163474E+03  0.42861545269E+03  0.00000000000E+00 0. -1.
        -13    1    5    5    0    0 -0.27689230503E+02  0.12610357559E+02 -0.17322931008E+03  0.17588094972E+03  0.00000000000E+00 0.  1.
          3    1    6    6  503    0 -0.10849911148E+03  0.30708951943E+02 -0.43426651037E+02  0.12083447746E+03  0.00000000000E+00 0. -1.
         -3    1    6    6    0  503 -0.23389339990E+03  0.20171241004E+03 -0.17968092639E+03  0.35732233933E+03  0.00000000000E+00 0.  1.
<mgrwt>
<rscale>  0 0.45212291E+03</rscale>
<asrwt>0</asrwt>
<pdfrwt beam="1">  1        1 0.11499060E+00 0.45212291E+03</pdfrwt>
<pdfrwt beam="2">  1       -1 0.15563065E+00 0.45212291E+03</pdfrwt>
<totfact> 0.84555194E+00</totfact>
</mgrwt>
</event>
<event>
12    1  0.1335216E-007  0.1146702E+04  0.7818608E-02  0.9160832E-01
          1   -1    0    0  501    0  0.00000000000E+00  0.00000000000E+00  0.15064730396E+04  0.15064730396E+04  0.00000000000E+00 0. -1.
         -1   -1    0    0    0  501 -0.00000000000E+00 -0.00000000000E+00 -0.91981957149E+03  0.91981957149E+03  0.00000000000E+00 0.  1.
         23    2    1    2    0    0  0.85048920810E+03  0.66605015058E+03  0.69652090789E+02  0.10867997893E+04  0.96579874299E+02 0.  0.
    5000000    2    1    2    0    0 -0.85048920810E+03 -0.66605015058E+03  0.51700137732E+03  0.13394928218E+04  0.59999658271E+03 0.  0.
         23    2    4    4    0    0 -0.20408299166E+02  0.62558815466E+02  0.11565392163E+03  0.16121775041E+03  0.91023235445E+02 0.  0.
         23    2    4    4    0    0 -0.83008090893E+03 -0.72860896604E+03  0.40134745569E+03  0.11782750714E+04  0.85714776098E+02 0.  0.
          1    1    3    3  502    0  0.54128433725E+03  0.37417426083E+03  0.68637567750E+02  0.66159370231E+03  0.00000000000E+00 0. -1.
         -1    1    3    3    0  502  0.30920487084E+03  0.29187588974E+03  0.10145230390E+01  0.42520608700E+03  0.00000000000E+00 0.  1.
         11    1    5    5    0    0  0.30791491724E+02  0.37874731166E+02  0.26651438220E+02  0.55613940542E+02  0.00000000000E+00 0. -1.
        -11    1    5    5    0    0 -0.51199790889E+02  0.24684084300E+02  0.89002483414E+02  0.10560380987E+03  0.00000000000E+00 0.  1.
          4    1    6    6  503    0 -0.29743269102E+03 -0.25585535657E+03  0.18634907942E+03  0.43434335332E+03  0.00000000000E+00 0. -1.
         -4    1    6    6    0  503 -0.53264821791E+03 -0.47275360947E+03  0.21499837627E+03  0.74393171804E+03  0.00000000000E+00 0.  1.
<mgrwt>
<rscale>  0 0.11467018E+04</rscale>
<asrwt>0</asrwt>
<pdfrwt beam="1">  1        1 0.23176508E+00 0.11467018E+04</pdfrwt>
<pdfrwt beam="2">  1       -1 0.14151070E+00 0.11467018E+04</pdfrwt>
<totfact> 0.26051462E+00</totfact>
</mgrwt>
</event>
<event>
12    1  0.1335216E-007  0.4548747E+03  0.7818608E-02  0.1026278E+00
          1   -1    0    0  501    0  0.00000000000E+00  0.00000000000E+00  0.71381639429E+03  0.71381639429E+03  0.00000000000E+00 0. -1.
         -1   -1    0    0    0  501 -0.00000000000E+00 -0.00000000000E+00 -0.64785343909E+03  0.64785343909E+03  0.00000000000E+00 0.  1.
         23    2    1    2    0    0  0.43513376003E+03 -0.78853388687E+02  0.34263789103E+03  0.56661223636E+03  0.89941403164E+02 0.  0.
    5000000    2    1    2    0    0 -0.43513376003E+03  0.78853388687E+02 -0.27667493583E+03  0.79505759701E+03  0.60000693032E+03 0.  0.
         23    2    4    4    0    0 -0.34291380863E+03  0.84707003549E+02 -0.45098761890E+03  0.57853251957E+03  0.80900477120E+02 0.  0.
         23    2    4    4    0    0 -0.92219951398E+02 -0.58536148620E+01  0.17431268307E+03  0.21652507744E+03  0.89215544833E+02 0.  0.
          3    1    3    3  502    0  0.13549095632E+03 -0.65993090295E+02  0.12907733606E+03  0.19842844024E+03  0.00000000000E+00 0. -1.
         -3    1    3    3    0  502  0.29964280371E+03 -0.12860298392E+02  0.21356055496E+03  0.36818379612E+03  0.00000000000E+00 0.  1.
         13    1    5    5    0    0 -0.18926524686E+03  0.87622762523E+02 -0.25207666750E+03  0.32717232230E+03  0.00000000000E+00 0. -1.
        -13    1    5    5    0    0 -0.15364856177E+03 -0.29157589736E+01 -0.19891095140E+03  0.25136019727E+03  0.00000000000E+00 0.  1.
          1    1    6    6  503    0 -0.39042134176E+02  0.11906034982E+02  0.14993133751E+03  0.15538805578E+03  0.00000000000E+00 0. -1.
         -1    1    6    6    0  503 -0.53177817223E+02 -0.17759649844E+02  0.24381345560E+02  0.61137021668E+02  0.00000000000E+00 0.  1.
<mgrwt>
<rscale>  0 0.45487468E+03</rscale>
<asrwt>0</asrwt>
<pdfrwt beam="1">  1        1 0.10981791E+00 0.45487468E+03</pdfrwt>
<pdfrwt beam="2">  1       -1 0.99669760E-01 0.45487468E+03</pdfrwt>
<totfact> 0.27115211E+01</totfact>
</mgrwt>
</event>
<event>
12    1  0.1335216E-007  0.7977858E+03  0.7818608E-02  0.9563228E-01
         -2   -1    0    0    0  501 -0.00000000000E+00  0.00000000000E+00  0.10915448036E+04  0.10915448036E+04  0.00000000000E+00 0.  1.
          2   -1    0    0  501    0  0.00000000000E+00 -0.00000000000E+00 -0.82676965166E+03  0.82676965166E+03  0.00000000000E+00 0. -1.
         23    2    1    2    0    0  0.19991237143E+02 -0.75782728799E+03 -0.27425764803E+03  0.81137712546E+03  0.91726409730E+02 0.  0.
    5000000    2    1    2    0    0 -0.19991237143E+02  0.75782728799E+03  0.53903279999E+03  0.11069373298E+04  0.60004336901E+03 0.  0.
         23    2    4    4    0    0  0.15965582164E+03  0.30826473990E+03 -0.21698796900E+02  0.36020905958E+03  0.93608747282E+02 0.  0.
         23    2    4    4    0    0 -0.17964705878E+03  0.44956254809E+03  0.56073159689E+03  0.74672827024E+03  0.93827690207E+02 0.  0.
          4    1    3    3  502    0  0.46138813567E+02 -0.67716457942E+03 -0.23984677151E+03  0.71986605111E+03  0.00000000000E+00 0. -1.
         -4    1    3    3    0  502 -0.26147576424E+02 -0.80662708568E+02 -0.34410876524E+02  0.91511074355E+02  0.00000000000E+00 0.  1.
         11    1    5    5    0    0  0.56811073299E+02  0.12305420970E+03  0.36779660507E+02  0.14043710337E+03  0.00000000000E+00 0. -1.
        -11    1    5    5    0    0  0.10284474834E+03  0.18521053020E+03 -0.58478457408E+02  0.21977195622E+03  0.00000000000E+00 0.  1.
          3    1    6    6  503    0 -0.10237575011E+03  0.28574060590E+03  0.41553400899E+03  0.51458429892E+03  0.00000000000E+00 0. -1.
         -3    1    6    6    0  503 -0.77271308675E+02  0.16382194218E+03  0.14519758790E+03  0.23214397131E+03  0.00000000000E+00 0.  1.
<mgrwt>
<rscale>  0 0.79778583E+03</rscale>
<asrwt>0</asrwt>
<pdfrwt beam="1">  1        2 0.12719533E+00 0.79778583E+03</pdfrwt>
<pdfrwt beam="2">  1       -2 0.16792997E+00 0.79778583E+03</pdfrwt>
<totfact> 0.73570933E+00</totfact>
</mgrwt>
</event>
<event>
12    1  0.1335216E-007  0.4556695E+03  0.7818608E-02  0.1026045E+00
         -2   -1    0    0    0  501 -0.00000000000E+00  0.00000000000E+00  0.42388738074E+03  0.42388738074E+03  0.00000000000E+00 0.  1.
          2   -1    0    0  501    0  0.00000000000E+00 -0.00000000000E+00 -0.62159990867E+03  0.62159990867E+03  0.00000000000E+00 0. -1.
         23    2    1    2    0    0  0.24488227208E+03 -0.96535542955E+02  0.13679025379E+03  0.30991071839E+03  0.89703074707E+02 0.  0.
    5000000    2    1    2    0    0 -0.24488227208E+03  0.96535542955E+02 -0.33450278172E+03  0.73557657101E+03  0.59991194571E+03 0.  0.
         23    2    4    4    0    0  0.14012876316E+03  0.18161313306E+03 -0.17546192039E+03  0.30121549877E+03  0.85583239168E+02 0.  0.
         23    2    4    4    0    0 -0.38501103523E+03 -0.85077590108E+02 -0.15904086132E+03  0.43436107224E+03  0.88903610250E+02 0.  0.
          3    1    3    3  502    0  0.18691083893E+03 -0.61265352261E+02  0.56220388600E+02  0.20457232753E+03  0.00000000000E+00 0. -1.
         -3    1    3    3    0  502  0.57971433147E+02 -0.35270190695E+02  0.80569865189E+02  0.10533839086E+03  0.00000000000E+00 0.  1.
         11    1    5    5    0    0  0.71113045625E+02  0.15558869944E+03 -0.12349833132E+03  0.21098992035E+03  0.00000000000E+00 0. -1.
        -11    1    5    5    0    0  0.69015717532E+02  0.26024433627E+02 -0.51963589073E+02  0.90225578421E+02  0.00000000000E+00 0.  1.
          2    1    6    6  503    0 -0.90654798241E+02 -0.55079695778E+02 -0.62548382111E+02  0.12314367802E+03  0.00000000000E+00 0. -1.
         -2    1    6    6    0  503 -0.29435623699E+03 -0.29997894329E+02 -0.96492479213E+02  0.31121739422E+03  0.00000000000E+00 0.  1.
<mgrwt>
<rscale>  0 0.45566951E+03</rscale>
<asrwt>0</asrwt>
<pdfrwt beam="1">  1        2 0.95630755E-01 0.45566951E+03</pdfrwt>
<pdfrwt beam="2">  1       -2 0.65213443E-01 0.45566951E+03</pdfrwt>
<totfact> 0.10639514E+02</totfact>
</mgrwt>
</event>
<event>
12    1  0.1335216E-007  0.6449702E+03  0.7818608E-02  0.9816263E-01
         -1   -1    0    0    0  501 -0.00000000000E+00  0.00000000000E+00  0.53660197126E+03  0.53660197126E+03  0.00000000000E+00 0.  1.
          1   -1    0    0  501    0  0.00000000000E+00 -0.00000000000E+00 -0.38837904983E+04  0.38837904983E+04  0.00000000000E+00 0. -1.
         23    2    1    2    0    0  0.30920833237E+03 -0.43729714460E+03  0.34347016085E+03  0.64312925100E+03  0.93834410597E+02 0.  0.
    5000000    2    1    2    0    0 -0.30920833237E+03  0.43729714460E+03 -0.36906586879E+04  0.37772632185E+04  0.59993106798E+03 0.  0.
         23    2    4    4    0    0 -0.39921414049E+03  0.47425255598E+03 -0.33985290159E+04  0.34558206211E+04  0.91702106813E+02 0.  0.
         23    2    4    4    0    0  0.90005808116E+02 -0.36955411389E+02 -0.29212967199E+03  0.32144259748E+03  0.92297618006E+02 0.  0.
          4    1    3    3  502    0  0.24884120152E+03 -0.27682094293E+03  0.23106156257E+03  0.43811097192E+03  0.00000000000E+00 0. -1.
         -4    1    3    3    0  502  0.60367130855E+02 -0.16047620167E+03  0.11240859828E+03  0.20501827908E+03  0.00000000000E+00 0.  1.
         11    1    5    5    0    0 -0.18302268880E+03  0.14986198585E+03 -0.12342272266E+04  0.12566911977E+04  0.00000000000E+00 0.  1.
        -11    1    5    5    0    0 -0.21619145169E+03  0.32439057014E+03 -0.21643017892E+04  0.21991294234E+04  0.00000000000E+00 0. -1.
          4    1    6    6  503    0  0.91893129556E+02 -0.95266640991E+01 -0.14618683680E+03  0.17293263383E+03  0.00000000000E+00 0. -1.
         -4    1    6    6    0  503 -0.18873214395E+01 -0.27428747289E+02 -0.14594283519E+03  0.14850996365E+03  0.00000000000E+00 0.  1.
<mgrwt>
<rscale>  0 0.64497019E+03</rscale>
<asrwt>0</asrwt>
<pdfrwt beam="1">  1        1 0.59750624E+00 0.64497019E+03</pdfrwt>
<pdfrwt beam="2">  1       -1 0.82554148E-01 0.64497019E+03</pdfrwt>
<totfact> 0.20264994E-01</totfact>
</mgrwt>
</event>
<event>
12    1  0.1335216E-007  0.1262082E+04  0.7818608E-02  0.9060187E-01
         -1   -1    0    0    0  501 -0.00000000000E+00  0.00000000000E+00  0.13434879480E+04  0.13434879480E+04  0.00000000000E+00 0.  1.
          1   -1    0    0  501    0  0.00000000000E+00 -0.00000000000E+00 -0.16626191439E+04  0.16626191439E+04  0.00000000000E+00 0. -1.
         23    2    1    2    0    0  0.11881962910E+04 -0.98779194840E+02 -0.95247740334E+03  0.15287090892E+04  0.90390930797E+02 0.  0.
    5000000    2    1    2    0    0 -0.11881962910E+04  0.98779194840E+02  0.63334620743E+03  0.14773980027E+04  0.60000807057E+03 0.  0.
         23    2    4    4    0    0 -0.15577502607E+02  0.12521113772E+03  0.60599281470E+02  0.16935172972E+03  0.95327057272E+02 0.  0.
         23    2    4    4    0    0 -0.11726187884E+04 -0.26431942879E+02  0.57274692596E+03  0.13080462730E+04  0.84926678214E+02 0.  0.
          3    1    3    3  502    0  0.26197023751E+03 -0.59215734113E+02 -0.22071691696E+03  0.34763611139E+03  0.00000000000E+00 0. -1.
         -3    1    3    3    0  502  0.92622605345E+03 -0.39563460727E+02 -0.73176048638E+03  0.11810729778E+04  0.00000000000E+00 0.  1.
         11    1    5    5    0    0 -0.75531725224E+01 -0.14040465535E+02  0.16783899542E+02  0.23149176474E+02  0.00000000000E+00 0. -1.
        -11    1    5    5    0    0 -0.80243300844E+01  0.13925160325E+03  0.43815381928E+02  0.14620255325E+03  0.00000000000E+00 0.  1.
          1    1    6    6  503    0 -0.23477820163E+02  0.22862638587E+01 -0.37896468763E+00  0.23591919301E+02  0.00000000000E+00 0. -1.
         -1    1    6    6    0  503 -0.11491409682E+04 -0.28718206737E+02  0.57312589065E+03  0.12844543537E+04  0.00000000000E+00 0.  1.
<mgrwt>
<rscale>  0 0.12620822E+04</rscale>
<asrwt>0</asrwt>
<pdfrwt beam="1">  1        1 0.25578756E+00 0.12620822E+04</pdfrwt>
<pdfrwt beam="2">  1       -1 0.20669045E+00 0.12620822E+04</pdfrwt>
<totfact> 0.66549277E-01</totfact>
</mgrwt>
</event>
<event>
12    1  0.1335216E-007  0.8692288E+03  0.7818608E-02  0.9464886E-01
         -2   -1    0    0    0  501 -0.00000000000E+00  0.00000000000E+00  0.77548243565E+03  0.77548243565E+03  0.00000000000E+00 0.  1.
          2   -1    0    0  501    0  0.00000000000E+00 -0.00000000000E+00 -0.10488664014E+04  0.10488664014E+04  0.00000000000E+00 0. -1.
         23    2    1    2    0    0 -0.48303424820E+03 -0.62094951473E+03 -0.26345466069E+03  0.83487542295E+03  0.93317891233E+02 0.  0.
    5000000    2    1    2    0    0  0.48303424820E+03  0.62094951473E+03 -0.99293050877E+01  0.98947341412E+03  0.60004888248E+03 0.  0.
         23    2    4    4    0    0  0.57103171096E+03  0.38803370660E+03  0.95409749999E+02  0.70317167828E+03  0.93273878172E+02 0.  0.
         23    2    4    4    0    0 -0.87997462759E+02  0.23291580813E+03 -0.10533905509E+03  0.28630173585E+03  0.94228659617E+02 0.  0.
          3    1    3    3  502    0 -0.17688095908E+03 -0.23950086707E+03 -0.53055415973E+02  0.30242753872E+03  0.00000000000E+00 0. -1.
         -3    1    3    3    0  502 -0.30615328912E+03 -0.38144864767E+03 -0.21039924472E+03  0.53244788423E+03  0.00000000000E+00 0.  1.
         11    1    5    5    0    0  0.10601370229E+03  0.11801199684E+03  0.13076811896E+02  0.15917518488E+03  0.00000000000E+00 0. -1.
        -11    1    5    5    0    0  0.46501800867E+03  0.27002170976E+03  0.82332938103E+02  0.54399649339E+03  0.00000000000E+00 0.  1.
          1    1    6    6  503    0 -0.47607515057E+02  0.19173448532E+03 -0.44582369847E+02  0.20252450729E+03  0.00000000000E+00 0. -1.
         -1    1    6    6    0  503 -0.40389947702E+02  0.41181322809E+02 -0.60756685239E+02  0.83777228559E+02  0.00000000000E+00 0.  1.
<mgrwt>
<rscale>  0 0.86922884E+03</rscale>
<asrwt>0</asrwt>
<pdfrwt beam="1">  1        2 0.16136406E+00 0.86922884E+03</pdfrwt>
<pdfrwt beam="2">  1       -2 0.11930499E+00 0.86922884E+03</pdfrwt>
<totfact> 0.12690036E+01</totfact>
</mgrwt>
</event>
<event>
12    1  0.1335216E-007  0.4078544E+03  0.7818608E-02  0.1041093E+00
         -2   -1    0    0    0  501 -0.00000000000E+00  0.00000000000E+00  0.23189488714E+03  0.23189488714E+03  0.00000000000E+00 0.  1.
          2   -1    0    0  501    0  0.00000000000E+00 -0.00000000000E+00 -0.10143733649E+04  0.10143733649E+04  0.00000000000E+00 0. -1.
         23    2    1    2    0    0 -0.24632024986E+03 -0.15126916206E+03 -0.22545669208E+03  0.37789409221E+03  0.91745299822E+02 0.  0.
    5000000    2    1    2    0    0  0.24632024986E+03  0.15126916206E+03 -0.55702178566E+03  0.86837415982E+03  0.60020362116E+03 0.  0.
         23    2    4    4    0    0  0.28136289349E+03 -0.74222133363E+02 -0.54269441877E+03  0.62255596180E+03  0.91567955596E+02 0.  0.
         23    2    4    4    0    0 -0.35042643623E+02  0.22549129543E+03 -0.14327366895E+02  0.24581819802E+03  0.90260743693E+02 0.  0.
          3    1    3    3  502    0 -0.56935724343E+02 -0.10849026474E+02 -0.10613240721E+02  0.58923840341E+02  0.00000000000E+00 0. -1.
         -3    1    3    3    0  502 -0.18938452552E+03 -0.14042013559E+03 -0.21484345136E+03  0.31897025187E+03  0.00000000000E+00 0.  1.
         13    1    5    5    0    0  0.87920800090E+02 -0.11272068015E+02 -0.25684764566E+03  0.27171278897E+03  0.00000000000E+00 0. -1.
        -13    1    5    5    0    0  0.19344209340E+03 -0.62950065348E+02 -0.28584677311E+03  0.35084317283E+03  0.00000000000E+00 0.  1.
          3    1    6    6  503    0 -0.31267400466E+02  0.10980074809E+03 -0.50084777561E+02  0.12466891977E+03  0.00000000000E+00 0. -1.
         -3    1    6    6    0  503 -0.37752431574E+01  0.11569054734E+03  0.35757410666E+02  0.12114927826E+03  0.00000000000E+00 0.  1.
<mgrwt>
<rscale>  0 0.40785445E+03</rscale>
<asrwt>0</asrwt>
<pdfrwt beam="1">  1        2 0.15605744E+00 0.40785445E+03</pdfrwt>
<pdfrwt beam="2">  1       -2 0.35676137E-01 0.40785445E+03</pdfrwt>
<totfact> 0.18916688E+02</totfact>
</mgrwt>
</event>
<event>
12    1  0.1335216E-007  0.6841920E+03  0.7818608E-02  0.9744654E-01
          2   -1    0    0  501    0  0.00000000000E+00  0.00000000000E+00  0.25928930928E+03  0.25928930928E+03  0.00000000000E+00 0. -1.
         -2   -1    0    0    0  501 -0.00000000000E+00 -0.00000000000E+00 -0.25574765592E+04  0.25574765592E+04  0.00000000000E+00 0.  1.
         23    2    1    2    0    0 -0.54776217476E+03 -0.31327198013E+03 -0.15226614040E+04  0.16506978854E+04  0.90127820957E+02 0.  0.
    5000000    2    1    2    0    0  0.54776217476E+03  0.31327198013E+03 -0.77552584594E+03  0.11660679831E+04  0.60007621997E+03 0.  0.
         23    2    4    4    0    0 -0.65826288448E+01 -0.85712841934E+01 -0.41470940817E+03  0.42498491166E+03  0.92257704251E+02 0.  0.
         23    2    4    4    0    0  0.55434480360E+03  0.32184326432E+03 -0.36081643776E+03  0.74108307140E+03  0.90190736148E+02 0.  0.
          2    1    3    3  502    0 -0.26844595047E+03 -0.10300143935E+03 -0.71142020474E+03  0.76732733076E+03  0.00000000000E+00 0. -1.
         -2    1    3    3    0  502 -0.27931622429E+03 -0.21027054078E+03 -0.81124119924E+03  0.88337055465E+03  0.00000000000E+00 0.  1.
         13    1    5    5    0    0 -0.39627001523E+02 -0.29262404294E+02 -0.16322544003E+03  0.17049672087E+03  0.00000000000E+00 0. -1.
        -13    1    5    5    0    0  0.33044372678E+02  0.20691120101E+02 -0.25148396814E+03  0.25448819079E+03  0.00000000000E+00 0.  1.
          3    1    6    6  503    0  0.29106586390E+03  0.19809002366E+03 -0.23990004181E+03  0.42604110678E+03  0.00000000000E+00 0. -1.
         -3    1    6    6    0  503  0.26327893970E+03  0.12375324066E+03 -0.12091639595E+03  0.31504196462E+03  0.00000000000E+00 0.  1.
<mgrwt>
<rscale>  0 0.68419202E+03</rscale>
<asrwt>0</asrwt>
<pdfrwt beam="1">  1        2 0.39890662E-01 0.68419202E+03</pdfrwt>
<pdfrwt beam="2">  1       -2 0.39345794E+00 0.68419202E+03</pdfrwt>
<totfact> 0.11349578E+00</totfact>
</mgrwt>
</event>
<event>
12    1  0.1335216E-007  0.3472627E+03  0.7818608E-02  0.1063744E+00
         -2   -1    0    0    0  501 -0.00000000000E+00  0.00000000000E+00  0.67136675293E+03  0.67136675293E+03  0.00000000000E+00 0. -1.
          2   -1    0    0  501    0  0.00000000000E+00 -0.00000000000E+00 -0.30182799435E+03  0.30182799435E+03  0.00000000000E+00 0.  1.
         23    2    1    2    0    0 -0.21843127256E+03  0.55619247215E+02  0.22194973355E+02  0.24417535952E+03  0.91231945421E+02 0.  0.
    5000000    2    1    2    0    0  0.21843127256E+03 -0.55619247215E+02  0.34734378523E+03  0.72901938776E+03  0.60001320077E+03 0.  0.
         23    2    4    4    0    0  0.15894133451E+03  0.15349564658E+03 -0.70914435438E+02  0.24907530978E+03  0.90478679568E+02 0.  0.
         23    2    4    4    0    0  0.59489938048E+02 -0.20911489379E+03  0.41825822066E+03  0.47994407798E+03  0.90212456435E+02 0.  0.
          4    1    3    3  502    0 -0.14276004088E+03  0.79995979197E+02  0.13523220750E+02  0.16420311647E+03  0.00000000000E+00 0. -1.
         -4    1    3    3    0  502 -0.75671231680E+02 -0.24376731982E+02  0.86717526052E+01  0.79972243055E+02  0.00000000000E+00 0.  1.
         13    1    5    5    0    0  0.52199775758E+02  0.10377517774E+03 -0.10254575461E+02  0.11661586694E+03  0.00000000000E+00 0. -1.
        -13    1    5    5    0    0  0.10674155875E+03  0.49720468838E+02 -0.60659859978E+02  0.13245944284E+03  0.00000000000E+00 0.  1.
          2    1    6    6  503    0  0.54396367270E+02 -0.19545115706E+03  0.41879851245E+03  0.46535181701E+03  0.00000000000E+00 0. -1.
         -2    1    6    6    0  503  0.50935707773E+01 -0.13663736737E+02 -0.54029178319E+00  0.14592260965E+02  0.00000000000E+00 0.  1.
<mgrwt>
<rscale>  0 0.34726272E+03</rscale>
<asrwt>0</asrwt>
<pdfrwt beam="1">  1        2 0.46435076E-01 0.34726272E+03</pdfrwt>
<pdfrwt beam="2">  1       -2 0.10328719E+00 0.34726272E+03</pdfrwt>
<totfact> 0.86450990E+01</totfact>
</mgrwt>
</event>
<event>
12    1  0.1335216E-007  0.5904479E+03  0.7818608E-02  0.9925424E-01
         -1   -1    0    0    0  501 -0.00000000000E+00  0.00000000000E+00  0.14319997793E+04  0.14319997793E+04  0.00000000000E+00 0.  1.
          1   -1    0    0  501    0  0.00000000000E+00 -0.00000000000E+00 -0.32982398716E+03  0.32982398716E+03  0.00000000000E+00 0. -1.
         23    2    1    2    0    0 -0.51553433564E+03 -0.38684805966E+02  0.20016168305E+03  0.56135842462E+03  0.88240671434E+02 0.  0.
    5000000    2    1    2    0    0  0.51553433564E+03  0.38684805966E+02  0.90201410911E+03  0.12004653419E+04  0.60017948860E+03 0.  0.
         23    2    4    4    0    0  0.54060455927E+03  0.99280829947E+02  0.92940181201E+03  0.10835517046E+04  0.90479808122E+02 0.  0.
         23    2    4    4    0    0 -0.25070223631E+02 -0.60596023981E+02 -0.27387702899E+02  0.11691363726E+03  0.92834896840E+02 0.  0.
          1    1    3    3  502    0 -0.57495967528E+02 -0.70719995306E+01 -0.56642678234E+01  0.58205527138E+02  0.00000000000E+00 0. -1.
         -1    1    3    3    0  502 -0.45803836811E+03 -0.31612806436E+02  0.20582595087E+03  0.50315289748E+03  0.00000000000E+00 0.  1.
         11    1    5    5    0    0  0.43789988783E+03  0.10388563402E+03  0.70040392827E+03  0.83253480375E+03  0.00000000000E+00 0. -1.
        -11    1    5    5    0    0  0.10270467145E+03 -0.46048040754E+01  0.22899788374E+03  0.25101690086E+03  0.00000000000E+00 0.  1.
          2    1    6    6  503    0 -0.54606126300E+02 -0.60421025677E+02 -0.85651133072E+01  0.81889502009E+02  0.00000000000E+00 0.  1.
         -2    1    6    6    0  503  0.29535902669E+02 -0.17499830360E+00 -0.18822589592E+02  0.35024135247E+02  0.00000000000E+00 0. -1.
<mgrwt>
<rscale>  0 0.59044790E+03</rscale>
<asrwt>0</asrwt>
<pdfrwt beam="1">  1        1 0.50742153E-01 0.59044790E+03</pdfrwt>
<pdfrwt beam="2">  1       -1 0.22030766E+00 0.59044790E+03</pdfrwt>
<totfact> 0.89629157E+00</totfact>
</mgrwt>
</event>
<event>
12    1  0.1335216E-007  0.5291576E+03  0.7818608E-02  0.1006437E+00
         -2   -1    0    0    0  501 -0.00000000000E+00  0.00000000000E+00  0.67247291240E+03  0.67247291240E+03  0.00000000000E+00 0.  1.
          2   -1    0    0  501    0  0.00000000000E+00 -0.00000000000E+00 -0.64413738347E+03  0.64413738347E+03  0.00000000000E+00 0. -1.
         23    2    1    2    0    0 -0.19868851738E+03 -0.47578116071E+03 -0.30193010566E+02  0.52331006880E+03  0.84243518420E+02 0.  0.
    5000000    2    1    2    0    0  0.19868851738E+03  0.47578116071E+03  0.58528539491E+02  0.79330022707E+03  0.60004568202E+03 0.  0.
         23    2    4    4    0    0  0.52905515340E+02  0.26075212065E+03 -0.25318767692E+03  0.37843281047E+03  0.91196109115E+02 0.  0.
         23    2    4    4    0    0  0.14578300204E+03  0.21502904007E+03  0.31171621641E+03  0.41486741660E+03  0.86358566612E+02 0.  0.
          1    1    3    3  502    0 -0.17652173072E+03 -0.32826137188E+03 -0.32385993057E+02  0.37411803249E+03  0.00000000000E+00 0. -1.
         -1    1    3    3    0  502 -0.22166786659E+02 -0.14751978883E+03  0.21929824908E+01  0.14919203632E+03  0.00000000000E+00 0.  1.
         11    1    5    5    0    0  0.25782183414E+02  0.65061886504E+02 -0.12398888949E+03  0.14237631395E+03  0.00000000000E+00 0. -1.
        -11    1    5    5    0    0  0.27123331925E+02  0.19569023414E+03 -0.12919878743E+03  0.23605649651E+03  0.00000000000E+00 0.  1.
          2    1    6    6  503    0  0.38204351669E+02  0.13653102185E+02  0.79278732536E+02  0.89056707317E+02  0.00000000000E+00 0. -1.
         -2    1    6    6    0  503  0.10757865037E+03  0.20137593788E+03  0.23243748388E+03  0.32581070929E+03  0.00000000000E+00 0.  1.
<mgrwt>
<rscale>  0 0.52915762E+03</rscale>
<asrwt>0</asrwt>
<pdfrwt beam="1">  1        2 0.99098059E-01 0.52915762E+03</pdfrwt>
<pdfrwt beam="2">  1       -2 0.10345737E+00 0.52915762E+03</pdfrwt>
<totfact> 0.35816665E+01</totfact>
</mgrwt>
</event>
<event>
12    1  0.1335216E-007  0.7771740E+03  0.7818608E-02  0.9593657E-01
         -2   -1    0    0    0  501 -0.00000000000E+00  0.00000000000E+00  0.55683975779E+03  0.55683975779E+03  0.00000000000E+00 0.  1.
          2   -1    0    0  501    0  0.00000000000E+00 -0.00000000000E+00 -0.11901176477E+04  0.11901176477E+04  0.00000000000E+00 0. -1.
         23    2    1    2    0    0  0.15175222900E+03  0.65274920618E+03 -0.49512106257E+03  0.83699913796E+03  0.79450771984E+02 0.  0.
    5000000    2    1    2    0    0 -0.15175222900E+03 -0.65274920618E+03 -0.13815682733E+03  0.90995826753E+03  0.59985537802E+03 0.  0.
         23    2    4    4    0    0 -0.21602246711E+03  0.28588095398E+01 -0.92491688549E+01  0.23252211266E+03  0.85481615940E+02 0.  0.
         23    2    4    4    0    0  0.64270238110E+02 -0.65560801572E+03 -0.12890765847E+03  0.67743615487E+03  0.91378475203E+02 0.  0.
          3    1    3    3  502    0  0.13779785234E+03  0.57332829427E+03 -0.46490508698E+03  0.75088635693E+03  0.00000000000E+00 0. -1.
         -3    1    3    3    0  502  0.13954376658E+02  0.79420911905E+02 -0.30215975597E+02  0.86112781032E+02  0.00000000000E+00 0.  1.
         13    1    5    5    0    0 -0.11376193752E+03 -0.16458761517E+02  0.33931876275E+02  0.11985007921E+03  0.00000000000E+00 0.  1.
        -13    1    5    5    0    0 -0.10226052959E+03  0.19317571057E+02 -0.43181045130E+02  0.11267203345E+03  0.00000000000E+00 0. -1.
          3    1    6    6  503    0  0.78102180471E+02 -0.32917526624E+03 -0.68118366429E+02  0.34510348932E+03  0.00000000000E+00 0. -1.
         -3    1    6    6    0  503 -0.13831942361E+02 -0.32643274948E+03 -0.60789292045E+02  0.33233266555E+03  0.00000000000E+00 0.  1.
<mgrwt>
<rscale>  0 0.77717403E+03</rscale>
<asrwt>0</asrwt>
<pdfrwt beam="1">  1        2 0.18309502E+00 0.77717403E+03</pdfrwt>
<pdfrwt beam="2">  1       -2 0.85667656E-01 0.77717403E+03</pdfrwt>
<totfact> 0.23087025E+01</totfact>
</mgrwt>
</event>
<event>
12    1  0.1335216E-007  0.5865781E+03  0.7818608E-02  0.9933650E-01
          1   -1    0    0  501    0  0.00000000000E+00  0.00000000000E+00  0.17482696234E+04  0.17482696234E+04  0.00000000000E+00 0. -1.
         -1   -1    0    0    0  501 -0.00000000000E+00 -0.00000000000E+00 -0.21887793314E+03  0.21887793314E+03  0.00000000000E+00 0.  1.
         23    2    1    2    0    0  0.61068533724E+02 -0.44150286629E+03  0.35949113738E+03  0.57886314051E+03  0.84820462338E+02 0.  0.
    5000000    2    1    2    0    0 -0.61068533724E+02  0.44150286629E+03  0.11699005529E+04  0.13882844160E+04  0.60001014108E+03 0.  0.
         23    2    4    4    0    0  0.20228550329E+03  0.39597884524E+03  0.83249136090E+03  0.94821358002E+03  0.91369889163E+02 0.  0.
         23    2    4    4    0    0 -0.26335403701E+03  0.45524021054E+02  0.33740919198E+03  0.44007083601E+03  0.91594719104E+02 0.  0.
          4    1    3    3  502    0  0.53698835284E+02 -0.14241742600E+03  0.14950055007E+03  0.21334643801E+03  0.00000000000E+00 0. -1.
         -4    1    3    3    0  502  0.73696984402E+01 -0.29908544029E+03  0.20999058731E+03  0.36551670250E+03  0.00000000000E+00 0.  1.
         13    1    5    5    0    0  0.46411080529E+02  0.18545367083E+03  0.32326796561E+03  0.37556521406E+03  0.00000000000E+00 0.  1.
        -13    1    5    5    0    0  0.15587442276E+03  0.21052517441E+03  0.50922339529E+03  0.57264836596E+03  0.00000000000E+00 0. -1.
          2    1    6    6  503    0 -0.16037370964E+03  0.41201091838E+02  0.27060205554E+03  0.31724238237E+03  0.00000000000E+00 0. -1.
         -2    1    6    6    0  503 -0.10298032737E+03  0.43229292159E+01  0.66807136445E+02  0.12282845364E+03  0.00000000000E+00 0.  1.
<mgrwt>
<rscale>  0 0.58657809E+03</rscale>
<asrwt>0</asrwt>
<pdfrwt beam="1">  1        1 0.26896455E+00 0.58657809E+03</pdfrwt>
<pdfrwt beam="2">  1       -1 0.33673529E-01 0.58657809E+03</pdfrwt>
<totfact> 0.38792292E+01</totfact>
</mgrwt>
</event>
<event>
12    1  0.1335216E-007  0.7724663E+03  0.7818608E-02  0.9600749E-01
         -2   -1    0    0    0  501 -0.00000000000E+00  0.00000000000E+00  0.14319476428E+04  0.14319476428E+04  0.00000000000E+00 0.  1.
          2   -1    0    0  501    0  0.00000000000E+00 -0.00000000000E+00 -0.80327653055E+03  0.80327653055E+03  0.00000000000E+00 0. -1.
         23    2    1    2    0    0  0.41466011484E+03  0.56954042739E+03  0.10094462769E+04  0.12342953647E+04  0.90465198994E+02 0.  0.
    5000000    2    1    2    0    0 -0.41466011484E+03 -0.56954042739E+03 -0.38077516464E+03  0.10009288086E+04  0.60045769594E+03 0.  0.
         23    2    4    4    0    0  0.70377534997E+01  0.35754877539E+02 -0.21806913571E+03  0.23992889858E+03  0.93186840195E+02 0.  0.
         23    2    4    4    0    0 -0.42169786834E+03 -0.60529530492E+03 -0.16270602893E+03  0.76099991002E+03  0.91848314476E+02 0.  0.
          4    1    3    3  502    0  0.22879582651E+03  0.30897328249E+03  0.47202155968E+03  0.60878269713E+03  0.00000000000E+00 0. -1.
         -4    1    3    3    0  502  0.18586428834E+03  0.26056714489E+03  0.53742471720E+03  0.62551266760E+03  0.00000000000E+00 0.  1.
         13    1    5    5    0    0  0.48764471666E+02  0.14989362977E+02 -0.87446416624E+02  0.10123996483E+03  0.00000000000E+00 0.  1.
        -13    1    5    5    0    0 -0.41726718166E+02  0.20765514562E+02 -0.13062271908E+03  0.13868893375E+03  0.00000000000E+00 0. -1.
          3    1    6    6  503    0 -0.98977297335E+02 -0.21245827459E+03 -0.36930610874E+02  0.23727387941E+03  0.00000000000E+00 0. -1.
         -3    1    6    6    0  503 -0.32272057101E+03 -0.39283703033E+03 -0.12577541806E+03  0.52372603061E+03  0.00000000000E+00 0.  1.
<mgrwt>
<rscale>  0 0.77246630E+03</rscale>
<asrwt>0</asrwt>
<pdfrwt beam="1">  1        2 0.12358100E+00 0.77246630E+03</pdfrwt>
<pdfrwt beam="2">  1       -2 0.22029964E+00 0.77246630E+03</pdfrwt>
<totfact> 0.34461878E+00</totfact>
</mgrwt>
</event>
<event>
12    1  0.1335216E-007  0.6987026E+03  0.7818608E-02  0.9719454E-01
          2   -1    0    0  501    0  0.00000000000E+00  0.00000000000E+00  0.16997646050E+04  0.16997646050E+04  0.00000000000E+00 0.  1.
         -2   -1    0    0    0  501 -0.00000000000E+00 -0.00000000000E+00 -0.61789451596E+03  0.61789451596E+03  0.00000000000E+00 0. -1.
         23    2    1    2    0    0  0.63893456093E+03  0.49303606712E+01 -0.27534129368E+03  0.70194562808E+03  0.93022336889E+02 0.  0.
    5000000    2    1    2    0    0 -0.63893456093E+03 -0.49303606712E+01  0.13572113827E+04  0.16157134929E+04  0.60020469179E+03 0.  0.
         23    2    4    4    0    0 -0.61443427043E+03  0.96015429800E+02  0.13371226397E+04  0.14775591256E+04  0.92388205400E+02 0.  0.
         23    2    4    4    0    0 -0.24500290500E+02 -0.10094579047E+03  0.20088742984E+02  0.13815436727E+03  0.88841177131E+02 0.  0.
          3    1    3    3  502    0  0.18496771828E+03  0.22083193673E+02 -0.12110134194E+03  0.22218519138E+03  0.00000000000E+00 0. -1.
         -3    1    3    3    0  502  0.45396684266E+03 -0.17152833002E+02 -0.15423995174E+03  0.47976043670E+03  0.00000000000E+00 0.  1.
         11    1    5    5    0    0 -0.32362694191E+03  0.19936238977E+02  0.61164409292E+03  0.69227187402E+03  0.00000000000E+00 0. -1.
        -11    1    5    5    0    0 -0.29080732852E+03  0.76079190823E+02  0.72547854681E+03  0.78528725157E+03  0.00000000000E+00 0.  1.
          4    1    6    6  503    0 -0.37386250110E+02 -0.80885695009E+01 -0.10284571110E+02  0.39609709122E+02  0.00000000000E+00 0.  1.
         -4    1    6    6    0  503  0.12885959610E+02 -0.92857220970E+02  0.30373314093E+02  0.98544658152E+02  0.00000000000E+00 0. -1.
<mgrwt>
<rscale>  0 0.69870256E+03</rscale>
<asrwt>0</asrwt>
<pdfrwt beam="1">  1        2 0.26150225E+00 0.69870256E+03</pdfrwt>
<pdfrwt beam="2">  1       -2 0.95060695E-01 0.69870256E+03</pdfrwt>
<totfact> 0.94628153E+00</totfact>
</mgrwt>
</event>
<event>
12    1  0.1335216E-007  0.5893989E+03  0.7818608E-02  0.9927647E-01
          1   -1    0    0  501    0  0.00000000000E+00  0.00000000000E+00  0.35320019957E+04  0.35320019957E+04  0.00000000000E+00 0. -1.
         -1   -1    0    0    0  501 -0.00000000000E+00 -0.00000000000E+00 -0.14644756567E+03  0.14644756567E+03  0.00000000000E+00 0.  1.
         23    2    1    2    0    0 -0.30242298570E+03  0.35419143307E+03  0.23312416742E+04  0.23790967473E+04  0.92208219897E+02 0.  0.
    5000000    2    1    2    0    0  0.30242298570E+03 -0.35419143307E+03  0.10543127558E+04  0.12993528141E+04  0.59985924587E+03 0.  0.
         23    2    4    4    0    0 -0.73288860817E+01  0.11060327474E+03  0.60554338625E+02  0.15587485433E+03  0.91341914430E+02 0.  0.
         23    2    4    4    0    0  0.30975187178E+03 -0.46479470781E+03  0.99375841718E+03  0.11434779597E+04  0.89474634507E+02 0.  0.
          1    1    3    3  502    0 -0.13988609391E+03  0.21943381527E+03  0.14269068592E+04  0.14504421751E+04  0.00000000000E+00 0. -1.
         -1    1    3    3    0  502 -0.16253689179E+03  0.13475761780E+03  0.90433481502E+03  0.92865457216E+03  0.00000000000E+00 0.  1.
         13    1    5    5    0    0  0.40305393447E+02  0.41632820292E+02  0.12581882695E+02  0.59296882199E+02  0.00000000000E+00 0. -1.
        -13    1    5    5    0    0 -0.47634279529E+02  0.68970454452E+02  0.47972455929E+02  0.96577972134E+02  0.00000000000E+00 0.  1.
          2    1    6    6  503    0  0.11742298077E+03 -0.10421437530E+03  0.27835483377E+03  0.31957816871E+03  0.00000000000E+00 0. -1.
         -2    1    6    6    0  503  0.19232889102E+03 -0.36058033251E+03  0.71540358341E+03  0.82389979104E+03  0.00000000000E+00 0.  1.
<mgrwt>
<rscale>  0 0.58939891E+03</rscale>
<asrwt>0</asrwt>
<pdfrwt beam="1">  1        1 0.54338486E+00 0.58939891E+03</pdfrwt>
<pdfrwt beam="2">  1       -1 0.22530397E-01 0.58939891E+03</pdfrwt>
<totfact> 0.44117382E+00</totfact>
</mgrwt>
</event>
<event>
12    1  0.1335216E-007  0.5159571E+03  0.7818608E-02  0.1009696E+00
          1   -1    0    0  501    0  0.00000000000E+00  0.00000000000E+00  0.27868142348E+04  0.27868142348E+04  0.00000000000E+00 0. -1.
         -1   -1    0    0    0  501 -0.00000000000E+00 -0.00000000000E+00 -0.13377129960E+03  0.13377129960E+03  0.00000000000E+00 0.  1.
         23    2    1    2    0    0  0.39695025648E+03  0.22749814193E+03  0.10293570367E+04  0.11301496416E+04  0.91309324626E+02 0.  0.
    5000000    2    1    2    0    0 -0.39695025648E+03 -0.22749814193E+03  0.16236858985E+04  0.17904358928E+04  0.59998323181E+03 0.  0.
         23    2    4    4    0    0 -0.24997935037E+03  0.40259164122E+02  0.13296407124E+04  0.13566893248E+04  0.92471748527E+02 0.  0.
         23    2    4    4    0    0 -0.14697090611E+03 -0.26775730605E+03  0.29404518620E+03  0.43374656798E+03  0.91537377749E+02 0.  0.
          3    1    3    3  502    0  0.30059149968E+03  0.20030858344E+03  0.72975777349E+03  0.81426358524E+03  0.00000000000E+00 0. -1.
         -3    1    3    3    0  502  0.96358756798E+02  0.27189558481E+02  0.29959926319E+03  0.31588605636E+03  0.00000000000E+00 0.  1.
         11    1    5    5    0    0 -0.20578402710E+03  0.10701708832E+02  0.87430125735E+03  0.89825624461E+03  0.00000000000E+00 0. -1.
        -11    1    5    5    0    0 -0.44195323264E+02  0.29557455289E+02  0.45533945500E+03  0.45843308022E+03  0.00000000000E+00 0.  1.
          4    1    6    6  503    0 -0.36383444758E+02 -0.12831064493E+03  0.17329934953E+03  0.21867793945E+03  0.00000000000E+00 0.  1.
         -4    1    6    6    0  503 -0.11058746135E+03 -0.13944666112E+03  0.12074583666E+03  0.21506862853E+03  0.00000000000E+00 0. -1.
<mgrwt>
<rscale>  0 0.51595707E+03</rscale>
<asrwt>0</asrwt>
<pdfrwt beam="1">  1        1 0.42874061E+00 0.51595707E+03</pdfrwt>
<pdfrwt beam="2">  1       -1 0.20580202E-01 0.51595707E+03</pdfrwt>
<totfact> 0.18263496E+01</totfact>
</mgrwt>
</event>
<event>
12    1  0.1335216E-007  0.4898468E+03  0.7818608E-02  0.1016464E+00
         -2   -1    0    0    0  501 -0.00000000000E+00  0.00000000000E+00  0.18652061182E+04  0.18652061182E+04  0.00000000000E+00 0.  1.
          2   -1    0    0  501    0  0.00000000000E+00 -0.00000000000E+00 -0.55606326855E+03  0.55606326855E+03  0.00000000000E+00 0. -1.
         23    2    1    2    0    0 -0.38350917745E+03 -0.88014888773E+02  0.15974708983E+04  0.16479926204E+04  0.95605941174E+02 0.  0.
    5000000    2    1    2    0    0  0.38350917745E+03  0.88014888773E+02 -0.28832804868E+03  0.77327676636E+03  0.59999831992E+03 0.  0.
         23    2    4    4    0    0  0.40125659212E+03  0.18814064274E+03 -0.39451313165E+03  0.60006011129E+03  0.89597834511E+02 0.  0.
         23    2    4    4    0    0 -0.17747414671E+02 -0.10012575397E+03  0.10618508297E+03  0.17321665508E+03  0.91589302953E+02 0.  0.
          1    1    3    3  502    0 -0.37725054429E+03 -0.83474975678E+02  0.14586076318E+04  0.15089142680E+04  0.00000000000E+00 0. -1.
         -1    1    3    3    0  502 -0.62586331556E+01 -0.45399130952E+01  0.13886326656E+03  0.13907835237E+03  0.00000000000E+00 0.  1.
         11    1    5    5    0    0  0.25252323870E+03  0.15784858524E+03 -0.23045051787E+03  0.37655225817E+03  0.00000000000E+00 0.  1.
        -11    1    5    5    0    0  0.14873335342E+03  0.30292057501E+02 -0.16406261378E+03  0.22350785312E+03  0.00000000000E+00 0. -1.
          3    1    6    6  503    0  0.31875781567E+02 -0.72518614682E+02  0.52219565981E+02  0.94878332601E+02  0.00000000000E+00 0. -1.
         -3    1    6    6    0  503 -0.49623196239E+02 -0.27607139288E+02  0.53965516985E+02  0.78338322474E+02  0.00000000000E+00 0.  1.
<mgrwt>
<rscale>  0 0.48984683E+03</rscale>
<asrwt>0</asrwt>
<pdfrwt beam="1">  1        2 0.85548196E-01 0.48984683E+03</pdfrwt>
<pdfrwt beam="2">  1       -2 0.28695478E+00 0.48984683E+03</pdfrwt>
<totfact> 0.22663068E+00</totfact>
</mgrwt>
</event>
<event>
12    1  0.1335216E-007  0.1149817E+04  0.7818608E-02  0.9157952E-01
         -2   -1    0    0    0  501 -0.00000000000E+00  0.00000000000E+00  0.17129744652E+04  0.17129744652E+04  0.00000000000E+00 0.  1.
          2   -1    0    0  501    0  0.00000000000E+00 -0.00000000000E+00 -0.19135159321E+04  0.19135159321E+04  0.00000000000E+00 0. -1.
         23    2    1    2    0    0  0.66638809785E+03 -0.84840684131E+03  0.12945764556E+04  0.16876159354E+04  0.90840962621E+02 0.  0.
    5000000    2    1    2    0    0 -0.66638809785E+03  0.84840684131E+03 -0.14951179226E+04  0.19388744619E+04  0.59999109268E+03 0.  0.
         23    2    4    4    0    0 -0.35390639768E+03  0.82889190961E+03 -0.11554044766E+04  0.14681808839E+04  0.91016850974E+02 0.  0.
         23    2    4    4    0    0 -0.31248170017E+03  0.19514931705E+02 -0.33971344602E+03  0.47069357805E+03  0.90119773113E+02 0.  0.
          3    1    3    3  502    0  0.35408416077E+03 -0.37978811637E+03  0.60289298361E+03  0.79567239234E+03  0.00000000000E+00 0. -1.
         -3    1    3    3    0  502  0.31230393707E+03 -0.46861872494E+03  0.69168347204E+03  0.89194354304E+03  0.00000000000E+00 0.  1.
         11    1    5    5    0    0 -0.16857974930E+03  0.48054489964E+03 -0.69942785470E+03  0.86518313459E+03  0.00000000000E+00 0. -1.
        -11    1    5    5    0    0 -0.18532664837E+03  0.34834700997E+03 -0.45597662188E+03  0.60299774929E+03  0.00000000000E+00 0.  1.
          3    1    6    6  503    0 -0.20591280696E+03  0.61694310955E+01 -0.28059293487E+03  0.34809559183E+03  0.00000000000E+00 0. -1.
         -3    1    6    6    0  503 -0.10656889321E+03  0.13345500609E+02 -0.59120511154E+02  0.12259798622E+03  0.00000000000E+00 0.  1.
<mgrwt>
<rscale>  0 0.11498174E+04</rscale>
<asrwt>0</asrwt>
<pdfrwt beam="1">  1        2 0.29438707E+00 0.11498174E+04</pdfrwt>
<pdfrwt beam="2">  1       -2 0.26353453E+00 0.11498174E+04</pdfrwt>
<totfact> 0.38845074E-01</totfact>
</mgrwt>
</event>
<event>
12    1  0.1335216E-007  0.1167035E+04  0.7818608E-02  0.9142210E-01
          1   -1    0    0  501    0  0.00000000000E+00  0.00000000000E+00  0.17712956446E+04  0.17712956446E+04  0.00000000000E+00 0. -1.
         -1   -1    0    0    0  501 -0.00000000000E+00 -0.00000000000E+00 -0.82225450318E+03  0.82225450318E+03  0.00000000000E+00 0.  1.
         23    2    1    2    0    0 -0.87553527889E+01 -0.10982993530E+04  0.15860300808E+03  0.11133210702E+04  0.89391085900E+02 0.  0.
    5000000    2    1    2    0    0  0.87553527889E+01  0.10982993530E+04  0.79043813335E+03  0.14802290775E+04  0.59995629371E+03 0.  0.
         23    2    4    4    0    0  0.24309340530E+03  0.84940255237E+03  0.65422105070E+03  0.11036438042E+04  0.97187260640E+02 0.  0.
         23    2    4    4    0    0 -0.23433805251E+03  0.24889680063E+03  0.13621708265E+03  0.37658527338E+03  0.79983962782E+02 0.  0.
          1    1    3    3  502    0  0.24221379144E+02 -0.84749033445E+03  0.10055302693E+03  0.85377833975E+03  0.00000000000E+00 0. -1.
         -1    1    3    3    0  502 -0.32976731933E+02 -0.25080901855E+03  0.58049981142E+02  0.25954273048E+03  0.00000000000E+00 0.  1.
         13    1    5    5    0    0  0.14747832682E+03  0.34488960490E+03  0.28889689587E+03  0.47345550255E+03  0.00000000000E+00 0. -1.
        -13    1    5    5    0    0  0.95615078476E+02  0.50451294748E+03  0.36532415482E+03  0.63018830162E+03  0.00000000000E+00 0.  1.
          3    1    6    6  503    0 -0.26379131014E+02  0.10689342027E+02  0.33830031993E+02  0.44210763969E+02  0.00000000000E+00 0. -1.
         -3    1    6    6    0  503 -0.20795892150E+03  0.23820745860E+03  0.10238705066E+03  0.33237450941E+03  0.00000000000E+00 0.  1.
<mgrwt>
<rscale>  0 0.11670349E+04</rscale>
<asrwt>0</asrwt>
<pdfrwt beam="1">  1        1 0.27250702E+00 0.11670349E+04</pdfrwt>
<pdfrwt beam="2">  1       -1 0.12650069E+00 0.11670349E+04</pdfrwt>
<totfact> 0.22842967E+00</totfact>
</mgrwt>
</event>
<event>
12    1  0.1335216E-007  0.4099501E+03  0.7818608E-02  0.1040388E+00
         -1   -1    0    0    0  501 -0.00000000000E+00  0.00000000000E+00  0.28328733709E+03  0.28328733709E+03  0.00000000000E+00 0.  1.
          1   -1    0    0  501    0  0.00000000000E+00 -0.00000000000E+00 -0.16946787152E+04  0.16946787152E+04  0.00000000000E+00 0. -1.
         23    2    1    2    0    0 -0.26080614732E+03  0.13710195937E+03 -0.12534342695E+04  0.12907781484E+04  0.90520531945E+02 0.  0.
    5000000    2    1    2    0    0  0.26080614732E+03 -0.13710195937E+03 -0.15795710860E+03  0.68718790387E+03  0.60038318874E+03 0.  0.
         23    2    4    4    0    0  0.26061482873E+03 -0.26431460253E+03 -0.29166617359E+03  0.48060714821E+03  0.90176360720E+02 0.  0.
         23    2    4    4    0    0  0.19131858784E+00  0.12721264315E+03  0.13370906499E+03  0.20658075566E+03  0.92813799452E+02 0.  0.
          3    1    3    3  502    0 -0.23072387337E+03  0.82193068758E+02 -0.10316634826E+04  0.10603389777E+04  0.00000000000E+00 0. -1.
         -3    1    3    3    0  502 -0.30082273946E+02  0.54908890616E+02 -0.22177078690E+03  0.23043917071E+03  0.00000000000E+00 0.  1.
         13    1    5    5    0    0  0.89708518097E+02 -0.54814198366E+02 -0.12358374528E+03  0.16225029017E+03  0.00000000000E+00 0.  1.
        -13    1    5    5    0    0  0.17090631063E+03 -0.20950040416E+03 -0.16808242831E+03  0.31835685805E+03  0.00000000000E+00 0. -1.
          3    1    6    6  503    0 -0.99549583745E+01  0.12628502546E+03  0.75463602044E+02  0.14745088703E+03  0.00000000000E+00 0. -1.
         -3    1    6    6    0  503  0.10146276962E+02  0.92761768904E+00  0.58245462942E+02  0.59129868629E+02  0.00000000000E+00 0.  1.
<mgrwt>
<rscale>  0 0.40995008E+03</rscale>
<asrwt>0</asrwt>
<pdfrwt beam="1">  1        1 0.26071981E+00 0.40995008E+03</pdfrwt>
<pdfrwt beam="2">  1       -1 0.43582666E-01 0.40995008E+03</pdfrwt>
<totfact> 0.27439183E+01</totfact>
</mgrwt>
</event>
<event>
12    1  0.1335216E-007  0.3519623E+03  0.7818608E-02  0.1061812E+00
          1   -1    0    0  501    0  0.00000000000E+00  0.00000000000E+00  0.31939858226E+04  0.31939858226E+04  0.00000000000E+00 0. -1.
         -1   -1    0    0    0  501 -0.00000000000E+00 -0.00000000000E+00 -0.47250398501E+02  0.47250398501E+02  0.00000000000E+00 0.  1.
         23    2    1    2    0    0 -0.41950996837E+02 -0.12676120617E+03  0.61733063046E+03  0.63818109091E+03  0.91376736472E+02 0.  0.
    5000000    2    1    2    0    0  0.41950996837E+02  0.12676120617E+03  0.25294047936E+04  0.26030551302E+04  0.60014924077E+03 0.  0.
         23    2    4    4    0    0  0.26292395094E+03 -0.52928346309E+02  0.16568467411E+04  0.16809082715E+04  0.91548238060E+02 0.  0.
         23    2    4    4    0    0 -0.22097295410E+03  0.17968955248E+03  0.87255805251E+03  0.92214685866E+03  0.88768757002E+02 0.  0.
          2    1    3    3  502    0 -0.11558456076E+02 -0.11832985037E+02  0.28050815838E+03  0.28099545256E+03  0.00000000000E+00 0. -1.
         -2    1    3    3    0  502 -0.30392540761E+02 -0.11492822113E+03  0.33682247208E+03  0.35718563836E+03  0.00000000000E+00 0.  1.
         11    1    5    5    0    0  0.14160577836E+03  0.16864336702E+02  0.77204400302E+03  0.78510416183E+03  0.00000000000E+00 0.  1.
        -11    1    5    5    0    0  0.12131817258E+03 -0.69792683010E+02  0.88480273810E+03  0.89580410970E+03  0.00000000000E+00 0. -1.
          1    1    6    6  503    0 -0.11450042812E+03  0.10934814928E+03  0.34854942201E+03  0.38282380461E+03  0.00000000000E+00 0. -1.
         -1    1    6    6    0  503 -0.10647252598E+03  0.70341403202E+02  0.52400863050E+03  0.53932305405E+03  0.00000000000E+00 0.  1.
<mgrwt>
<rscale>  0 0.35196234E+03</rscale>
<asrwt>0</asrwt>
<pdfrwt beam="1">  1        1 0.49138226E+00 0.35196234E+03</pdfrwt>
<pdfrwt beam="2">  1       -1 0.72692946E-02 0.35196234E+03</pdfrwt>
<totfact> 0.51265720E+01</totfact>
</mgrwt>
</event>
<event>
12    1  0.1335216E-007  0.1070588E+04  0.7818608E-02  0.9234343E-01
          2   -1    0    0  501    0  0.00000000000E+00  0.00000000000E+00  0.12263251878E+04  0.12263251878E+04  0.00000000000E+00 0. -1.
         -2   -1    0    0    0  501 -0.00000000000E+00 -0.00000000000E+00 -0.16563628578E+04  0.16563628578E+04  0.00000000000E+00 0.  1.
         23    2    1    2    0    0  0.96446986374E+03  0.32189642728E+03 -0.11191695297E+04  0.15156801200E+04  0.10452923967E+03 0.  0.
    5000000    2    1    2    0    0 -0.96446986374E+03 -0.32189642728E+03  0.68913185975E+03  0.13670079257E+04  0.59999043385E+03 0.  0.
         23    2    4    4    0    0 -0.48303998309E+03  0.72515356942E+02  0.51473039860E+03  0.71462071343E+03  0.84553406558E+02 0.  0.
         23    2    4    4    0    0 -0.48142988065E+03 -0.39441178423E+03  0.17440146115E+03  0.65238721222E+03  0.88644342752E+02 0.  0.
          3    1    3    3  502    0  0.72570458495E+03  0.23468565749E+03 -0.90294703971E+03  0.11819635608E+04  0.00000000000E+00 0. -1.
         -3    1    3    3    0  502  0.23876527879E+03  0.87210769790E+02 -0.21622249002E+03  0.33371655924E+03  0.00000000000E+00 0.  1.
         11    1    5    5    0    0 -0.12944276164E+02  0.18410419688E+02  0.22324288587E+02  0.31699711346E+02  0.00000000000E+00 0.  1.
        -11    1    5    5    0    0 -0.47009570693E+03  0.54104937253E+02  0.49240611002E+03  0.68292100208E+03  0.00000000000E+00 0. -1.
          1    1    6    6  503    0 -0.42341381598E+03 -0.30438931235E+03  0.14846604475E+03  0.54219395005E+03  0.00000000000E+00 0. -1.
         -1    1    6    6    0  503 -0.58016064668E+02 -0.90022471880E+02  0.25935416401E+02  0.11019326217E+03  0.00000000000E+00 0.  1.
<mgrwt>
<rscale>  0 0.10705880E+04</rscale>
<asrwt>0</asrwt>
<pdfrwt beam="1">  1        2 0.18866542E+00 0.10705880E+04</pdfrwt>
<pdfrwt beam="2">  1       -2 0.25482505E+00 0.10705880E+04</pdfrwt>
<totfact> 0.10835208E+00</totfact>
</mgrwt>
</event>
<event>
12    1  0.1335216E-007  0.5999953E+03  0.7818608E-02  0.9905416E-01
          2   -1    0    0  501    0  0.00000000000E+00  0.00000000000E+00  0.28570168217E+04  0.28570168217E+04  0.00000000000E+00 0. -1.
         -2   -1    0    0    0  501 -0.00000000000E+00 -0.00000000000E+00 -0.16486064720E+03  0.16486064720E+03  0.00000000000E+00 0.  1.
         23    2    1    2    0    0 -0.42759877258E+03  0.15413473533E+03  0.40802526880E+03  0.61691606455E+03  0.86617456508E+02 0.  0.
    5000000    2    1    2    0    0  0.42759877258E+03 -0.15413473533E+03  0.22841309057E+04  0.24049614044E+04  0.59998927917E+03 0.  0.
         23    2    4    4    0    0  0.30439995976E+03  0.19255461875E+03  0.10351338255E+04  0.10995473912E+04  0.88123844737E+02 0.  0.
         23    2    4    4    0    0  0.12319881282E+03 -0.34668935408E+03  0.12489970802E+04  0.13054140132E+04  0.93491089318E+02 0.  0.
          3    1    3    3  502    0 -0.21113931252E+03  0.12197859574E+03  0.21129975762E+03  0.32265488479E+03  0.00000000000E+00 0. -1.
         -3    1    3    3    0  502 -0.21645946006E+03  0.32156139592E+02  0.19672551118E+03  0.29426117976E+03  0.00000000000E+00 0.  1.
         11    1    5    5    0    0  0.15920925655E+03  0.12389578565E+03  0.45755056990E+03  0.50005027456E+03  0.00000000000E+00 0. -1.
        -11    1    5    5    0    0  0.14519070321E+03  0.68658833097E+02  0.57758325562E+03  0.59949711662E+03  0.00000000000E+00 0.  1.
          3    1    6    6  503    0 -0.69416297184E+01 -0.56639692723E+02  0.27464466431E+03  0.28051012932E+03  0.00000000000E+00 0. -1.
         -3    1    6    6    0  503  0.13014044254E+03 -0.29004966136E+03  0.97435241592E+03  0.10249038839E+04  0.00000000000E+00 0.  1.
<mgrwt>
<rscale>  0 0.59999529E+03</rscale>
<asrwt>0</asrwt>
<pdfrwt beam="1">  1        2 0.43954101E+00 0.59999529E+03</pdfrwt>
<pdfrwt beam="2">  1       -2 0.25363179E-01 0.59999529E+03</pdfrwt>
<totfact> 0.32193295E+01</totfact>
</mgrwt>
</event>
<event>
12    1  0.1403981E-007  0.1552573E+04  0.7818608E-02  0.8850226E-01
          2   -1    0    0  501    0  0.00000000000E+00  0.00000000000E+00  0.18822413856E+04  0.18822413856E+04  0.00000000000E+00 0. -1.
         -2   -1    0    0    0  501 -0.00000000000E+00 -0.00000000000E+00 -0.13237007096E+04  0.13237007096E+04  0.00000000000E+00 0.  1.
         23    2    1    2    0    0 -0.85079623450E+03  0.12364434825E+04  0.25062012911E+02  0.15037911582E+04  0.90072331502E+02 0.  0.
    5000000    2    1    2    0    0  0.85079623450E+03 -0.12364434825E+04  0.53347866312E+03  0.17021509370E+04  0.60005967225E+03 0.  0.
         23    2    4    4    0    0 -0.47752777117E+02 -0.28756405488E+03  0.11652244618E+03  0.32738066753E+03  0.92882762810E+02 0.  0.
         23    2    4    4    0    0  0.89854901162E+03 -0.94887942760E+03  0.41695621695E+03  0.13747702695E+04  0.91533122565E+02 0.  0.
          2    1    3    3  502    0 -0.29476546220E+03  0.37166642266E+03 -0.18901481571E+02  0.47474190193E+03  0.00000000000E+00 0. -1.
         -2    1    3    3    0  502 -0.55603077230E+03  0.86477705982E+03  0.43963494482E+02  0.10290492562E+04  0.00000000000E+00 0.  1.
         13    1    5    5    0    0 -0.55639322234E+02 -0.19403740694E+03  0.38873388502E+02  0.20556602298E+03  0.00000000000E+00 0. -1.
        -13    1    5    5    0    0  0.78865451164E+01 -0.93526647946E+02  0.77649057674E+02  0.12181464455E+03  0.00000000000E+00 0.  1.
          3    1    6    6  503    0  0.36940799456E+03 -0.37643290826E+03  0.12236017811E+03  0.54142036724E+03  0.00000000000E+00 0. -1.
         -3    1    6    6    0  503  0.52914101705E+03 -0.57244651933E+03  0.29459603884E+03  0.83334990222E+03  0.00000000000E+00 0.  1.
<mgrwt>
<rscale>  0 0.15525725E+04</rscale>
<asrwt>0</asrwt>
<pdfrwt beam="1">  1        2 0.28957560E+00 0.15525725E+04</pdfrwt>
<pdfrwt beam="2">  1       -2 0.20364626E+00 0.15525725E+04</pdfrwt>
<totfact> 0.91416287E-01</totfact>
</mgrwt>
</event>
<event>
12    1  0.1335216E-007  0.9526149E+03  0.7818608E-02  0.9362099E-01
         -2   -1    0    0    0  501 -0.00000000000E+00  0.00000000000E+00  0.80306151017E+03  0.80306151017E+03  0.00000000000E+00 0.  1.
          2   -1    0    0  501    0  0.00000000000E+00 -0.00000000000E+00 -0.15027549137E+04  0.15027549137E+04  0.00000000000E+00 0. -1.
         23    2    1    2    0    0  0.41345539095E+03 -0.76724594273E+03  0.22023320792E+03  0.90374542680E+03  0.92959311769E+02 0.  0.
    5000000    2    1    2    0    0 -0.41345539095E+03  0.76724594273E+03 -0.91992661148E+03  0.14020709971E+04  0.59993867473E+03 0.  0.
         23    2    4    4    0    0 -0.28221155200E+03  0.83202319355E+03 -0.72968250901E+03  0.11457273223E+04  0.91370556195E+02 0.  0.
         23    2    4    4    0    0 -0.13124383895E+03 -0.64777250823E+02 -0.19024410247E+03  0.25634367474E+03  0.89990130390E+02 0.  0.
          3    1    3    3  502    0  0.34635044287E+03 -0.70250390521E+03  0.19533458252E+03  0.80723352584E+03  0.00000000000E+00 0. -1.
         -3    1    3    3    0  502  0.67104948086E+02 -0.64742037515E+02  0.24898625404E+02  0.96511900956E+02  0.00000000000E+00 0.  1.
         13    1    5    5    0    0 -0.41158634649E+02  0.23309032575E+03 -0.22031711122E+03  0.32336475172E+03  0.00000000000E+00 0.  1.
        -13    1    5    5    0    0 -0.24105291735E+03  0.59893286780E+03 -0.50936539779E+03  0.82236257062E+03  0.00000000000E+00 0. -1.
          3    1    6    6  503    0 -0.11659733595E+03 -0.55995101341E+02 -0.97334820090E+02  0.16187790871E+03  0.00000000000E+00 0. -1.
         -3    1    6    6    0  503 -0.14646502997E+02 -0.87821494819E+01 -0.92909282383E+02  0.94465766035E+02  0.00000000000E+00 0.  1.
<mgrwt>
<rscale>  0 0.95261489E+03</rscale>
<asrwt>0</asrwt>
<pdfrwt beam="1">  1        2 0.23119306E+00 0.95261489E+03</pdfrwt>
<pdfrwt beam="2">  1       -2 0.12354793E+00 0.95261489E+03</pdfrwt>
<totfact> 0.62391217E+00</totfact>
</mgrwt>
</event>
<event>
12    1  0.1335216E-007  0.4469443E+03  0.7818608E-02  0.1028637E+00
          1   -1    0    0  501    0  0.00000000000E+00  0.00000000000E+00  0.51903740648E+03  0.51903740648E+03  0.00000000000E+00 0. -1.
         -1   -1    0    0    0  501 -0.00000000000E+00 -0.00000000000E+00 -0.48943086091E+03  0.48943086091E+03  0.00000000000E+00 0.  1.
         23    2    1    2    0    0  0.15075834771E+03  0.19944722868E+03 -0.18596064929E+03  0.32363102681E+03  0.87455142756E+02 0.  0.
    5000000    2    1    2    0    0 -0.15075834771E+03 -0.19944722868E+03  0.21556719486E+03  0.68483724058E+03  0.60002129475E+03 0.  0.
         23    2    4    4    0    0 -0.32847614503E+03 -0.25415326218E+03  0.21834274275E+03  0.47792790420E+03  0.90835399311E+02 0.  0.
         23    2    4    4    0    0  0.17771779732E+03  0.54706033506E+02 -0.27755478901E+01  0.20690933638E+03  0.90705039714E+02 0.  0.
          3    1    3    3  502    0  0.31159198358E+02  0.10783786388E+03 -0.99076263546E+02  0.14971975997E+03  0.00000000000E+00 0. -1.
         -3    1    3    3    0  502  0.11959914935E+03  0.91609364802E+02 -0.86884385746E+02  0.17391126683E+03  0.00000000000E+00 0.  1.
         11    1    5    5    0    0 -0.26193000927E+03 -0.24177262358E+03  0.17117510814E+03  0.39542666693E+03  0.00000000000E+00 0. -1.
        -11    1    5    5    0    0 -0.66546135759E+02 -0.12380638601E+02  0.47167634609E+02  0.82501237271E+02  0.00000000000E+00 0.  1.
          4    1    6    6  503    0  0.14944979587E+03  0.48486126271E+01 -0.40164623929E+01  0.14958236026E+03  0.00000000000E+00 0. -1.
         -4    1    6    6    0  503  0.28268001448E+02  0.49857420879E+02  0.12409145028E+01  0.57326976123E+02  0.00000000000E+00 0.  1.
<mgrwt>
<rscale>  0 0.44694430E+03</rscale>
<asrwt>0</asrwt>
<pdfrwt beam="1">  1        1 0.79851909E-01 0.44694430E+03</pdfrwt>
<pdfrwt beam="2">  1       -1 0.75297056E-01 0.44694430E+03</pdfrwt>
<totfact> 0.78266457E+01</totfact>
</mgrwt>
</event>
<event>
12    1  0.1335216E-007  0.7501124E+03  0.7818608E-02  0.9635174E-01
         -1   -1    0    0    0  501 -0.00000000000E+00  0.00000000000E+00  0.25743524752E+03  0.25743524752E+03  0.00000000000E+00 0.  1.
          1   -1    0    0  501    0  0.00000000000E+00 -0.00000000000E+00 -0.29180253258E+04  0.29180253258E+04  0.00000000000E+00 0. -1.
         23    2    1    2    0    0 -0.11844014703E+03  0.68535970471E+03 -0.61426426056E+03  0.93241891319E+03  0.91315138959E+02 0.  0.
    5000000    2    1    2    0    0  0.11844014703E+03 -0.68535970471E+03 -0.20463258178E+04  0.22430416602E+04  0.60003378540E+03 0.  0.
         23    2    4    4    0    0  0.17385272458E+02 -0.69381875677E+03 -0.19613293393E+04  0.20826145679E+04  0.93722709186E+02 0.  0.
         23    2    4    4    0    0  0.10105487457E+03  0.84590520599E+01 -0.84996478446E+02  0.16042709229E+03  0.90712773939E+02 0.  0.
          4    1    3    3  502    0 -0.12253047722E+03  0.54339917570E+03 -0.45698548402E+03  0.72050823354E+03  0.00000000000E+00 0. -1.
         -4    1    3    3    0  502  0.40903301924E+01  0.14196052901E+03 -0.15727877654E+03  0.21191067965E+03  0.00000000000E+00 0.  1.
         11    1    5    5    0    0  0.30743028333E+02 -0.19821065905E+03 -0.46926591972E+03  0.51033626420E+03  0.00000000000E+00 0.  1.
        -11    1    5    5    0    0 -0.13357755875E+02 -0.49560809771E+03 -0.14920634196E+04  0.15722783037E+04  0.00000000000E+00 0. -1.
          1    1    6    6  503    0  0.28000756313E+02  0.14422885297E+02 -0.81128305152E+02  0.87027948793E+02  0.00000000000E+00 0. -1.
         -1    1    6    6    0  503  0.73054118255E+02 -0.59638332374E+01 -0.38681732937E+01  0.73399143493E+02  0.00000000000E+00 0.  1.
<mgrwt>
<rscale>  0 0.75011243E+03</rscale>
<asrwt>0</asrwt>
<pdfrwt beam="1">  1        1 0.44892699E+00 0.75011243E+03</pdfrwt>
<pdfrwt beam="2">  1       -1 0.39605421E-01 0.75011243E+03</pdfrwt>
<totfact> 0.45374412E+00</totfact>
</mgrwt>
</event>
<event>
12    1  0.1335216E-007  0.8464127E+03  0.7818608E-02  0.9495164E-01
          1   -1    0    0  501    0  0.00000000000E+00  0.00000000000E+00  0.75643779107E+03  0.75643779107E+03  0.00000000000E+00 0. -1.
         -1   -1    0    0    0  501 -0.00000000000E+00 -0.00000000000E+00 -0.11326719685E+04  0.11326719685E+04  0.00000000000E+00 0.  1.
         23    2    1    2    0    0  0.17838850075E+03 -0.73030108135E+03  0.17911164287E+03  0.77788143033E+03  0.88636405787E+02 0.  0.
    5000000    2    1    2    0    0 -0.17838850075E+03  0.73030108135E+03 -0.55534582030E+03  0.11112283292E+04  0.60104683092E+03 0.  0.
         23    2    4    4    0    0 -0.26927715760E+03  0.76323046275E+03 -0.40748504748E+03  0.91103453100E+03  0.94387106449E+02 0.  0.
         23    2    4    4    0    0  0.90888656855E+02 -0.32929381407E+02 -0.14786077282E+03  0.20019379824E+03  0.94178854375E+02 0.  0.
          1    1    3    3  502    0  0.14252106191E+03 -0.56001329772E+03  0.98921007881E+02  0.58626999967E+03  0.00000000000E+00 0. -1.
         -1    1    3    3    0  502  0.35867438832E+02 -0.17028778362E+03  0.80190634989E+02  0.19161143066E+03  0.00000000000E+00 0.  1.
         11    1    5    5    0    0 -0.10813205868E+03  0.20344710555E+03 -0.87788046139E+02  0.24655629766E+03  0.00000000000E+00 0. -1.
        -11    1    5    5    0    0 -0.16114509892E+03  0.55978335720E+03 -0.31969700134E+03  0.66447823334E+03  0.00000000000E+00 0.  1.
          4    1    6    6  503    0  0.43329174449E+02 -0.59453288562E+02 -0.52496923659E+02  0.90377197748E+02  0.00000000000E+00 0. -1.
         -4    1    6    6    0  503  0.47559482407E+02  0.26523907155E+02 -0.95363849158E+02  0.10981660049E+03  0.00000000000E+00 0.  1.
<mgrwt>
<rscale>  0 0.84641273E+03</rscale>
<asrwt>0</asrwt>
<pdfrwt beam="1">  1        1 0.11637504E+00 0.84641273E+03</pdfrwt>
<pdfrwt beam="2">  1       -1 0.17425723E+00 0.84641273E+03</pdfrwt>
<totfact> 0.56519647E+00</totfact>
</mgrwt>
</event>
<event>
12    1  0.1335216E-007  0.1541551E+04  0.7818608E-02  0.8857283E-01
          2   -1    0    0  501    0  0.00000000000E+00  0.00000000000E+00  0.26890221426E+04  0.26890221426E+04  0.00000000000E+00 0. -1.
         -2   -1    0    0    0  501 -0.00000000000E+00 -0.00000000000E+00 -0.13133112323E+04  0.13133112323E+04  0.00000000000E+00 0.  1.
         23    2    1    2    0    0  0.28864044744E+03  0.15086879096E+04 -0.38884971847E+03  0.15871006366E+04  0.90729325511E+02 0.  0.
    5000000    2    1    2    0    0 -0.28864044744E+03 -0.15086879096E+04  0.17645606288E+04  0.24152327383E+04  0.60018534708E+03 0.  0.
         23    2    4    4    0    0 -0.67534312432E+02 -0.15587018198E+03  0.54483765178E+03  0.57797936503E+03  0.91409422999E+02 0.  0.
         23    2    4    4    0    0 -0.22110613500E+03 -0.13528177277E+04  0.12197229770E+04  0.18372533733E+04  0.93659434691E+02 0.  0.
          4    1    3    3  502    0  0.19966699627E+03  0.11882005026E+04 -0.33099464615E+03  0.12494978190E+04  0.00000000000E+00 0.  1.
         -4    1    3    3    0  502  0.88973451166E+02  0.32048740699E+03 -0.57855072326E+02  0.33760281759E+03  0.00000000000E+00 0. -1.
         11    1    5    5    0    0  0.12354245400E+01  0.21354939521E+01 -0.28805944452E+01  0.37926814487E+01  0.00000000000E+00 0. -1.
        -11    1    5    5    0    0 -0.68769736972E+02 -0.15800567593E+03  0.54771824623E+03  0.57418668358E+03  0.00000000000E+00 0.  1.
          1    1    6    6  503    0 -0.16542741668E+03 -0.97205908066E+03  0.82048417712E+03  0.12827546030E+04  0.00000000000E+00 0. -1.
         -1    1    6    6    0  503 -0.55678718322E+02 -0.38075864700E+03  0.39923879990E+03  0.55449877032E+03  0.00000000000E+00 0.  1.
<mgrwt>
<rscale>  0 0.15415506E+04</rscale>
<asrwt>0</asrwt>
<pdfrwt beam="1">  1        2 0.41369571E+00 0.15415506E+04</pdfrwt>
<pdfrwt beam="2">  1       -2 0.20204788E+00 0.15415506E+04</pdfrwt>
<totfact> 0.32531601E-01</totfact>
</mgrwt>
</event>
<event>
12    1  0.1335216E-007  0.6904395E+03  0.7818608E-02  0.9733723E-01
         -1   -1    0    0    0  501 -0.00000000000E+00  0.00000000000E+00  0.81431142184E+03  0.81431142184E+03  0.00000000000E+00 0.  1.
          1   -1    0    0  501    0  0.00000000000E+00 -0.00000000000E+00 -0.75533785153E+03  0.75533785153E+03  0.00000000000E+00 0. -1.
         23    2    1    2    0    0  0.12560421790E+03  0.61387088132E+03 -0.20071071412E+03  0.66402197235E+03  0.89590794779E+02 0.  0.
    5000000    2    1    2    0    0 -0.12560421790E+03 -0.61387088132E+03  0.25968428443E+03  0.90562730102E+03  0.60009249477E+03 0.  0.
         23    2    4    4    0    0 -0.21151549434E+03 -0.11671266697E+03  0.29412071602E+03  0.39140167254E+03  0.91255809095E+02 0.  0.
         23    2    4    4    0    0  0.85911276439E+02 -0.49715821435E+03 -0.34436431589E+02  0.51422562848E+03  0.93247475322E+02 0.  0.
          2    1    3    3  502    0  0.71272827701E+02  0.18649428827E+03 -0.36428506051E+02  0.20294573555E+03  0.00000000000E+00 0. -1.
         -2    1    3    3    0  502  0.54331390202E+02  0.42737659305E+03 -0.16428220807E+03  0.46107623680E+03  0.00000000000E+00 0.  1.
         11    1    5    5    0    0 -0.10144028038E+03 -0.81206899835E+02  0.94411463386E+02  0.16061822899E+03  0.00000000000E+00 0.  1.
        -11    1    5    5    0    0 -0.11007521396E+03 -0.35505767139E+02  0.19970925263E+03  0.23078344355E+03  0.00000000000E+00 0. -1.
          3    1    6    6  503    0  0.57373449512E+02 -0.37508735572E+03  0.14309454969E+02  0.37971963029E+03  0.00000000000E+00 0. -1.
         -3    1    6    6    0  503  0.28537826927E+02 -0.12207085863E+03 -0.48745886558E+02  0.13450599819E+03  0.00000000000E+00 0.  1.
<mgrwt>
<rscale>  0 0.69043950E+03</rscale>
<asrwt>0</asrwt>
<pdfrwt beam="1">  1        1 0.11620582E+00 0.69043950E+03</pdfrwt>
<pdfrwt beam="2">  1       -1 0.12527868E+00 0.69043950E+03</pdfrwt>
<totfact> 0.13979476E+01</totfact>
</mgrwt>
</event>
<event>
12    1  0.1335216E-007  0.1044749E+04  0.7818608E-02  0.9260782E-01
          2   -1    0    0  501    0  0.00000000000E+00  0.00000000000E+00  0.32854241494E+04  0.32854241494E+04  0.00000000000E+00 0. -1.
         -2   -1    0    0    0  501 -0.00000000000E+00 -0.00000000000E+00 -0.48404480163E+03  0.48404480163E+03  0.00000000000E+00 0.  1.
         23    2    1    2    0    0  0.90251814658E+03 -0.46506616087E+03  0.40162234477E+03  0.10956755308E+04  0.91535905720E+02 0.  0.
    5000000    2    1    2    0    0 -0.90251814658E+03  0.46506616087E+03  0.23997570030E+04  0.26737934203E+04  0.59959323033E+03 0.  0.
         23    2    4    4    0    0 -0.45705600136E+03  0.54540178131E+02  0.53867254664E+03  0.71431375642E+03  0.90560536087E+02 0.  0.
         23    2    4    4    0    0 -0.44546214521E+03  0.41052598274E+03  0.18610844564E+04  0.19594796638E+04  0.94641924853E+02 0.  0.
          4    1    3    3  502    0  0.30545479612E+03 -0.13288350557E+03  0.17185765288E+03  0.37482757553E+03  0.00000000000E+00 0. -1.
         -4    1    3    3    0  502  0.59706335045E+03 -0.33218265530E+03  0.22976469188E+03  0.72084795524E+03  0.00000000000E+00 0.  1.
         11    1    5    5    0    0 -0.10430068236E+03 -0.21168235267E+02  0.15092858964E+03  0.18467854692E+03  0.00000000000E+00 0. -1.
        -11    1    5    5    0    0 -0.35275531901E+03  0.75708413398E+02  0.38774395701E+03  0.52963520950E+03  0.00000000000E+00 0.  1.
          4    1    6    6  503    0 -0.32280847688E+03  0.28929567122E+03  0.11865596496E+04  0.12632581288E+04  0.00000000000E+00 0.  1.
         -4    1    6    6    0  503 -0.12265366833E+03  0.12123031152E+03  0.67452480682E+03  0.69622153500E+03  0.00000000000E+00 0. -1.
<mgrwt>
<rscale>  0 0.10447493E+04</rscale>
<asrwt>0</asrwt>
<pdfrwt beam="1">  1        2 0.50544986E+00 0.10447493E+04</pdfrwt>
<pdfrwt beam="2">  1       -2 0.74468433E-01 0.10447493E+04</pdfrwt>
<totfact> 0.18883704E+00</totfact>
</mgrwt>
</event>
<event>
12    1  0.1335216E-007  0.9008070E+03  0.7818608E-02  0.9424573E-01
         -2   -1    0    0    0  501 -0.00000000000E+00  0.00000000000E+00  0.94391021353E+03  0.94391021353E+03  0.00000000000E+00 0.  1.
          2   -1    0    0  501    0  0.00000000000E+00 -0.00000000000E+00 -0.15679700876E+04  0.15679700876E+04  0.00000000000E+00 0. -1.
         23    2    1    2    0    0  0.40550351638E+03  0.72405206804E+03  0.51426680542E+03  0.98058227906E+03  0.91579254303E+02 0.  0.
    5000000    2    1    2    0    0 -0.40550351638E+03 -0.72405206804E+03 -0.11383266795E+04  0.15312980221E+04  0.60033449355E+03 0.  0.
         23    2    4    4    0    0 -0.11079642913E+03 -0.65903369548E+03 -0.57827770111E+03  0.88859870971E+03  0.92743230563E+02 0.  0.
         23    2    4    4    0    0 -0.29470708725E+03 -0.65018372561E+02 -0.56004897837E+03  0.64269931235E+03  0.91257283988E+02 0.  0.
          4    1    3    3  502    0  0.17011383118E+03  0.27092870146E+03  0.24755724249E+03  0.40450669357E+03  0.00000000000E+00 0. -1.
         -4    1    3    3    0  502  0.23538968520E+03  0.45312336658E+03  0.26670956293E+03  0.57607558549E+03  0.00000000000E+00 0.  1.
         11    1    5    5    0    0 -0.43257325685E+02 -0.27424402116E+03 -0.30125127855E+03  0.40967464187E+03  0.00000000000E+00 0.  1.
        -11    1    5    5    0    0 -0.67539103444E+02 -0.38478967432E+03 -0.27702642256E+03  0.47892406784E+03  0.00000000000E+00 0. -1.
          3    1    6    6  503    0 -0.13319946154E+03 -0.41869196681E+02 -0.17059267239E+03  0.22044724099E+03  0.00000000000E+00 0. -1.
         -3    1    6    6    0  503 -0.16150762571E+03 -0.23149175879E+02 -0.38945630598E+03  0.42225207137E+03  0.00000000000E+00 0.  1.
<mgrwt>
<rscale>  0 0.90080704E+03</rscale>
<asrwt>0</asrwt>
<pdfrwt beam="1">  1        2 0.24122617E+00 0.90080704E+03</pdfrwt>
<pdfrwt beam="2">  1       -2 0.14521696E+00 0.90080704E+03</pdfrwt>
<totfact> 0.38147742E+00</totfact>
</mgrwt>
</event>
<event>
12    1  0.1335216E-007  0.3333864E+03  0.7818608E-02  0.1069648E+00
          2   -1    0    0  501    0  0.00000000000E+00  0.00000000000E+00  0.14892790928E+04  0.14892790928E+04  0.00000000000E+00 0. -1.
         -2   -1    0    0    0  501 -0.00000000000E+00 -0.00000000000E+00 -0.14563800122E+03  0.14563800122E+03  0.00000000000E+00 0.  1.
         23    2    1    2    0    0  0.66787483075E+02  0.16005649570E+03  0.49593936325E+02  0.19804627951E+03  0.81756471270E+02 0.  0.
    5000000    2    1    2    0    0 -0.66787483075E+02 -0.16005649570E+03  0.12940471553E+04  0.14368708145E+04  0.59996753900E+03 0.  0.
         23    2    4    4    0    0  0.62388871051E+02 -0.28277932631E+03  0.11512477359E+04  0.11912387735E+04  0.99105738124E+02 0.  0.
         23    2    4    4    0    0 -0.12917635413E+03  0.12272283060E+03  0.14279941933E+03  0.24563204104E+03  0.90531772365E+02 0.  0.
          1    1    3    3  502    0  0.56306266660E+02  0.71306266933E+02 -0.88166077051E+01  0.91283689346E+02  0.00000000000E+00 0. -1.
         -1    1    3    3    0  502  0.10481216415E+02  0.88750228771E+02  0.58410544030E+02  0.10676259016E+03  0.00000000000E+00 0.  1.
         11    1    5    5    0    0 -0.41308807937E+00 -0.15011698403E+03  0.72645456742E+03  0.74180288356E+03  0.00000000000E+00 0. -1.
        -11    1    5    5    0    0  0.62801959130E+02 -0.13266234228E+03  0.42479316852E+03  0.44943588992E+03  0.00000000000E+00 0.  1.
          4    1    6    6  503    0 -0.25159571087E+02  0.67181437137E+02  0.93437612525E+02  0.11780041149E+03  0.00000000000E+00 0.  1.
         -4    1    6    6    0  503 -0.10401678304E+03  0.55541393465E+02  0.49361806806E+02  0.12783162955E+03  0.00000000000E+00 0. -1.
<mgrwt>
<rscale>  0 0.33338641E+03</rscale>
<asrwt>0</asrwt>
<pdfrwt beam="1">  1        2 0.22911985E+00 0.33338641E+03</pdfrwt>
<pdfrwt beam="2">  1       -2 0.22405847E-01 0.33338641E+03</pdfrwt>
<totfact> 0.23786520E+02</totfact>
</mgrwt>
</event>
<event>
12    1  0.1335216E-007  0.1092985E+04  0.7818608E-02  0.9212056E-01
          2   -1    0    0  501    0  0.00000000000E+00  0.00000000000E+00  0.22258884482E+04  0.22258884482E+04  0.00000000000E+00 0. -1.
         -2   -1    0    0    0  501 -0.00000000000E+00 -0.00000000000E+00 -0.58589820093E+03  0.58589820093E+03  0.00000000000E+00 0.  1.
         23    2    1    2    0    0 -0.20955144956E+01 -0.10513876007E+04  0.58846383829E+03  0.12084494726E+04  0.92952465209E+02 0.  0.
    5000000    2    1    2    0    0  0.20955144956E+01  0.10513876007E+04  0.10515264089E+04  0.16033371765E+04  0.59963491800E+03 0.  0.
         23    2    4    4    0    0  0.20387702320E+03  0.36703776567E+03  0.65269611682E+03  0.78158352926E+03  0.92617656456E+02 0.  0.
         23    2    4    4    0    0 -0.20178150871E+03  0.68434983500E+03  0.39883029211E+03  0.82175364725E+03  0.84634395715E+02 0.  0.
          1    1    3    3  502    0  0.22315149696E+02 -0.29162409854E+03  0.20405108535E+03  0.35662224579E+03  0.00000000000E+00 0. -1.
         -1    1    3    3    0  502 -0.24410664191E+02 -0.75976350212E+03  0.38441275294E+03  0.85182722680E+03  0.00000000000E+00 0.  1.
         11    1    5    5    0    0  0.57616805495E+02  0.10415450362E+03  0.26787855858E+03  0.29313269870E+03  0.00000000000E+00 0. -1.
        -11    1    5    5    0    0  0.14626021771E+03  0.26288326205E+03  0.38481755823E+03  0.48845083056E+03  0.00000000000E+00 0.  1.
          1    1    6    6  503    0 -0.14463473014E+03  0.49193187177E+03  0.32901120088E+03  0.60923274857E+03  0.00000000000E+00 0. -1.
         -1    1    6    6    0  503 -0.57146778563E+02  0.19241796323E+03  0.69819091232E+02  0.21252089868E+03  0.00000000000E+00 0.  1.
<mgrwt>
<rscale>  0 0.10929854E+04</rscale>
<asrwt>0</asrwt>
<pdfrwt beam="1">  1        2 0.34244437E+00 0.10929854E+04</pdfrwt>
<pdfrwt beam="2">  1       -2 0.90138186E-01 0.10929854E+04</pdfrwt>
<totfact> 0.52239127E+00</totfact>
</mgrwt>
</event>
<event>
12    1  0.1335216E-007  0.5897771E+03  0.7818608E-02  0.9926845E-01
         -1   -1    0    0    0  501 -0.00000000000E+00  0.00000000000E+00  0.11923814582E+04  0.11923814582E+04  0.00000000000E+00 0.  1.
          1   -1    0    0  501    0  0.00000000000E+00 -0.00000000000E+00 -0.39993812507E+03  0.39993812507E+03  0.00000000000E+00 0. -1.
         23    2    1    2    0    0 -0.13184474964E+03  0.53825136585E+03  0.36053488803E+03  0.66749687380E+03  0.92027714305E+02 0.  0.
    5000000    2    1    2    0    0  0.13184474964E+03 -0.53825136585E+03  0.43190844511E+03  0.92482270949E+03  0.60137722619E+03 0.  0.
         23    2    4    4    0    0 -0.76693835758E+01 -0.42147617101E+03 -0.17136339968E+02  0.43208547868E+03  0.93291074405E+02 0.  0.
         23    2    4    4    0    0  0.13951413321E+03 -0.11677519484E+03  0.44904478508E+03  0.49273723081E+03  0.89711315472E+02 0.  0.
          1    1    3    3  502    0 -0.61945881234E+02  0.11894865152E+03  0.60134780213E+02  0.14697709241E+03  0.00000000000E+00 0. -1.
         -1    1    3    3    0  502 -0.69898868405E+02  0.41930271433E+03  0.30040010782E+03  0.52051978139E+03  0.00000000000E+00 0.  1.
         13    1    5    5    0    0  0.23284648770E+02 -0.18924850817E+03 -0.45681534950E+02  0.19607135270E+03  0.00000000000E+00 0. -1.
        -13    1    5    5    0    0 -0.30954032345E+02 -0.23222766283E+03  0.28545194981E+02  0.23601412598E+03  0.00000000000E+00 0.  1.
          3    1    6    6  503    0  0.14493803536E+03 -0.95815503330E+02  0.34289002857E+03  0.38439721184E+03  0.00000000000E+00 0. -1.
         -3    1    6    6    0  503 -0.54239021446E+01 -0.20959691515E+02  0.10615475651E+03  0.10834001898E+03  0.00000000000E+00 0.  1.
<mgrwt>
<rscale>  0 0.58977713E+03</rscale>
<asrwt>0</asrwt>
<pdfrwt beam="1">  1        1 0.61528943E-01 0.58977713E+03</pdfrwt>
<pdfrwt beam="2">  1       -1 0.18344330E+00 0.58977713E+03</pdfrwt>
<totfact> 0.12407369E+01</totfact>
</mgrwt>
</event>
<event>
12    1  0.1335216E-007  0.1461335E+04  0.7818608E-02  0.8910580E-01
         -1   -1    0    0    0  501 -0.00000000000E+00  0.00000000000E+00  0.15464694771E+04  0.15464694771E+04  0.00000000000E+00 0.  1.
          1   -1    0    0  501    0  0.00000000000E+00 -0.00000000000E+00 -0.15427096961E+04  0.15427096961E+04  0.00000000000E+00 0. -1.
         23    2    1    2    0    0  0.53603373213E+03  0.13329199842E+04 -0.37415999215E+03  0.14870351024E+04  0.85263414445E+02 0.  0.
    5000000    2    1    2    0    0 -0.53603373213E+03 -0.13329199842E+04  0.37791977319E+03  0.16021440708E+04  0.60002868466E+03 0.  0.
         23    2    4    4    0    0 -0.53365105341E+03 -0.92244548851E+03  0.54697947306E+02  0.10717724764E+04  0.10007621928E+03 0.  0.
         23    2    4    4    0    0 -0.23826787258E+01 -0.41047449568E+03  0.32322182588E+03  0.53037159440E+03  0.91250702240E+02 0.  0.
          2    1    3    3  502    0  0.17717126649E+03  0.50710192497E+03 -0.17394925442E+03  0.56462409008E+03  0.00000000000E+00 0. -1.
         -2    1    3    3    0  502  0.35886246564E+03  0.82581805921E+03 -0.20021073773E+03  0.92241101233E+03  0.00000000000E+00 0.  1.
         11    1    5    5    0    0 -0.16546214086E+03 -0.34249607285E+03 -0.19212694869E+02  0.38085483799E+03  0.00000000000E+00 0.  1.
        -11    1    5    5    0    0 -0.36818891255E+03 -0.57994941566E+03  0.73910642175E+02  0.69091763842E+03  0.00000000000E+00 0. -1.
          2    1    6    6  503    0 -0.35242788978E+02 -0.11020213197E+03  0.11752700845E+03  0.16492168378E+03  0.00000000000E+00 0. -1.
         -2    1    6    6    0  503  0.32860110252E+02 -0.30027236371E+03  0.20569481743E+03  0.36544991062E+03  0.00000000000E+00 0.  1.
<mgrwt>
<rscale>  0 0.14613351E+04</rscale>
<asrwt>0</asrwt>
<pdfrwt beam="1">  1        1 0.23733995E+00 0.14613351E+04</pdfrwt>
<pdfrwt beam="2">  1       -1 0.23791838E+00 0.14613351E+04</pdfrwt>
<totfact> 0.48564362E-01</totfact>
</mgrwt>
</event>
<event>
12    1  0.1335216E-007  0.5926315E+03  0.7818608E-02  0.9920812E-01
         -2   -1    0    0    0  501 -0.00000000000E+00  0.00000000000E+00  0.30529121795E+03  0.30529121795E+03  0.00000000000E+00 0.  1.
          2   -1    0    0  501    0  0.00000000000E+00 -0.00000000000E+00 -0.13839729434E+04  0.13839729434E+04  0.00000000000E+00 0. -1.
         23    2    1    2    0    0 -0.48065322607E+03  0.97245100656E+02 -0.59227814440E+03  0.77432897860E+03  0.91147317215E+02 0.  0.
    5000000    2    1    2    0    0  0.48065322607E+03 -0.97245100656E+02 -0.48640358104E+03  0.91493518273E+03  0.60002817569E+03 0.  0.
         23    2    4    4    0    0  0.44612488472E+03 -0.25655320981E+03 -0.50451578531E+03  0.72621805629E+03  0.89495952028E+02 0.  0.
         23    2    4    4    0    0  0.34528341352E+02  0.15930810915E+03  0.18112204269E+02  0.18871712645E+03  0.93353210294E+02 0.  0.
          4    1    3    3  502    0 -0.18698578808E+03  0.76865007872E+02 -0.27773122928E+03  0.34352081465E+03  0.00000000000E+00 0. -1.
         -4    1    3    3    0  502 -0.29366743799E+03  0.20380092785E+02 -0.31454691512E+03  0.43080816396E+03  0.00000000000E+00 0.  1.
         13    1    5    5    0    0  0.28249945964E+03 -0.12201521608E+03 -0.33521869145E+03  0.45504420527E+03  0.00000000000E+00 0. -1.
        -13    1    5    5    0    0  0.16362542507E+03 -0.13453799373E+03 -0.16929709386E+03  0.27117385102E+03  0.00000000000E+00 0.  1.
          4    1    6    6  503    0  0.42145634077E+02  0.89340542009E+02  0.50841374668E+02  0.11109830015E+03  0.00000000000E+00 0.  1.
         -4    1    6    6    0  503 -0.76172927246E+01  0.69967567143E+02 -0.32729170399E+02  0.77618826295E+02  0.00000000000E+00 0. -1.
<mgrwt>
<rscale>  0 0.59263146E+03</rscale>
<asrwt>0</asrwt>
<pdfrwt beam="1">  1        2 0.21291891E+00 0.59263146E+03</pdfrwt>
<pdfrwt beam="2">  1       -2 0.46967880E-01 0.59263146E+03</pdfrwt>
<totfact> 0.65824300E+01</totfact>
</mgrwt>
</event>
<event>
12    1  0.1335216E-007  0.2860725E+04  0.7818608E-02  0.8284660E-01
         -2   -1    0    0    0  501 -0.00000000000E+00  0.00000000000E+00  0.24885131435E+04  0.24885131435E+04  0.00000000000E+00 0.  1.
          2   -1    0    0  501    0  0.00000000000E+00 -0.00000000000E+00 -0.38133748252E+04  0.38133748252E+04  0.00000000000E+00 0. -1.
         23    2    1    2    0    0  0.28315046338E+04 -0.52387228724E+02  0.50379925672E+03  0.28778597123E+04  0.89999552988E+02 0.  0.
    5000000    2    1    2    0    0 -0.28315046338E+04  0.52387228724E+02 -0.18286609384E+04  0.34240282564E+04  0.59983811163E+03 0.  0.
         23    2    4    4    0    0 -0.39229149953E+03  0.19799281110E+03 -0.29823695432E+03  0.53922492755E+03  0.93404859198E+02 0.  0.
         23    2    4    4    0    0 -0.24392131343E+04 -0.14560558238E+03 -0.15304239841E+04  0.28848033289E+04  0.94503836744E+02 0.  0.
          1    1    3    3  502    0  0.21085363496E+03 -0.18136077619E+02  0.56992203220E+02  0.21917181369E+03  0.00000000000E+00 0. -1.
         -1    1    3    3    0  502  0.26206509988E+04 -0.34251151105E+02  0.44680705350E+03  0.26586878986E+04  0.00000000000E+00 0.  1.
         11    1    5    5    0    0 -0.11543016805E+03  0.96555814886E+02 -0.68072426555E+02  0.16516962293E+03  0.00000000000E+00 0. -1.
        -11    1    5    5    0    0 -0.27686133148E+03  0.10143699622E+03 -0.23016452776E+03  0.37405530462E+03  0.00000000000E+00 0.  1.
          4    1    6    6  503    0 -0.15830858752E+04 -0.10119616088E+03 -0.10457973752E+04  0.19000246581E+04  0.00000000000E+00 0. -1.
         -4    1    6    6    0  503 -0.85612725911E+03 -0.44409421497E+02 -0.48462660883E+03  0.98477867082E+03  0.00000000000E+00 0.  1.
<mgrwt>
<rscale>  0 0.28607253E+04</rscale>
<asrwt>0</asrwt>
<pdfrwt beam="1">  1        2 0.58667305E+00 0.28607253E+04</pdfrwt>
<pdfrwt beam="2">  1       -2 0.38284818E+00 0.28607253E+04</pdfrwt>
<totfact> 0.36970450E-03</totfact>
</mgrwt>
</event>
<event>
12    1  0.1335216E-007  0.1455020E+04  0.7818608E-02  0.8914928E-01
          1   -1    0    0  501    0  0.00000000000E+00  0.00000000000E+00  0.11022017981E+04  0.11022017981E+04  0.00000000000E+00 0. -1.
         -1   -1    0    0    0  501 -0.00000000000E+00 -0.00000000000E+00 -0.19998039336E+04  0.19998039336E+04  0.00000000000E+00 0.  1.
         23    2    1    2    0    0  0.14110987738E+04  0.17017888114E+03 -0.48845164699E+03  0.15058965380E+04  0.94756374453E+02 0.  0.
    5000000    2    1    2    0    0 -0.14110987738E+04 -0.17017888114E+03 -0.40915048855E+03  0.15961091938E+04  0.59999986262E+03 0.  0.
         23    2    4    4    0    0 -0.65620509997E+03 -0.29394249378E+03 -0.26178127627E+01  0.72511605968E+03  0.93696980668E+02 0.  0.
         23    2    4    4    0    0 -0.75489367386E+03  0.12376361264E+03 -0.40653267579E+03  0.87099313411E+03  0.90434133717E+02 0.  0.
          4    1    3    3  502    0  0.13568136291E+04  0.15394189902E+03 -0.45139269660E+03  0.14381921635E+04  0.00000000000E+00 0.  1.
         -4    1    3    3    0  502  0.54285144683E+02  0.16236982117E+02 -0.37058950385E+02  0.67704374491E+02  0.00000000000E+00 0. -1.
         13    1    5    5    0    0 -0.63331954346E+03 -0.28395299023E+03 -0.20561009257E+02  0.69436712184E+03  0.00000000000E+00 0. -1.
        -13    1    5    5    0    0 -0.22885556508E+02 -0.99895035504E+01  0.17943196494E+02  0.30748937840E+02  0.00000000000E+00 0.  1.
          3    1    6    6  503    0 -0.67123736889E+03  0.13420142957E+03 -0.34447986001E+03  0.76631325387E+03  0.00000000000E+00 0. -1.
         -3    1    6    6    0  503 -0.83656304965E+02 -0.10437816926E+02 -0.62052815775E+02  0.10467988025E+03  0.00000000000E+00 0.  1.
<mgrwt>
<rscale>  0 0.14550200E+04</rscale>
<asrwt>0</asrwt>
<pdfrwt beam="1">  1        1 0.16956951E+00 0.14550200E+04</pdfrwt>
<pdfrwt beam="2">  1       -1 0.30766214E+00 0.14550200E+04</pdfrwt>
<totfact> 0.35516296E-01</totfact>
</mgrwt>
</event>
<event>
12    1  0.1335216E-007  0.8917711E+03  0.7818608E-02  0.9435927E-01
         -2   -1    0    0    0  501 -0.00000000000E+00  0.00000000000E+00  0.38181882273E+03  0.38181882273E+03  0.00000000000E+00 0.  1.
          2   -1    0    0  501    0  0.00000000000E+00 -0.00000000000E+00 -0.36389385706E+04  0.36389385706E+04  0.00000000000E+00 0. -1.
         23    2    1    2    0    0  0.18038939631E+03 -0.80140312060E+03 -0.27458343687E+03  0.86948783055E+03  0.76326454470E+02 0.  0.
    5000000    2    1    2    0    0 -0.18038939631E+03  0.80140312060E+03 -0.29825363109E+04  0.31512695627E+04  0.60015807496E+03 0.  0.
         23    2    4    4    0    0  0.16118444315E+03  0.15046989741E+03 -0.41511264738E+03  0.47907272923E+03  0.92577292739E+02 0.  0.
         23    2    4    4    0    0 -0.34157383946E+03  0.65093322319E+03 -0.25674236636E+04  0.26721968335E+04  0.92654735290E+02 0.  0.
          3    1    3    3  502    0  0.65113784320E+02 -0.23262458628E+03 -0.46879202263E+02  0.24607247440E+03  0.00000000000E+00 0. -1.
         -3    1    3    3    0  502  0.11527561199E+03 -0.56877853432E+03 -0.22770423461E+03  0.62341535615E+03  0.00000000000E+00 0.  1.
         11    1    5    5    0    0  0.63908586020E+02  0.93054628507E+02 -0.12871451085E+03  0.17120425391E+03  0.00000000000E+00 0. -1.
        -11    1    5    5    0    0  0.97275857128E+02  0.57415268906E+02 -0.28639813654E+03  0.30786847532E+03  0.00000000000E+00 0.  1.
          3    1    6    6  503    0 -0.20050753811E+03  0.41504578789E+03 -0.14518902019E+04  0.15233028055E+04  0.00000000000E+00 0. -1.
         -3    1    6    6    0  503 -0.14106630134E+03  0.23588743530E+03 -0.11155334617E+04  0.11488940280E+04  0.00000000000E+00 0.  1.
<mgrwt>
<rscale>  0 0.89177112E+03</rscale>
<asrwt>0</asrwt>
<pdfrwt beam="1">  1        2 0.55983671E+00 0.89177112E+03</pdfrwt>
<pdfrwt beam="2">  1       -2 0.58741357E-01 0.89177112E+03</pdfrwt>
<totfact> 0.18606370E+00</totfact>
</mgrwt>
</event>
<event>
12    1  0.1335216E-007  0.1252789E+04  0.7818608E-02  0.9067865E-01
         -2   -1    0    0    0  501 -0.00000000000E+00  0.00000000000E+00  0.12884581752E+04  0.12884581752E+04  0.00000000000E+00 0.  1.
          2   -1    0    0  501    0  0.00000000000E+00 -0.00000000000E+00 -0.13074742968E+04  0.13074742968E+04  0.00000000000E+00 0. -1.
         23    2    1    2    0    0  0.93520636262E+03  0.72856852932E+03 -0.32470647566E+03  0.12325726305E+04  0.91531150790E+02 0.  0.
    5000000    2    1    2    0    0 -0.93520636262E+03 -0.72856852932E+03  0.30569035408E+03  0.13633598416E+04  0.59990034373E+03 0.  0.
         23    2    4    4    0    0 -0.27199601624E+03  0.55519555779E+02  0.11939724526E+03  0.31533353201E+03  0.90084850592E+02 0.  0.
         23    2    4    4    0    0 -0.66321034637E+03 -0.78408808510E+03  0.18629310882E+03  0.10480263096E+04  0.94931208714E+02 0.  0.
          4    1    3    3  502    0  0.22955498175E+03  0.19435700441E+03 -0.43472955351E+02  0.30390793451E+03  0.00000000000E+00 0. -1.
         -4    1    3    3    0  502  0.70565138086E+03  0.53421152491E+03 -0.28123352031E+03  0.92866469600E+03  0.00000000000E+00 0.  1.
         11    1    5    5    0    0 -0.23304387026E+03  0.16541154534E+02  0.11401438433E+03  0.25996602681E+03  0.00000000000E+00 0.  1.
        -11    1    5    5    0    0 -0.38952145986E+02  0.38978401245E+02  0.53828609275E+01  0.55367505202E+02  0.00000000000E+00 0. -1.
          3    1    6    6  503    0 -0.39878421355E+03 -0.53881644487E+03  0.13381889896E+03  0.68356382874E+03  0.00000000000E+00 0. -1.
         -3    1    6    6    0  503 -0.26442613283E+03 -0.24527164023E+03  0.52474209853E+02  0.36446248082E+03  0.00000000000E+00 0.  1.
<mgrwt>
<rscale>  0 0.12527886E+04</rscale>
<asrwt>0</asrwt>
<pdfrwt beam="1">  1        2 0.20114989E+00 0.12527886E+04</pdfrwt>
<pdfrwt beam="2">  1       -2 0.19822434E+00 0.12527886E+04</pdfrwt>
<totfact> 0.21588371E+00</totfact>
</mgrwt>
</event>
<event>
12    1  0.1335216E-007  0.6190926E+03  0.7818608E-02  0.9866568E-01
          2   -1    0    0  501    0  0.00000000000E+00  0.00000000000E+00  0.11986173927E+04  0.11986173927E+04  0.00000000000E+00 0. -1.
         -2   -1    0    0    0  501 -0.00000000000E+00 -0.00000000000E+00 -0.45462242587E+03  0.45462242587E+03  0.00000000000E+00 0.  1.
         23    2    1    2    0    0 -0.60027774870E+03  0.48167862840E+02  0.18410651318E+03  0.63528808855E+03  0.83917987750E+02 0.  0.
    5000000    2    1    2    0    0  0.60027774870E+03 -0.48167862840E+02  0.55988845367E+03  0.10179517300E+04  0.60008093249E+03 0.  0.
         23    2    4    4    0    0  0.19260226973E+03 -0.80795823404E+02  0.55423674820E+03  0.59879670420E+03  0.88065433139E+02 0.  0.
         23    2    4    4    0    0  0.40767547897E+03  0.32627960564E+02  0.56517054720E+01  0.41915502585E+03  0.91624854449E+02 0.  0.
          4    1    3    3  502    0 -0.55557138017E+03  0.65559464055E+02  0.16158911931E+03  0.58229601173E+03  0.00000000000E+00 0.  1.
         -4    1    3    3    0  502 -0.44706368528E+02 -0.17391601214E+02  0.22517393869E+02  0.52992076826E+02  0.00000000000E+00 0. -1.
         11    1    5    5    0    0  0.70513840638E+02 -0.35680916750E+01  0.28084104630E+03  0.28958008613E+03  0.00000000000E+00 0. -1.
        -11    1    5    5    0    0  0.12208842909E+03 -0.77227731729E+02  0.27339570191E+03  0.30921661806E+03  0.00000000000E+00 0.  1.
          4    1    6    6  503    0  0.28362515180E+03  0.57008898939E+02  0.28446002547E+02  0.29069299330E+03  0.00000000000E+00 0. -1.
         -4    1    6    6    0  503  0.12405032717E+03 -0.24380938375E+02 -0.22794297075E+02  0.12846203254E+03  0.00000000000E+00 0.  1.
<mgrwt>
<rscale>  0 0.61909258E+03</rscale>
<asrwt>0</asrwt>
<pdfrwt beam="1">  1        2 0.18440267E+00 0.61909258E+03</pdfrwt>
<pdfrwt beam="2">  1       -2 0.69941912E-01 0.61909258E+03</pdfrwt>
<totfact> 0.36515312E+01</totfact>
</mgrwt>
</event>
<event>
12    1  0.1335216E-007  0.5075752E+03  0.7818608E-02  0.1011820E+00
         -2   -1    0    0    0  501 -0.00000000000E+00  0.00000000000E+00  0.86309152209E+02  0.86309152209E+02  0.00000000000E+00 0. -1.
          2   -1    0    0  501    0  0.00000000000E+00 -0.00000000000E+00 -0.34719612567E+04  0.34719612567E+04  0.00000000000E+00 0.  1.
         23    2    1    2    0    0 -0.31441974834E+03 -0.20178022806E+03 -0.10763325665E+04  0.11432109613E+04  0.94151313041E+02 0.  0.
    5000000    2    1    2    0    0  0.31441974834E+03  0.20178022806E+03 -0.23093195380E+04  0.24150594476E+04  0.59998364005E+03 0.  0.
         23    2    4    4    0    0  0.42861365082E+03  0.64214926185E+02 -0.10445727876E+04  0.11343733644E+04  0.88529107264E+02 0.  0.
         23    2    4    4    0    0 -0.11419390247E+03  0.13756530188E+03 -0.12647467504E+04  0.12806860832E+04  0.92779531542E+02 0.  0.
          3    1    3    3  502    0 -0.27123291732E+03 -0.19084944838E+03 -0.10120157765E+04  0.10649726472E+04  0.00000000000E+00 0. -1.
         -3    1    3    3    0  502 -0.43186831020E+02 -0.10930779681E+02 -0.64316789973E+02  0.78238314083E+02  0.00000000000E+00 0.  1.
         11    1    5    5    0    0  0.28901791773E+03  0.73004307097E+02 -0.63291115450E+03  0.69959810972E+03  0.00000000000E+00 0. -1.
        -11    1    5    5    0    0  0.13959573309E+03 -0.87893809114E+01 -0.41166163312E+03  0.43477525470E+03  0.00000000000E+00 0.  1.
          4    1    6    6  503    0 -0.10645598174E+03  0.15143138535E+03 -0.11395314562E+04  0.11544679641E+04  0.00000000000E+00 0. -1.
         -4    1    6    6    0  503 -0.77379207394E+01 -0.13866083467E+02 -0.12521529416E+03  0.12621811906E+03  0.00000000000E+00 0.  1.
<mgrwt>
<rscale>  0 0.50757519E+03</rscale>
<asrwt>0</asrwt>
<pdfrwt beam="1">  1        2 0.53414787E+00 0.50757519E+03</pdfrwt>
<pdfrwt beam="2">  1       -2 0.13278332E-01 0.50757519E+03</pdfrwt>
<totfact> 0.41202684E+01</totfact>
</mgrwt>
</event>
<event>
12    1  0.1335216E-007  0.3638290E+03  0.7818608E-02  0.1057078E+00
          1   -1    0    0  501    0  0.00000000000E+00  0.00000000000E+00  0.23641323197E+03  0.23641323197E+03  0.00000000000E+00 0. -1.
         -1   -1    0    0    0  501 -0.00000000000E+00 -0.00000000000E+00 -0.83072556974E+03  0.83072556974E+03  0.00000000000E+00 0.  1.
         23    2    1    2    0    0 -0.21246294373E+03  0.57646839420E+02 -0.92310507623E+02  0.25442944658E+03  0.88030977036E+02 0.  0.
    5000000    2    1    2    0    0  0.21246294373E+03 -0.57646839420E+02 -0.50200183015E+03  0.81270935512E+03  0.60002249781E+03 0.  0.
         23    2    4    4    0    0  0.34111397356E+03 -0.55711593288E+02 -0.54258712762E+03  0.65021936582E+03  0.94455852350E+02 0.  0.
         23    2    4    4    0    0 -0.12865102983E+03 -0.19352461312E+01  0.40585297476E+02  0.16248998930E+03  0.90559359521E+02 0.  0.
          1    1    3    3  502    0 -0.14897429119E+03  0.46530845666E+02 -0.19654888646E+02  0.15730471602E+03  0.00000000000E+00 0. -1.
         -1    1    3    3    0  502 -0.63488652539E+02  0.11115993754E+02 -0.72655618977E+02  0.97124730565E+02  0.00000000000E+00 0.  1.
         11    1    5    5    0    0  0.16151587231E+03 -0.67410186120E+02 -0.31165983223E+03  0.35744001067E+03  0.00000000000E+00 0.  1.
        -11    1    5    5    0    0  0.17959810125E+03  0.11698592831E+02 -0.23092729539E+03  0.29277935515E+03  0.00000000000E+00 0. -1.
          1    1    6    6  503    0 -0.39536255154E+02 -0.39077266814E+02  0.35196155477E+02  0.65794510512E+02  0.00000000000E+00 0. -1.
         -1    1    6    6    0  503 -0.89114774679E+02  0.37142020682E+02  0.53891419989E+01  0.96695478788E+02  0.00000000000E+00 0.  1.
<mgrwt>
<rscale>  0 0.36382900E+03</rscale>
<asrwt>0</asrwt>
<pdfrwt beam="1">  1        1 0.36371266E-01 0.36382900E+03</pdfrwt>
<pdfrwt beam="2">  1       -1 0.12780393E+00 0.36382900E+03</pdfrwt>
<totfact> 0.66929830E+01</totfact>
</mgrwt>
</event>
<event>
12    1  0.1335216E-007  0.8563043E+03  0.7818608E-02  0.9481914E-01
         -2   -1    0    0    0  501 -0.00000000000E+00  0.00000000000E+00  0.37541074960E+03  0.37541074960E+03  0.00000000000E+00 0.  1.
          2   -1    0    0  501    0  0.00000000000E+00 -0.00000000000E+00 -0.24279900315E+04  0.24279900315E+04  0.00000000000E+00 0. -1.
         23    2    1    2    0    0  0.51343251182E+03  0.64132762638E+03 -0.12891475041E+04  0.15315052827E+04  0.93236661368E+02 0.  0.
    5000000    2    1    2    0    0 -0.51343251182E+03 -0.64132762638E+03 -0.76343177785E+03  0.12718954985E+04  0.59998000885E+03 0.  0.
         23    2    4    4    0    0 -0.43670926106E+03 -0.62527559794E+03 -0.83349540479E+03  0.11333148374E+04  0.89461605513E+02 0.  0.
         23    2    4    4    0    0 -0.76723250761E+02 -0.16052028441E+02  0.70063626945E+02  0.13858066103E+03  0.90286006478E+02 0.  0.
          3    1    3    3  502    0  0.14882645208E+03  0.25400935206E+03 -0.43465797838E+03  0.52497392501E+03  0.00000000000E+00 0. -1.
         -3    1    3    3    0  502  0.36460605974E+03  0.38731827432E+03 -0.85448952572E+03  0.10065313577E+04  0.00000000000E+00 0.  1.
         11    1    5    5    0    0 -0.15439006507E+03 -0.15102380912E+03 -0.23122772677E+03  0.31640282037E+03  0.00000000000E+00 0. -1.
        -11    1    5    5    0    0 -0.28231919599E+03 -0.47425178882E+03 -0.60226767803E+03  0.81691201706E+03  0.00000000000E+00 0.  1.
          1    1    6    6  503    0 -0.96435166129E+02 -0.19454387838E+02  0.50424274981E+02  0.11054782666E+03  0.00000000000E+00 0. -1.
         -1    1    6    6    0  503  0.19711915368E+02  0.34023593970E+01  0.19639351964E+02  0.28032834365E+02  0.00000000000E+00 0.  1.
<mgrwt>
<rscale>  0 0.85630432E+03</rscale>
<asrwt>0</asrwt>
<pdfrwt beam="1">  1        2 0.37353693E+00 0.85630432E+03</pdfrwt>
<pdfrwt beam="2">  1       -2 0.57755499E-01 0.85630432E+03</pdfrwt>
<totfact> 0.11070320E+01</totfact>
</mgrwt>
</event>
<event>
12    1  0.1335216E-007  0.2471230E+03  0.7818608E-02  0.1115137E+00
         -2   -1    0    0    0  501 -0.00000000000E+00  0.00000000000E+00  0.25626322337E+03  0.25626322337E+03  0.00000000000E+00 0.  1.
          2   -1    0    0  501    0  0.00000000000E+00 -0.00000000000E+00 -0.66011781926E+03  0.66011781926E+03  0.00000000000E+00 0. -1.
         23    2    1    2    0    0  0.25141623766E+02 -0.17418713006E+03 -0.10690708980E+03  0.22415291847E+03  0.88555900336E+02 0.  0.
    5000000    2    1    2    0    0 -0.25141623766E+02  0.17418713006E+03 -0.29694750609E+03  0.69222812416E+03  0.60002391368E+03 0.  0.
         23    2    4    4    0    0 -0.67013181929E+02  0.16933208382E+03  0.13832612310E+03  0.24596195889E+03  0.90548593185E+02 0.  0.
         23    2    4    4    0    0  0.41871558163E+02  0.48550462458E+01 -0.43527362919E+03  0.44626616527E+03  0.88958187595E+02 0.  0.
          2    1    3    3  502    0  0.37149818252E+01 -0.17502076472E+03 -0.10008557593E+03  0.20165116336E+03  0.00000000000E+00 0. -1.
         -2    1    3    3    0  502  0.21426641941E+02  0.83363466118E+00 -0.68215138650E+01  0.22501755110E+02  0.00000000000E+00 0.  1.
         13    1    5    5    0    0  0.22751640806E+02  0.30856372196E+02  0.24839133412E+02  0.45680799174E+02  0.00000000000E+00 0.  1.
        -13    1    5    5    0    0 -0.89764822735E+02  0.13847571162E+03  0.11348698969E+03  0.20028115972E+03  0.00000000000E+00 0. -1.
          4    1    6    6  503    0  0.64225803365E+02 -0.13293246121E+02 -0.23681149149E+03  0.24572616205E+03  0.00000000000E+00 0. -1.
         -4    1    6    6    0  503 -0.22354245203E+02  0.18148292367E+02 -0.19846213770E+03  0.20054000322E+03  0.00000000000E+00 0.  1.
<mgrwt>
<rscale>  0 0.24712304E+03</rscale>
<asrwt>0</asrwt>
<pdfrwt beam="1">  1        2 0.10155659E+00 0.24712304E+03</pdfrwt>
<pdfrwt beam="2">  1       -2 0.39425111E-01 0.24712304E+03</pdfrwt>
<totfact> 0.27889064E+02</totfact>
</mgrwt>
</event>
<event>
12    1  0.1366109E-007  0.1439502E+04  0.7818608E-02  0.8925711E-01
         -1   -1    0    0    0  501 -0.00000000000E+00  0.00000000000E+00  0.74204637918E+03  0.74204637918E+03  0.00000000000E+00 0.  1.
          1   -1    0    0  501    0  0.00000000000E+00 -0.00000000000E+00 -0.29698138187E+04  0.29698138187E+04  0.00000000000E+00 0. -1.
         23    2    1    2    0    0  0.98092605844E+03 -0.10176275992E+04 -0.12698388961E+04  0.19020481008E+04  0.86685020538E+02 0.  0.
    5000000    2    1    2    0    0 -0.98092605844E+03  0.10176275992E+04 -0.95792854343E+03  0.18098120971E+04  0.60000905804E+03 0.  0.
         23    2    4    4    0    0 -0.43780949184E+03  0.70890462747E+03 -0.28021051274E+03  0.88378605890E+03  0.91306869712E+02 0.  0.
         23    2    4    4    0    0 -0.54311656660E+03  0.30872297175E+03 -0.67771803069E+03  0.92602603822E+03  0.89089932854E+02 0.  0.
          3    1    3    3  502    0  0.44406871312E+03 -0.52296585767E+03 -0.61132038460E+03  0.91891399102E+03  0.00000000000E+00 0. -1.
         -3    1    3    3    0  502  0.53685734532E+03 -0.49466174155E+03 -0.65851851148E+03  0.98313410974E+03  0.00000000000E+00 0.  1.
         13    1    5    5    0    0 -0.12499418919E+03  0.24715006272E+03 -0.55403944088E+02  0.28244698238E+03  0.00000000000E+00 0. -1.
        -13    1    5    5    0    0 -0.31281530265E+03  0.46175456475E+03 -0.22480656865E+03  0.60133907652E+03  0.00000000000E+00 0.  1.
          3    1    6    6  503    0 -0.35061918784E+03  0.23506514288E+03 -0.41328951644E+03  0.59076023959E+03  0.00000000000E+00 0. -1.
         -3    1    6    6    0  503 -0.19249737876E+03  0.73657828869E+02 -0.26442851425E+03  0.33526579863E+03  0.00000000000E+00 0.  1.
<mgrwt>
<rscale>  0 0.14395016E+04</rscale>
<asrwt>0</asrwt>
<pdfrwt beam="1">  1        1 0.45689443E+00 0.14395016E+04</pdfrwt>
<pdfrwt beam="2">  1       -1 0.11416098E+00 0.14395016E+04</pdfrwt>
<totfact> 0.42323208E-01</totfact>
</mgrwt>
</event>
<event>
12    1  0.1335216E-007  0.7034192E+03  0.7818608E-02  0.9711403E-01
         -2   -1    0    0    0  501 -0.00000000000E+00  0.00000000000E+00  0.40129539771E+03  0.40129539771E+03  0.00000000000E+00 0.  1.
          2   -1    0    0  501    0  0.00000000000E+00 -0.00000000000E+00 -0.14682192483E+04  0.14682192483E+04  0.00000000000E+00 0. -1.
         23    2    1    2    0    0 -0.32888236600E+03 -0.54437643435E+03 -0.31219988585E+03  0.71427637381E+03  0.90623708389E+02 0.  0.
    5000000    2    1    2    0    0  0.32888236600E+03  0.54437643435E+03 -0.75472396478E+03  0.11552382722E+04  0.60038145348E+03 0.  0.
         23    2    4    4    0    0  0.25300206533E+03  0.58739087617E+03 -0.79252231287E+03  0.10224820725E+04  0.91322974235E+02 0.  0.
         23    2    4    4    0    0  0.75880300668E+02 -0.43014441822E+02  0.37798348098E+02  0.13275619977E+03  0.92668393880E+02 0.  0.
          3    1    3    3  502    0 -0.12531473387E+03 -0.18702777155E+03 -0.64530345051E+02  0.23419507956E+03  0.00000000000E+00 0. -1.
         -3    1    3    3    0  502 -0.20356763213E+03 -0.35734866279E+03 -0.24766954080E+03  0.48008129425E+03  0.00000000000E+00 0.  1.
         11    1    5    5    0    0  0.25162527370E+03  0.51150319013E+03 -0.70518934376E+03  0.90677604866E+03  0.00000000000E+00 0.  1.
        -11    1    5    5    0    0  0.13767916313E+01  0.75887686044E+02 -0.87332969117E+02  0.11570602380E+03  0.00000000000E+00 0. -1.
          1    1    6    6  503    0  0.38914372228E+02  0.25587608202E+02  0.27670993689E+02  0.54173221716E+02  0.00000000000E+00 0. -1.
         -1    1    6    6    0  503  0.36965928440E+02 -0.68602050024E+02  0.10127354409E+02  0.78582978056E+02  0.00000000000E+00 0.  1.
<mgrwt>
<rscale>  0 0.70341922E+03</rscale>
<asrwt>0</asrwt>
<pdfrwt beam="1">  1        2 0.22587988E+00 0.70341922E+03</pdfrwt>
<pdfrwt beam="2">  1       -2 0.61737754E-01 0.70341922E+03</pdfrwt>
<totfact> 0.33155633E+01</totfact>
</mgrwt>
</event>
<event>
12    1  0.1335216E-007  0.4849384E+03  0.7818608E-02  0.1017787E+00
         -1   -1    0    0    0  501 -0.00000000000E+00  0.00000000000E+00  0.45624277805E+03  0.45624277805E+03  0.00000000000E+00 0.  1.
          1   -1    0    0  501    0  0.00000000000E+00 -0.00000000000E+00 -0.13096480267E+04  0.13096480267E+04  0.00000000000E+00 0. -1.
         23    2    1    2    0    0 -0.41020582512E+03 -0.72939502944E+02 -0.93772260862E+03  0.10295361692E+04  0.83857277297E+02 0.  0.
    5000000    2    1    2    0    0  0.41020582512E+03  0.72939502944E+02  0.84317359994E+02  0.73635463552E+03  0.60126511789E+03 0.  0.
         23    2    4    4    0    0  0.36027734542E+03 -0.82011813900E+02 -0.17335264580E+03  0.41825391309E+03  0.91430261801E+02 0.  0.
         23    2    4    4    0    0  0.49928479707E+02  0.15495131684E+03  0.25767000579E+03  0.31810072242E+03  0.91057531507E+02 0.  0.
          1    1    3    3  502    0 -0.10897080397E+03 -0.83713722476E+01 -0.33929991579E+03  0.35646759859E+03  0.00000000000E+00 0. -1.
         -1    1    3    3    0  502 -0.30123502115E+03 -0.64568130697E+02 -0.59842269283E+03  0.67306857063E+03  0.00000000000E+00 0.  1.
         13    1    5    5    0    0  0.25017200751E+03 -0.64631169304E+02 -0.73588341872E+02  0.26866050221E+03  0.00000000000E+00 0. -1.
        -13    1    5    5    0    0  0.11010533790E+03 -0.17380644596E+02 -0.99764303927E+02  0.14959341088E+03  0.00000000000E+00 0.  1.
          1    1    6    6  503    0  0.68304966572E+02  0.78649513513E+02  0.11424721816E+03  0.15460834806E+03  0.00000000000E+00 0. -1.
         -1    1    6    6    0  503 -0.18376486865E+02  0.76301803332E+02  0.14342278764E+03  0.16349237436E+03  0.00000000000E+00 0.  1.
<mgrwt>
<rscale>  0 0.48493838E+03</rscale>
<asrwt>0</asrwt>
<pdfrwt beam="1">  1        1 0.20148431E+00 0.48493838E+03</pdfrwt>
<pdfrwt beam="2">  1       -1 0.70191197E-01 0.48493838E+03</pdfrwt>
<totfact> 0.19686943E+01</totfact>
</mgrwt>
</event>
<event>
12    1  0.1335216E-007  0.5539566E+03  0.7818608E-02  0.1000582E+00
         -1   -1    0    0    0  501 -0.00000000000E+00  0.00000000000E+00  0.50139094008E+03  0.50139094008E+03  0.00000000000E+00 0.  1.
          1   -1    0    0  501    0  0.00000000000E+00 -0.00000000000E+00 -0.67582538819E+03  0.67582538819E+03  0.00000000000E+00 0. -1.
         23    2    1    2    0    0  0.28409567139E+03 -0.30568883670E+03 -0.48954003272E+01  0.42710671759E+03  0.90775370450E+02 0.  0.
    5000000    2    1    2    0    0 -0.28409567139E+03  0.30568883670E+03 -0.16953904779E+03  0.75010961067E+03  0.59980407127E+03 0.  0.
         23    2    4    4    0    0 -0.56501648699E+02 -0.14139070010E+03  0.64326474862E+02  0.18913139987E+03  0.91918576291E+02 0.  0.
         23    2    4    4    0    0 -0.22759402269E+03  0.44707953680E+03 -0.23386552265E+03  0.56097821081E+03  0.91237705610E+02 0.  0.
          3    1    3    3  502    0  0.35757757841E+02 -0.67031178438E+02 -0.30195009841E+02  0.81752888315E+02  0.00000000000E+00 0. -1.
         -3    1    3    3    0  502  0.24833791355E+03 -0.23865765826E+03  0.25299609513E+02  0.34535382928E+03  0.00000000000E+00 0.  1.
         13    1    5    5    0    0 -0.81675204037E+02 -0.99052343444E+02  0.42280934309E+02  0.13516613149E+03  0.00000000000E+00 0.  1.
        -13    1    5    5    0    0  0.25173555338E+02 -0.42338356654E+02  0.22045540553E+02  0.53965268375E+02  0.00000000000E+00 0. -1.
          1    1    6    6  503    0 -0.16286934532E+03  0.39341910337E+03 -0.19756519676E+03  0.46940070463E+03  0.00000000000E+00 0. -1.
         -1    1    6    6    0  503 -0.64724677374E+02  0.53660433432E+02 -0.36300325885E+02  0.91577506172E+02  0.00000000000E+00 0.  1.
<mgrwt>
<rscale>  0 0.55395659E+03</rscale>
<asrwt>0</asrwt>
<pdfrwt beam="1">  1        1 0.10397314E+00 0.55395659E+03</pdfrwt>
<pdfrwt beam="2">  1       -1 0.77137068E-01 0.55395659E+03</pdfrwt>
<totfact> 0.50520290E+01</totfact>
</mgrwt>
</event>
<event>
12    1  0.1335216E-007  0.1442560E+04  0.7818608E-02  0.8923575E-01
         -2   -1    0    0    0  501 -0.00000000000E+00  0.00000000000E+00  0.25831184785E+04  0.25831184785E+04  0.00000000000E+00 0.  1.
          2   -1    0    0  501    0  0.00000000000E+00 -0.00000000000E+00 -0.17286908007E+04  0.17286908007E+04  0.00000000000E+00 0. -1.
         23    2    1    2    0    0  0.13661287990E+04  0.35397910951E+03  0.19631430419E+04  0.24194689059E+04  0.91049866963E+02 0.  0.
    5000000    2    1    2    0    0 -0.13661287990E+04 -0.35397910951E+03 -0.11087153641E+04  0.18923403733E+04  0.60007768193E+03 0.  0.
         23    2    4    4    0    0 -0.64061540911E+03  0.29938674152E+02 -0.23220478524E+03  0.68802427186E+03  0.90409677470E+02 0.  0.
         23    2    4    4    0    0 -0.72551338989E+03 -0.38391778366E+03 -0.87651057887E+03  0.12043161014E+04  0.91345135494E+02 0.  0.
          1    1    3    3  502    0  0.67067989683E+03  0.20193710500E+03  0.10360137279E+04  0.12505656971E+04  0.00000000000E+00 0. -1.
         -1    1    3    3    0  502  0.69544890218E+03  0.15204200451E+03  0.92712931398E+03  0.11689032088E+04  0.00000000000E+00 0.  1.
         11    1    5    5    0    0 -0.17820722813E+03  0.48706120904E+02 -0.72342949115E+02  0.19840263269E+03  0.00000000000E+00 0. -1.
        -11    1    5    5    0    0 -0.46240818098E+03 -0.18767446751E+02 -0.15986183613E+03  0.48962163917E+03  0.00000000000E+00 0.  1.
          1    1    6    6  503    0 -0.24829585537E+03 -0.86260385029E+02 -0.30089934750E+03  0.39953986428E+03  0.00000000000E+00 0. -1.
         -1    1    6    6    0  503 -0.47721753452E+03 -0.29765739863E+03 -0.57561123137E+03  0.80477623716E+03  0.00000000000E+00 0.  1.
<mgrwt>
<rscale>  0 0.14425598E+04</rscale>
<asrwt>0</asrwt>
<pdfrwt beam="1">  1        2 0.26595243E+00 0.14425598E+04</pdfrwt>
<pdfrwt beam="2">  1       -2 0.39740284E+00 0.14425598E+04</pdfrwt>
<totfact> 0.69186706E-02</totfact>
</mgrwt>
</event>
<event>
12    1  0.1335216E-007  0.1040711E+04  0.7818608E-02  0.9264987E-01
         -2   -1    0    0    0  501 -0.00000000000E+00  0.00000000000E+00  0.75712052259E+03  0.75712052259E+03  0.00000000000E+00 0.  1.
          2   -1    0    0  501    0  0.00000000000E+00 -0.00000000000E+00 -0.16392536559E+04  0.16392536559E+04  0.00000000000E+00 0. -1.
         23    2    1    2    0    0 -0.66251797211E+03  0.73801796017E+03 -0.10533022990E+03  0.10011788862E+04  0.87545027549E+02 0.  0.
    5000000    2    1    2    0    0  0.66251797211E+03 -0.73801796017E+03 -0.77680290346E+03  0.13951952924E+04  0.59962203107E+03 0.  0.
         23    2    4    4    0    0  0.38177705660E+03 -0.12163654903E+03 -0.52679489875E+03  0.66802896418E+03  0.90557498952E+02 0.  0.
         23    2    4    4    0    0  0.28074091551E+03 -0.61638141114E+03 -0.25000800471E+03  0.72716632820E+03  0.86748837550E+02 0.  0.
          3    1    3    3  502    0 -0.57258929869E+03  0.58871838291E+03 -0.91812797834E+02  0.82636398106E+03  0.00000000000E+00 0. -1.
         -3    1    3    3    0  502 -0.89928673425E+02  0.14929957726E+03 -0.13517432066E+02  0.17481490510E+03  0.00000000000E+00 0.  1.
         13    1    5    5    0    0  0.15876497013E+03 -0.15984349309E+02 -0.16016699651E+03  0.22608689023E+03  0.00000000000E+00 0. -1.
        -13    1    5    5    0    0  0.22301208647E+03 -0.10565219973E+03 -0.36662790224E+03  0.44194207395E+03  0.00000000000E+00 0.  1.
          2    1    6    6  503    0  0.25140060787E+03 -0.50165117873E+03 -0.23281517631E+03  0.60750232681E+03  0.00000000000E+00 0. -1.
         -2    1    6    6    0  503  0.29340307637E+02 -0.11473023241E+03 -0.17192828392E+02  0.11966400139E+03  0.00000000000E+00 0.  1.
<mgrwt>
<rscale>  0 0.10407112E+04</rscale>
<asrwt>0</asrwt>
<pdfrwt beam="1">  1        2 0.25219287E+00 0.10407112E+04</pdfrwt>
<pdfrwt beam="2">  1       -2 0.11648008E+00 0.10407112E+04</pdfrwt>
<totfact> 0.60038486E+00</totfact>
</mgrwt>
</event>
<event>
12    1  0.1335216E-007  0.3688885E+03  0.7818608E-02  0.1055119E+00
          2   -1    0    0  501    0  0.00000000000E+00  0.00000000000E+00  0.22872031332E+03  0.22872031332E+03  0.00000000000E+00 0. -1.
         -2   -1    0    0    0  501 -0.00000000000E+00 -0.00000000000E+00 -0.16978607858E+04  0.16978607858E+04  0.00000000000E+00 0.  1.
         23    2    1    2    0    0 -0.18907461388E+03 -0.10710412028E+03  0.82039111904E+02  0.24941435871E+03  0.90865858553E+02 0.  0.
    5000000    2    1    2    0    0  0.18907461388E+03  0.10710412028E+03 -0.15511795844E+04  0.16771667404E+04  0.59959125242E+03 0.  0.
         23    2    4    4    0    0  0.48301447500E+02 -0.17436855019E+03 -0.19209445403E+03  0.27918071460E+03  0.91127224291E+02 0.  0.
         23    2    4    4    0    0  0.14077316638E+03  0.28147267047E+03 -0.13590851303E+04  0.13979860258E+04  0.90601259725E+02 0.  0.
          4    1    3    3  502    0 -0.18377195711E+03 -0.12067002300E+03  0.70639848712E+02  0.23091854602E+03  0.00000000000E+00 0. -1.
         -4    1    3    3    0  502 -0.53026567767E+01  0.13565902722E+02  0.11399263192E+02  0.18495812685E+02  0.00000000000E+00 0.  1.
         13    1    5    5    0    0  0.58703982254E+02 -0.13669240125E+03 -0.18820738258E+03  0.23990204033E+03  0.00000000000E+00 0. -1.
        -13    1    5    5    0    0 -0.10402534754E+02 -0.37676148937E+02 -0.38870714451E+01  0.39278674271E+02  0.00000000000E+00 0.  1.
          4    1    6    6  503    0  0.97040278539E+02  0.16966480563E+03 -0.10125823286E+04  0.10312739374E+04  0.00000000000E+00 0. -1.
         -4    1    6    6    0  503  0.43732887846E+02  0.11180786484E+03 -0.34650280179E+03  0.36671208838E+03  0.00000000000E+00 0.  1.
<mgrwt>
<rscale>  0 0.36888848E+03</rscale>
<asrwt>0</asrwt>
<pdfrwt beam="1">  1        2 0.35187740E-01 0.36888848E+03</pdfrwt>
<pdfrwt beam="2">  1       -2 0.26120936E+00 0.36888848E+03</pdfrwt>
<totfact> 0.88952292E+00</totfact>
</mgrwt>
</event>
<event>
12    1  0.1335216E-007  0.4985489E+03  0.7818608E-02  0.1014158E+00
          3   -1    0    0  501    0  0.00000000000E+00  0.00000000000E+00  0.27659868890E+04  0.27659868890E+04  0.00000000000E+00 0. -1.
         -3   -1    0    0    0  501 -0.00000000000E+00 -0.00000000000E+00 -0.10992449028E+03  0.10992449028E+03  0.00000000000E+00 0.  1.
         23    2    1    2    0    0  0.21124078538E+03 -0.31718500628E+03  0.95475682751E+03  0.10320135735E+04  0.90897846622E+02 0.  0.
    5000000    2    1    2    0    0 -0.21124078538E+03  0.31718500628E+03  0.17013055712E+04  0.18438978058E+04  0.60024117991E+03 0.  0.
         23    2    4    4    0    0 -0.76575888160E+02 -0.11278945488E+03  0.94163456309E+03  0.95568390378E+03  0.89837329487E+02 0.  0.
         23    2    4    4    0    0 -0.13466489722E+03  0.42997446116E+03  0.75967100812E+03  0.88821390203E+03  0.93868117042E+02 0.  0.
          4    1    3    3  502    0  0.16158283826E+03 -0.24599663724E+03  0.82478085923E+03  0.87572074596E+03  0.00000000000E+00 0. -1.
         -4    1    3    3    0  502  0.49657947116E+02 -0.71188369040E+02  0.12997596827E+03  0.15629282750E+03  0.00000000000E+00 0.  1.
         11    1    5    5    0    0  0.12784909010E+02 -0.35944774242E+02  0.12822131302E+03  0.13377662653E+03  0.00000000000E+00 0. -1.
        -11    1    5    5    0    0 -0.89360797170E+02 -0.76844680641E+02  0.81341325007E+03  0.82190727725E+03  0.00000000000E+00 0.  1.
          3    1    6    6  503    0 -0.12902669842E+02  0.19407409438E+03  0.33631247053E+03  0.38850651324E+03  0.00000000000E+00 0. -1.
         -3    1    6    6    0  503 -0.12176222737E+03  0.23590036678E+03  0.42335853759E+03  0.49970738879E+03  0.00000000000E+00 0.  1.
<mgrwt>
<rscale>  0 0.49854886E+03</rscale>
<asrwt>0</asrwt>
<pdfrwt beam="1">  1        3 0.42553639E+00 0.49854886E+03</pdfrwt>
<pdfrwt beam="2">  1       -3 0.16911462E-01 0.49854886E+03</pdfrwt>
<totfact> 0.71211843E-01</totfact>
</mgrwt>
</event>
<event>
12    1  0.1335216E-007  0.4208032E+03  0.7818608E-02  0.1036805E+00
         -2   -1    0    0    0  501 -0.00000000000E+00  0.00000000000E+00  0.68515680412E+03  0.68515680412E+03  0.00000000000E+00 0.  1.
          2   -1    0    0  501    0  0.00000000000E+00 -0.00000000000E+00 -0.64234692932E+03  0.64234692932E+03  0.00000000000E+00 0. -1.
         23    2    1    2    0    0 -0.20132478209E+03 -0.27146820467E+03  0.41640130533E+03  0.54387570828E+03  0.90465932546E+02 0.  0.
    5000000    2    1    2    0    0  0.20132478209E+03  0.27146820467E+03 -0.37359143054E+03  0.78362802515E+03  0.60022968171E+03 0.  0.
         23    2    4    4    0    0 -0.22466866649E+02 -0.52941842143E+02  0.10905445345E+03  0.15467365893E+03  0.93399508580E+02 0.  0.
         23    2    4    4    0    0  0.22379164874E+03  0.32441004681E+03 -0.48264588398E+03  0.62895436623E+03  0.85510028402E+02 0.  0.
          3    1    3    3  502    0 -0.11341560739E+03 -0.89079507037E+02  0.20996438634E+03  0.25472200946E+03  0.00000000000E+00 0. -1.
         -3    1    3    3    0  502 -0.87909174700E+02 -0.18238869763E+03  0.20643691899E+03  0.28915369882E+03  0.00000000000E+00 0.  1.
         11    1    5    5    0    0 -0.18237837572E+02  0.19338063528E+02  0.64242079906E+02  0.69524270949E+02  0.00000000000E+00 0.  1.
        -11    1    5    5    0    0 -0.42290290768E+01 -0.72279905671E+02  0.44812373539E+02  0.85149387977E+02  0.00000000000E+00 0. -1.
          1    1    6    6  503    0  0.47142459276E+02  0.43773101714E+02 -0.39557191670E+02  0.75519979562E+02  0.00000000000E+00 0. -1.
         -1    1    6    6    0  503  0.17664918946E+03  0.28063694510E+03 -0.44308869231E+03  0.55343438667E+03  0.00000000000E+00 0.  1.
<mgrwt>
<rscale>  0 0.42080319E+03</rscale>
<asrwt>0</asrwt>
<pdfrwt beam="1">  1        2 0.98822604E-01 0.42080319E+03</pdfrwt>
<pdfrwt beam="2">  1       -2 0.10540874E+00 0.42080319E+03</pdfrwt>
<totfact> 0.34847208E+01</totfact>
</mgrwt>
</event>
<event>
12    1  0.1335216E-007  0.8767564E+03  0.7818608E-02  0.9455113E-01
         -2   -1    0    0    0  501 -0.00000000000E+00  0.00000000000E+00  0.36581502281E+03  0.36581502281E+03  0.00000000000E+00 0.  1.
          2   -1    0    0  501    0  0.00000000000E+00 -0.00000000000E+00 -0.21965358861E+04  0.21965358861E+04  0.00000000000E+00 0. -1.
         23    2    1    2    0    0 -0.72679944766E+03  0.30272732470E+03 -0.95045317622E+03  0.12376490431E+04  0.92372308526E+02 0.  0.
    5000000    2    1    2    0    0  0.72679944766E+03 -0.30272732470E+03 -0.88026768711E+03  0.13247018659E+04  0.60006879793E+03 0.  0.
         23    2    4    4    0    0  0.69901618752E+03 -0.43169452506E+03 -0.77359706710E+03  0.11321391286E+04  0.91119652088E+02 0.  0.
         23    2    4    4    0    0  0.27783260143E+02  0.12896720036E+03 -0.10667062001E+03  0.19256273723E+03  0.91089726566E+02 0.  0.
          4    1    3    3  502    0 -0.49728653641E+03  0.16181728985E+03 -0.60729764750E+03  0.80142945244E+03  0.00000000000E+00 0. -1.
         -4    1    3    3    0  502 -0.22951291125E+03  0.14091003485E+03 -0.34315552872E+03  0.43621959063E+03  0.00000000000E+00 0.  1.
         11    1    5    5    0    0  0.14015549460E+03 -0.12429425858E+03 -0.14820485700E+03  0.23886670974E+03  0.00000000000E+00 0. -1.
        -11    1    5    5    0    0  0.55886069291E+03 -0.30740026648E+03 -0.62539221010E+03  0.89327241890E+03  0.00000000000E+00 0.  1.
          3    1    6    6  503    0  0.33109070661E+02  0.76571754077E+02 -0.12072250713E+02  0.84292249465E+02  0.00000000000E+00 0. -1.
         -3    1    6    6    0  503 -0.53258105181E+01  0.52395446281E+02 -0.94598369294E+02  0.10827048777E+03  0.00000000000E+00 0.  1.
<mgrwt>
<rscale>  0 0.87675640E+03</rscale>
<asrwt>0</asrwt>
<pdfrwt beam="1">  1        2 0.33792859E+00 0.87675640E+03</pdfrwt>
<pdfrwt beam="2">  1       -2 0.56279236E-01 0.87675640E+03</pdfrwt>
<totfact> 0.15698998E+01</totfact>
</mgrwt>
</event>
<event>
12    1  0.1335216E-007  0.5613473E+03  0.7818608E-02  0.9989011E-01
          2   -1    0    0  501    0  0.00000000000E+00  0.00000000000E+00  0.17817447362E+04  0.17817447362E+04  0.00000000000E+00 0. -1.
         -2   -1    0    0    0  501 -0.00000000000E+00 -0.00000000000E+00 -0.18542264121E+03  0.18542264121E+03  0.00000000000E+00 0.  1.
         23    2    1    2    0    0 -0.35170059463E+03  0.20178767667E+03  0.70922502309E+03  0.82204440283E+03  0.91352570475E+02 0.  0.
    5000000    2    1    2    0    0  0.35170059463E+03 -0.20178767667E+03  0.88709707185E+03  0.11451229745E+04  0.59996152977E+03 0.  0.
         23    2    4    4    0    0  0.51123352992E+02 -0.35538697866E+03  0.38203617570E+03  0.53211493555E+03  0.91000897077E+02 0.  0.
         23    2    4    4    0    0  0.30057724164E+03  0.15359930199E+03  0.50506089616E+03  0.61300803899E+03  0.82176172194E+02 0.  0.
          1    1    3    3  502    0 -0.19152264696E+03  0.58950651968E+02  0.36520935836E+03  0.41657409797E+03  0.00000000000E+00 0. -1.
         -1    1    3    3    0  502 -0.16017794767E+03  0.14283702470E+03  0.34401566473E+03  0.40547030486E+03  0.00000000000E+00 0.  1.
         11    1    5    5    0    0  0.58081377107E+02 -0.17285603786E+03  0.14567277300E+03  0.23339497207E+03  0.00000000000E+00 0. -1.
        -11    1    5    5    0    0 -0.69580241148E+01 -0.18253094080E+03  0.23636340269E+03  0.29871996348E+03  0.00000000000E+00 0.  1.
          2    1    6    6  503    0  0.25875580979E+03  0.15348418934E+03  0.40464848639E+03  0.50423443260E+03  0.00000000000E+00 0. -1.
         -2    1    6    6    0  503  0.41821431842E+02  0.11511265218E+00  0.10041240977E+03  0.10877360639E+03  0.00000000000E+00 0.  1.
<mgrwt>
<rscale>  0 0.56134734E+03</rscale>
<asrwt>0</asrwt>
<pdfrwt beam="1">  1        2 0.27411456E+00 0.56134734E+03</pdfrwt>
<pdfrwt beam="2">  1       -2 0.28526561E-01 0.56134734E+03</pdfrwt>
<totfact> 0.10383927E+02</totfact>
</mgrwt>
</event>
<event>
12    1  0.1335216E-007  0.9297683E+03  0.7818608E-02  0.9389116E-01
          2   -1    0    0  501    0  0.00000000000E+00  0.00000000000E+00  0.19871020186E+04  0.19871020186E+04  0.00000000000E+00 0. -1.
         -2   -1    0    0    0  501 -0.00000000000E+00 -0.00000000000E+00 -0.62171837350E+03  0.62171837350E+03  0.00000000000E+00 0.  1.
         23    2    1    2    0    0  0.36060416169E+03 -0.81942697262E+03  0.12261455530E+04  0.15221095201E+04  0.10903462378E+03 0.  0.
    5000000    2    1    2    0    0 -0.36060416169E+03  0.81942697262E+03  0.13923809209E+03  0.10867108720E+04  0.60004778818E+03 0.  0.
         23    2    4    4    0    0 -0.51237408000E+02  0.52462988207E+03  0.30993700712E+03  0.61821233238E+03  0.90905194482E+02 0.  0.
         23    2    4    4    0    0 -0.30936675369E+03  0.29479709055E+03 -0.17069891503E+03  0.46849853960E+03  0.87975275650E+02 0.  0.
          3    1    3    3  502    0  0.31145414916E+03 -0.77213209327E+03  0.11518761393E+04  0.14212706627E+04  0.00000000000E+00 0. -1.
         -3    1    3    3    0  502  0.49150012532E+02 -0.47294879351E+02  0.74269413759E+02  0.10083885742E+03  0.00000000000E+00 0.  1.
         13    1    5    5    0    0 -0.48168382193E+02  0.21014284735E+03  0.16722748829E+03  0.27284655427E+03  0.00000000000E+00 0.  1.
        -13    1    5    5    0    0 -0.30690258070E+01  0.31448703472E+03  0.14270951883E+03  0.34536577811E+03  0.00000000000E+00 0. -1.
          4    1    6    6  503    0 -0.19566416615E+02  0.86720981231E+01 -0.31568267010E+02  0.38139289808E+02  0.00000000000E+00 0. -1.
         -4    1    6    6    0  503 -0.28980033708E+03  0.28612499243E+03 -0.13913064802E+03  0.43035924979E+03  0.00000000000E+00 0.  1.
<mgrwt>
<rscale>  0 0.92976829E+03</rscale>
<asrwt>0</asrwt>
<pdfrwt beam="1">  1        2 0.30570800E+00 0.92976829E+03</pdfrwt>
<pdfrwt beam="2">  1       -2 0.95648982E-01 0.92976829E+03</pdfrwt>
<totfact> 0.62889383E+00</totfact>
</mgrwt>
</event>
<event>
12    1  0.1335216E-007  0.6404497E+03  0.7818608E-02  0.9824866E-01
          2   -1    0    0  501    0  0.00000000000E+00  0.00000000000E+00  0.39424653022E+04  0.39424653022E+04  0.00000000000E+00 0.  1.
         -2   -1    0    0    0  501 -0.00000000000E+00 -0.00000000000E+00 -0.13858017381E+03  0.13858017381E+03  0.00000000000E+00 0. -1.
         23    2    1    2    0    0 -0.58764434769E+02  0.60847353394E+03  0.14535226962E+04  0.15794537487E+04  0.90843907377E+02 0.  0.
    5000000    2    1    2    0    0  0.58764434769E+02 -0.60847353394E+03  0.23503624322E+04  0.25015917274E+04  0.60005358712E+03 0.  0.
         23    2    4    4    0    0 -0.34470432933E+02 -0.68935687241E+02  0.38636972829E+02  0.12408119299E+03  0.89235570609E+02 0.  0.
         23    2    4    4    0    0  0.93234867702E+02 -0.53953784669E+03  0.23117254594E+04  0.23775105344E+04  0.93208974783E+02 0.  0.
          4    1    3    3  502    0  0.29197455321E+01  0.19076892897E+03  0.36391087464E+03  0.41089224117E+03  0.00000000000E+00 0. -1.
         -4    1    3    3    0  502 -0.61684180301E+02  0.41770460497E+03  0.10896118216E+04  0.11685615075E+04  0.00000000000E+00 0.  1.
         11    1    5    5    0    0 -0.42266109371E+02  0.57937757599E+01  0.16648500674E+02  0.45794807714E+02  0.00000000000E+00 0.  1.
        -11    1    5    5    0    0  0.77956764375E+01 -0.74729463001E+02  0.21988472155E+02  0.78286385274E+02  0.00000000000E+00 0. -1.
          1    1    6    6  503    0  0.28331544444E+01 -0.15613626878E+03  0.51729182391E+03  0.54034932431E+03  0.00000000000E+00 0. -1.
         -1    1    6    6    0  503  0.90401713257E+02 -0.38340157792E+03  0.17944336355E+04  0.18371612101E+04  0.00000000000E+00 0.  1.
<mgrwt>
<rscale>  0 0.64044974E+03</rscale>
<asrwt>0</asrwt>
<pdfrwt beam="1">  1        2 0.60653304E+00 0.64044974E+03</pdfrwt>
<pdfrwt beam="2">  1       -2 0.21320030E-01 0.64044974E+03</pdfrwt>
<totfact> 0.81753326E+00</totfact>
</mgrwt>
</event>
<event>
12    1  0.1335216E-007  0.6194985E+03  0.7818608E-02  0.9865759E-01
         -1   -1    0    0    0  501 -0.00000000000E+00  0.00000000000E+00  0.35138989769E+03  0.35138989769E+03  0.00000000000E+00 0.  1.
          1   -1    0    0  501    0  0.00000000000E+00 -0.00000000000E+00 -0.15309488711E+04  0.15309488711E+04  0.00000000000E+00 0. -1.
         23    2    1    2    0    0 -0.32416475939E+03 -0.46119263319E+03 -0.78214806654E+03  0.96819021739E+03  0.88629921203E+02 0.  0.
    5000000    2    1    2    0    0  0.32416475939E+03  0.46119263319E+03 -0.39741090684E+03  0.91414855137E+03  0.59995892273E+03 0.  0.
         23    2    4    4    0    0 -0.21485246471E+02 -0.37777149664E+02  0.88399683800E+02  0.13145375882E+03  0.87045147818E+02 0.  0.
         23    2    4    4    0    0  0.34565000586E+03  0.49896978285E+03 -0.48581059064E+03  0.78269479255E+03  0.90301924469E+02 0.  0.
          2    1    3    3  502    0 -0.25319803708E+02 -0.56358410375E+02 -0.13472957443E+03  0.14822085247E+03  0.00000000000E+00 0. -1.
         -2    1    3    3    0  502 -0.29884495568E+03 -0.40483422281E+03 -0.64741849211E+03  0.81996936492E+03  0.00000000000E+00 0.  1.
         11    1    5    5    0    0 -0.23524917874E+02  0.19417572469E+01 -0.97599748579E+01  0.25543086959E+02  0.00000000000E+00 0. -1.
        -11    1    5    5    0    0  0.20396714030E+01 -0.39718906911E+02  0.98159658658E+02  0.10591067186E+03  0.00000000000E+00 0.  1.
          1    1    6    6  503    0  0.26396740791E+03  0.32686417889E+03 -0.36936774892E+03  0.55942069842E+03  0.00000000000E+00 0. -1.
         -1    1    6    6    0  503  0.81682597948E+02  0.17210560396E+03 -0.11644284172E+03  0.22327409413E+03  0.00000000000E+00 0.  1.
<mgrwt>
<rscale>  0 0.61949854E+03</rscale>
<asrwt>0</asrwt>
<pdfrwt beam="1">  1        1 0.23553060E+00 0.61949854E+03</pdfrwt>
<pdfrwt beam="2">  1       -1 0.54059984E-01 0.61949854E+03</pdfrwt>
<totfact> 0.22668038E+01</totfact>
</mgrwt>
</event>
<event>
12    1  0.1335216E-007  0.1260247E+04  0.7818608E-02  0.9061698E-01
          1   -1    0    0  501    0  0.00000000000E+00  0.00000000000E+00  0.22695131936E+04  0.22695131936E+04  0.00000000000E+00 0. -1.
         -1   -1    0    0    0  501 -0.00000000000E+00 -0.00000000000E+00 -0.78839043806E+03  0.78839043806E+03  0.00000000000E+00 0.  1.
         23    2    1    2    0    0  0.30379302731E+03  0.11974484608E+04  0.10341573729E+04  0.16136865857E+04  0.91268314824E+02 0.  0.
    5000000    2    1    2    0    0 -0.30379302731E+03 -0.11974484608E+04  0.44696538268E+03  0.14442170460E+04  0.59984314865E+03 0.  0.
         23    2    4    4    0    0 -0.85941525196E+02 -0.89319247196E+03  0.53617083609E+03  0.10495008461E+04  0.93776984348E+02 0.  0.
         23    2    4    4    0    0 -0.21785150211E+03 -0.30425598883E+03 -0.89205453414E+02  0.39471619990E+03  0.88387113488E+02 0.  0.
          2    1    3    3  502    0  0.30471729409E+03  0.11269992983E+04  0.96098698958E+03  0.15121097982E+04  0.00000000000E+00 0. -1.
         -2    1    3    3    0  502 -0.92426677735E+00  0.70449162461E+02  0.73170383324E+02  0.10157678749E+03  0.00000000000E+00 0.  1.
         13    1    5    5    0    0 -0.96919858903E+02 -0.59796728602E+03  0.33695622984E+03  0.69317951140E+03  0.00000000000E+00 0.  1.
        -13    1    5    5    0    0  0.10978333707E+02 -0.29522518594E+03  0.19921460626E+03  0.35632133471E+03  0.00000000000E+00 0. -1.
          4    1    6    6  503    0 -0.21615233856E+02 -0.29769046530E+01  0.62726233627E+01  0.22702997596E+02  0.00000000000E+00 0. -1.
         -4    1    6    6    0  503 -0.19623626826E+03 -0.30127908417E+03 -0.95478076777E+02  0.37201320230E+03  0.00000000000E+00 0.  1.
<mgrwt>
<rscale>  0 0.12602471E+04</rscale>
<asrwt>0</asrwt>
<pdfrwt beam="1">  1        1 0.34915587E+00 0.12602471E+04</pdfrwt>
<pdfrwt beam="2">  1       -1 0.12129084E+00 0.12602471E+04</pdfrwt>
<totfact> 0.11528034E+00</totfact>
</mgrwt>
</event>
<event>
12    1  0.1335216E-007  0.4972684E+03  0.7818608E-02  0.1014494E+00
          1   -1    0    0  501    0  0.00000000000E+00  0.00000000000E+00  0.10838943394E+04  0.10838943394E+04  0.00000000000E+00 0. -1.
         -1   -1    0    0    0  501 -0.00000000000E+00 -0.00000000000E+00 -0.25755610168E+03  0.25755610168E+03  0.00000000000E+00 0.  1.
         23    2    1    2    0    0 -0.14819150032E+03 -0.31129214513E+03  0.36900032862E+03  0.51192293330E+03  0.83906654857E+02 0.  0.
    5000000    2    1    2    0    0  0.14819150032E+03  0.31129214513E+03  0.45733790909E+03  0.82952750777E+03  0.60007866373E+03 0.  0.
         23    2    4    4    0    0  0.22866674342E+03 -0.71173094767E+02  0.31369288943E+03  0.40319644346E+03  0.82523052374E+02 0.  0.
         23    2    4    4    0    0 -0.80475243106E+02  0.38246523990E+03  0.14364501966E+03  0.42633106431E+03  0.91478742003E+02 0.  0.
          1    1    3    3  502    0 -0.34330865546E+02 -0.11272751254E+03  0.76436803776E+02  0.14045883876E+03  0.00000000000E+00 0. -1.
         -1    1    3    3    0  502 -0.11386063477E+03 -0.19856463259E+03  0.29256352484E+03  0.37146409454E+03  0.00000000000E+00 0.  1.
         13    1    5    5    0    0  0.89233208679E+02 -0.61263471026E+02  0.17835540070E+03  0.20862988130E+03  0.00000000000E+00 0. -1.
        -13    1    5    5    0    0  0.13943353474E+03 -0.99096237408E+01  0.13533748873E+03  0.19456656215E+03  0.00000000000E+00 0.  1.
          2    1    6    6  503    0 -0.71486823927E+02  0.14043989315E+03  0.38023192206E+02  0.16210950845E+03  0.00000000000E+00 0. -1.
         -2    1    6    6    0  503 -0.89884191793E+01  0.24202534675E+03  0.10562182745E+03  0.26422155586E+03  0.00000000000E+00 0.  1.
<mgrwt>
<rscale>  0 0.49726836E+03</rscale>
<asrwt>0</asrwt>
<pdfrwt beam="1">  1        1 0.16675297E+00 0.49726836E+03</pdfrwt>
<pdfrwt beam="2">  1       -1 0.39624016E-01 0.49726836E+03</pdfrwt>
<totfact> 0.84760703E+01</totfact>
</mgrwt>
</event>
<event>
12    1  0.1335216E-007  0.9500006E+03  0.7818608E-02  0.9365150E-01
         -1   -1    0    0    0  501 -0.00000000000E+00  0.00000000000E+00  0.46848528232E+03  0.46848528232E+03  0.00000000000E+00 0.  1.
          1   -1    0    0  501    0  0.00000000000E+00 -0.00000000000E+00 -0.22403631646E+04  0.22403631646E+04  0.00000000000E+00 0. -1.
         23    2    1    2    0    0  0.87938136541E+03  0.11719078492E+03 -0.11990826590E+04  0.14943224502E+04  0.90305570634E+02 0.  0.
    5000000    2    1    2    0    0 -0.87938136541E+03 -0.11719078492E+03 -0.57279522331E+03  0.12145259968E+04  0.59994480002E+03 0.  0.
         23    2    4    4    0    0 -0.49205016200E+03 -0.30083700028E+03 -0.50236853425E+03  0.77017788768E+03  0.90463096386E+02 0.  0.
         23    2    4    4    0    0 -0.38733120341E+03  0.18364621536E+03 -0.70426689065E+02  0.44434810908E+03  0.93455497241E+02 0.  0.
          4    1    3    3  502    0  0.17430298102E+03  0.47196036680E+02 -0.19952684243E+03  0.26910956118E+03  0.00000000000E+00 0. -1.
         -4    1    3    3    0  502  0.70507838440E+03  0.69994748244E+02 -0.99955581656E+03  0.12252128890E+04  0.00000000000E+00 0.  1.
         11    1    5    5    0    0 -0.38021693486E+03 -0.19362737691E+03 -0.39709578785E+03  0.58287352262E+03  0.00000000000E+00 0. -1.
        -11    1    5    5    0    0 -0.11183322714E+03 -0.10720962338E+03 -0.10527274639E+03  0.18730436506E+03  0.00000000000E+00 0.  1.
          2    1    6    6  503    0 -0.31974668676E+03  0.14175085964E+03 -0.92578079933E+02  0.36180374623E+03  0.00000000000E+00 0. -1.
         -2    1    6    6    0  503 -0.67584516646E+02  0.41895355721E+02  0.22151390867E+02  0.82544362852E+02  0.00000000000E+00 0.  1.
<mgrwt>
<rscale>  0 0.95000057E+03</rscale>
<asrwt>0</asrwt>
<pdfrwt beam="1">  1        1 0.34467126E+00 0.95000057E+03</pdfrwt>
<pdfrwt beam="2">  1       -1 0.72074659E-01 0.95000057E+03</pdfrwt>
<totfact> 0.40581290E+00</totfact>
</mgrwt>
</event>
<event>
12    1  0.1335216E-007  0.9370701E+03  0.7818608E-02  0.9380393E-01
          1   -1    0    0  501    0  0.00000000000E+00  0.00000000000E+00  0.13674213833E+04  0.13674213833E+04  0.00000000000E+00 0. -1.
         -1   -1    0    0    0  501 -0.00000000000E+00 -0.00000000000E+00 -0.74187898775E+03  0.74187898775E+03  0.00000000000E+00 0.  1.
         23    2    1    2    0    0  0.24842060809E+03  0.82373763717E+03  0.61358687711E+03  0.10605582922E+04  0.89657916516E+02 0.  0.
    5000000    2    1    2    0    0 -0.24842060809E+03 -0.82373763717E+03  0.11955518481E+02  0.10487420789E+04  0.59955026494E+03 0.  0.
         23    2    4    4    0    0 -0.13527790463E+03 -0.87054859131E+03 -0.29405829514E+02  0.88599988867E+03  0.89309230186E+02 0.  0.
         23    2    4    4    0    0 -0.11314270347E+03  0.46810954143E+02  0.41361347995E+02  0.16274219022E+03  0.98902591441E+02 0.  0.
          4    1    3    3  502    0  0.12022340243E+03  0.53035760977E+03  0.41137837534E+03  0.68188344196E+03  0.00000000000E+00 0. -1.
         -4    1    3    3    0  502  0.12819720566E+03  0.29338002740E+03  0.20220850178E+03  0.37867485024E+03  0.00000000000E+00 0.  1.
         13    1    5    5    0    0 -0.12724981241E+03 -0.53721672789E+03 -0.19106324930E+02  0.55241232711E+03  0.00000000000E+00 0.  1.
        -13    1    5    5    0    0 -0.80280922190E+01 -0.33333186342E+03 -0.10299504585E+02  0.33358756156E+03  0.00000000000E+00 0. -1.
          1    1    6    6  503    0 -0.15923363500E+02 -0.16749439367E+01  0.51212675815E+02  0.53657218587E+02  0.00000000000E+00 0. -1.
         -1    1    6    6    0  503 -0.97219339966E+02  0.48485898079E+02 -0.98513278198E+01  0.10908497163E+03  0.00000000000E+00 0.  1.
<mgrwt>
<rscale>  0 0.93707010E+03</rscale>
<asrwt>0</asrwt>
<pdfrwt beam="1">  1        1 0.21037252E+00 0.93707010E+03</pdfrwt>
<pdfrwt beam="2">  1       -1 0.11413523E+00 0.93707010E+03</pdfrwt>
<totfact> 0.57304989E+00</totfact>
</mgrwt>
</event>
<event>
12    1  0.1335216E-007  0.7924860E+03  0.7818608E-02  0.9570957E-01
         -1   -1    0    0    0  501 -0.00000000000E+00  0.00000000000E+00  0.11598266101E+04  0.11598266101E+04  0.00000000000E+00 0.  1.
          1   -1    0    0  501    0  0.00000000000E+00 -0.00000000000E+00 -0.59841628157E+03  0.59841628157E+03  0.00000000000E+00 0. -1.
         23    2    1    2    0    0 -0.71870881817E+03  0.50833451378E+02  0.19912760244E+03  0.75307079316E+03  0.91309431986E+02 0.  0.
    5000000    2    1    2    0    0  0.71870881817E+03 -0.50833451378E+02  0.36228272606E+03  0.10051720985E+04  0.59999647404E+03 0.  0.
         23    2    4    4    0    0  0.50292990722E+03  0.18791377995E+03  0.49061518547E+02  0.54689246136E+03  0.91838180589E+02 0.  0.
         23    2    4    4    0    0  0.21577891095E+03 -0.23874723133E+03  0.31322120752E+03  0.45827963712E+03  0.91388850968E+02 0.  0.
          2    1    3    3  502    0 -0.29217885696E+03 -0.21380890839E+02  0.64139132818E+02  0.29989907520E+03  0.00000000000E+00 0.  1.
         -2    1    3    3    0  502 -0.42652996121E+03  0.72214342218E+02  0.13498846962E+03  0.45317171797E+03  0.00000000000E+00 0. -1.
         13    1    5    5    0    0  0.25569590115E+03  0.90322594099E+02 -0.21071357338E+02  0.27199736574E+03  0.00000000000E+00 0. -1.
        -13    1    5    5    0    0  0.24723400607E+03  0.97591185856E+02  0.70132875885E+02  0.27489509561E+03  0.00000000000E+00 0.  1.
          2    1    6    6  503    0  0.70529336375E+02 -0.64376981341E+02  0.41141793119E+02  0.10397802728E+03  0.00000000000E+00 0. -1.
         -2    1    6    6    0  503  0.14524957458E+03 -0.17437024999E+03  0.27207941440E+03  0.35430160984E+03  0.00000000000E+00 0.  1.
<mgrwt>
<rscale>  0 0.79248600E+03</rscale>
<asrwt>0</asrwt>
<pdfrwt beam="1">  1        1 0.92064044E-01 0.79248600E+03</pdfrwt>
<pdfrwt beam="2">  1       -1 0.17843486E+00 0.79248600E+03</pdfrwt>
<totfact> 0.75408498E+00</totfact>
</mgrwt>
</event>
<event>
12    1  0.1335216E-007  0.2624736E+03  0.7818608E-02  0.1105666E+00
         -1   -1    0    0    0  501 -0.00000000000E+00  0.00000000000E+00  0.13797602231E+03  0.13797602231E+03  0.00000000000E+00 0.  1.
          1   -1    0    0  501    0  0.00000000000E+00 -0.00000000000E+00 -0.15705681697E+04  0.15705681697E+04  0.00000000000E+00 0. -1.
         23    2    1    2    0    0 -0.83273158924E+02 -0.21998743252E+03 -0.63646558883E+03  0.68424587854E+03  0.88176454143E+02 0.  0.
    5000000    2    1    2    0    0  0.83273158924E+02  0.21998743252E+03 -0.79612655855E+03  0.10242983135E+04  0.60003387261E+03 0.  0.
         23    2    4    4    0    0 -0.67982924083E+01  0.90734346122E+02 -0.82907500563E+03  0.83924017097E+03  0.93165236299E+02 0.  0.
         23    2    4    4    0    0  0.90071451332E+02  0.12925308640E+03  0.32948447084E+02  0.18505814250E+03  0.91332848696E+02 0.  0.
          2    1    3    3  502    0 -0.44513195697E+02 -0.17101069052E+03 -0.36284386974E+03  0.40358611804E+03  0.00000000000E+00 0. -1.
         -2    1    3    3    0  502 -0.38759963226E+02 -0.48976741998E+02 -0.27362171909E+03  0.28065976050E+03  0.00000000000E+00 0.  1.
         13    1    5    5    0    0  0.67307698094E+01  0.95079213295E+02 -0.45409256583E+03  0.46398859728E+03  0.00000000000E+00 0.  1.
        -13    1    5    5    0    0 -0.13529062218E+02 -0.43448671723E+01 -0.37498243980E+03  0.37525157368E+03  0.00000000000E+00 0. -1.
          4    1    6    6  503    0  0.76742695384E+02  0.13965104663E+03  0.14454881936E+02  0.16000249914E+03  0.00000000000E+00 0.  1.
         -4    1    6    6    0  503  0.13328755948E+02 -0.10397960233E+02  0.18493565148E+02  0.25055643356E+02  0.00000000000E+00 0. -1.
<mgrwt>
<rscale>  0 0.26247365E+03</rscale>
<asrwt>0</asrwt>
<pdfrwt beam="1">  1        1 0.24162588E+00 0.26247365E+03</pdfrwt>
<pdfrwt beam="2">  1       -1 0.21227080E-01 0.26247365E+03</pdfrwt>
<totfact> 0.11876261E+02</totfact>
</mgrwt>
</event>
<event>
12    1  0.1335216E-007  0.5049876E+03  0.7818608E-02  0.1012485E+00
         -1   -1    0    0    0  501 -0.00000000000E+00  0.00000000000E+00  0.23729456113E+03  0.23729456113E+03  0.00000000000E+00 0.  1.
          1   -1    0    0  501    0  0.00000000000E+00 -0.00000000000E+00 -0.19682642994E+04  0.19682642994E+04  0.00000000000E+00 0. -1.
         23    2    1    2    0    0  0.30305473692E+03 -0.29201234025E+03 -0.12668192260E+04  0.13380235054E+04  0.91447084313E+02 0.  0.
    5000000    2    1    2    0    0 -0.30305473692E+03  0.29201234025E+03 -0.46415051221E+03  0.86753535507E+03  0.60005709219E+03 0.  0.
         23    2    4    4    0    0 -0.35895472383E+03  0.90848745143E+02 -0.50818824752E+03  0.63533665662E+03  0.91078999072E+02 0.  0.
         23    2    4    4    0    0  0.55899986908E+02  0.20116359510E+03  0.44037735307E+02  0.23219869845E+03  0.91571354154E+02 0.  0.
          1    1    3    3  502    0  0.21339195312E+03 -0.22248414315E+03 -0.79312840442E+03  0.85093359641E+03  0.00000000000E+00 0. -1.
         -1    1    3    3    0  502  0.89662783797E+02 -0.69528197092E+02 -0.47369082161E+03  0.48708990902E+03  0.00000000000E+00 0.  1.
         11    1    5    5    0    0 -0.57720478434E+02  0.39001563315E+02 -0.14333063294E+03  0.15936262394E+03  0.00000000000E+00 0. -1.
        -11    1    5    5    0    0 -0.30123424539E+03  0.51847181828E+02 -0.36485761458E+03  0.47597403267E+03  0.00000000000E+00 0.  1.
          4    1    6    6  503    0 -0.16531348322E+01  0.65782067566E+02  0.53471665128E+02  0.84789340365E+02  0.00000000000E+00 0.  1.
         -4    1    6    6    0  503  0.57553121740E+02  0.13538152754E+03 -0.94339298207E+01  0.14740935809E+03  0.00000000000E+00 0. -1.
<mgrwt>
<rscale>  0 0.50498761E+03</rscale>
<asrwt>0</asrwt>
<pdfrwt beam="1">  1        1 0.30280988E+00 0.50498761E+03</pdfrwt>
<pdfrwt beam="2">  1       -1 0.36506857E-01 0.50498761E+03</pdfrwt>
<totfact> 0.24376522E+01</totfact>
</mgrwt>
</event>
<event>
12    1  0.1426586E-007  0.8343280E+03  0.7818608E-02  0.9511616E-01
          1   -1    0    0  501    0  0.00000000000E+00  0.00000000000E+00  0.73378377820E+03  0.73378377820E+03  0.00000000000E+00 0. -1.
         -1   -1    0    0    0  501 -0.00000000000E+00 -0.00000000000E+00 -0.12901702476E+04  0.12901702476E+04  0.00000000000E+00 0.  1.
         23    2    1    2    0    0 -0.62537554390E+03 -0.52451760734E+03 -0.58875777946E+03  0.10104179823E+04  0.89974911829E+02 0.  0.
    5000000    2    1    2    0    0  0.62537554390E+03  0.52451760734E+03  0.32371310048E+02  0.10135360435E+04  0.59999509869E+03 0.  0.
         23    2    4    4    0    0  0.46234509323E+03  0.43357677258E+03 -0.22778888845E+03  0.68024613892E+03  0.95368909274E+02 0.  0.
         23    2    4    4    0    0  0.16303045067E+03  0.90940834759E+02  0.26016019850E+03  0.33328990458E+03  0.92464416616E+02 0.  0.
          3    1    3    3  502    0 -0.27049974902E+03 -0.28441571926E+03 -0.29223602333E+03  0.48935090571E+03  0.00000000000E+00 0. -1.
         -3    1    3    3    0  502 -0.35487579488E+03 -0.24010188808E+03 -0.29652175613E+03  0.52106707659E+03  0.00000000000E+00 0.  1.
         13    1    5    5    0    0  0.14292151243E+03  0.19726230842E+03 -0.82820510709E+02  0.25729013590E+03  0.00000000000E+00 0.  1.
        -13    1    5    5    0    0  0.31942358080E+03  0.23631446416E+03 -0.14496837775E+03  0.42295600302E+03  0.00000000000E+00 0. -1.
          1    1    6    6  503    0  0.11928409542E+03  0.16522210387E+02  0.13102266530E+03  0.17795678599E+03  0.00000000000E+00 0. -1.
         -1    1    6    6    0  503  0.43746355246E+02  0.74418624372E+02  0.12913753320E+03  0.15533311860E+03  0.00000000000E+00 0.  1.
<mgrwt>
<rscale>  0 0.83432804E+03</rscale>
<asrwt>0</asrwt>
<pdfrwt beam="1">  1        1 0.11288981E+00 0.83432804E+03</pdfrwt>
<pdfrwt beam="2">  1       -1 0.19848773E+00 0.83432804E+03</pdfrwt>
<totfact> 0.40046528E+00</totfact>
</mgrwt>
</event>
<event>
12    1  0.1335216E-007  0.4729537E+03  0.7818608E-02  0.1021090E+00
         -1   -1    0    0    0  501 -0.00000000000E+00  0.00000000000E+00  0.12415360885E+04  0.12415360885E+04  0.00000000000E+00 0.  1.
          1   -1    0    0  501    0  0.00000000000E+00 -0.00000000000E+00 -0.13957756024E+04  0.13957756024E+04  0.00000000000E+00 0. -1.
         23    2    1    2    0    0 -0.29526718794E+03 -0.34274233443E+03 -0.12365207170E+04  0.13197150626E+04  0.89494932043E+02 0.  0.
    5000000    2    1    2    0    0  0.29526718794E+03  0.34274233443E+03  0.10822812030E+04  0.13175966283E+04  0.60006104060E+03 0.  0.
         23    2    4    4    0    0  0.10267211144E+03  0.62462044133E+02 -0.26473222537E+02  0.15418143250E+03  0.92887099170E+02 0.  0.
         23    2    4    4    0    0  0.19259507650E+03  0.28028029030E+03  0.11087544255E+04  0.11634151958E+04  0.92458839700E+02 0.  0.
          3    1    3    3  502    0 -0.10371841878E+03 -0.96380651133E+02 -0.50357112077E+03  0.52309713628E+03  0.00000000000E+00 0. -1.
         -3    1    3    3    0  502 -0.19154876916E+03 -0.24636168330E+03 -0.73294959621E+03  0.79661792633E+03  0.00000000000E+00 0.  1.
         11    1    5    5    0    0  0.37009095098E+02  0.64654334398E+02 -0.43557823701E+02  0.86296813858E+02  0.00000000000E+00 0. -1.
        -11    1    5    5    0    0  0.65663016339E+02 -0.21922902649E+01  0.17084601164E+02  0.67884618643E+02  0.00000000000E+00 0.  1.
          1    1    6    6  503    0  0.75720658628E+02  0.18950376474E+03  0.61656754729E+03  0.64946195837E+03  0.00000000000E+00 0. -1.
         -1    1    6    6    0  503  0.11687441788E+03  0.90776525558E+02  0.49218687824E+03  0.51395323743E+03  0.00000000000E+00 0.  1.
<mgrwt>
<rscale>  0 0.47295374E+03</rscale>
<asrwt>0</asrwt>
<pdfrwt beam="1">  1        1 0.21473471E+00 0.47295374E+03</pdfrwt>
<pdfrwt beam="2">  1       -1 0.19100555E+00 0.47295374E+03</pdfrwt>
<totfact> 0.15119328E+00</totfact>
</mgrwt>
</event>
<event>
12    1  0.1335216E-007  0.5024316E+03  0.7818608E-02  0.1013146E+00
          1   -1    0    0  501    0  0.00000000000E+00  0.00000000000E+00  0.86240591568E+03  0.86240591568E+03  0.00000000000E+00 0. -1.
         -1   -1    0    0    0  501 -0.00000000000E+00 -0.00000000000E+00 -0.33988555182E+03  0.33988555182E+03  0.00000000000E+00 0.  1.
         23    2    1    2    0    0 -0.30727138005E+03 -0.12569375783E+03  0.35944433204E+03  0.49765201383E+03  0.90789191426E+02 0.  0.
    5000000    2    1    2    0    0  0.30727138005E+03  0.12569375783E+03  0.16307603182E+03  0.70463945367E+03  0.59975690555E+03 0.  0.
         23    2    4    4    0    0 -0.97616255944E+02  0.20598006648E+03 -0.14319035614E+02  0.24631316033E+03  0.92241080653E+02 0.  0.
         23    2    4    4    0    0  0.40488763600E+03 -0.80286308648E+02  0.17739506743E+03  0.45832629334E+03  0.90631628476E+02 0.  0.
          2    1    3    3  502    0 -0.13130540278E+03 -0.16216799443E+02  0.10141092991E+03  0.16669814063E+03  0.00000000000E+00 0. -1.
         -2    1    3    3    0  502 -0.17596597727E+03 -0.10947695839E+03  0.25803340213E+03  0.33095387321E+03  0.00000000000E+00 0.  1.
         11    1    5    5    0    0  0.41878911488E+01  0.83465876638E+02  0.13367964518E+02  0.84633288194E+02  0.00000000000E+00 0.  1.
        -11    1    5    5    0    0 -0.10180414709E+03  0.12251418984E+03 -0.27687000132E+02  0.16167987214E+03  0.00000000000E+00 0. -1.
          3    1    6    6  503    0  0.22657476697E+03 -0.90196039319E+02  0.96400297103E+02  0.26222979963E+03  0.00000000000E+00 0. -1.
         -3    1    6    6    0  503  0.17831286903E+03  0.99097306713E+01  0.80994770331E+02  0.19609649371E+03  0.00000000000E+00 0.  1.
<mgrwt>
<rscale>  0 0.50243159E+03</rscale>
<asrwt>0</asrwt>
<pdfrwt beam="1">  1        1 0.13267783E+00 0.50243159E+03</pdfrwt>
<pdfrwt beam="2">  1       -1 0.52290085E-01 0.50243159E+03</pdfrwt>
<totfact> 0.75425047E+01</totfact>
</mgrwt>
</event>
<event>
12    1  0.1335216E-007  0.8591892E+03  0.7818608E-02  0.9478086E-01
          1   -1    0    0  501    0  0.00000000000E+00  0.00000000000E+00  0.86234353020E+03  0.86234353020E+03  0.00000000000E+00 0. -1.
         -1   -1    0    0    0  501 -0.00000000000E+00 -0.00000000000E+00 -0.87775374438E+03  0.87775374438E+03  0.00000000000E+00 0.  1.
         23    2    1    2    0    0  0.24060643811E+02  0.75955218983E+03 -0.81700388288E+02  0.76954254538E+03  0.89567471974E+02 0.  0.
    5000000    2    1    2    0    0 -0.24060643811E+02 -0.75955218983E+03  0.66290174108E+02  0.97055472921E+03  0.60006970557E+03 0.  0.
         23    2    4    4    0    0 -0.28822809997E+03 -0.49899375489E+03  0.43855336994E+01  0.58333721581E+03  0.90514470761E+02 0.  0.
         23    2    4    4    0    0  0.26416745616E+03 -0.26055843495E+03  0.61904640409E+02  0.38721751340E+03  0.91815441316E+02 0.  0.
          3    1    3    3  502    0  0.51540564502E+02  0.27426840330E+03 -0.34551736608E+02  0.28119994548E+03  0.00000000000E+00 0. -1.
         -3    1    3    3    0  502 -0.27479920691E+02  0.48528378654E+03 -0.47148651680E+02  0.48834259990E+03  0.00000000000E+00 0.  1.
         11    1    5    5    0    0 -0.11646429753E+03 -0.17441812984E+03  0.43000605204E+02  0.21409032829E+03  0.00000000000E+00 0. -1.
        -11    1    5    5    0    0 -0.17176380243E+03 -0.32457562504E+03 -0.38615071505E+02  0.36924688752E+03  0.00000000000E+00 0.  1.
          3    1    6    6  503    0  0.24602209592E+03 -0.26027902222E+03  0.42523557783E+02  0.36066645818E+03  0.00000000000E+00 0. -1.
         -3    1    6    6    0  503  0.18145360232E+02 -0.27941272798E+00  0.19381082625E+02  0.26551055217E+02  0.00000000000E+00 0.  1.
<mgrwt>
<rscale>  0 0.85918920E+03</rscale>
<asrwt>0</asrwt>
<pdfrwt beam="1">  1        1 0.13266824E+00 0.85918920E+03</pdfrwt>
<pdfrwt beam="2">  1       -1 0.13503904E+00 0.85918920E+03</pdfrwt>
<totfact> 0.91603396E+00</totfact>
</mgrwt>
</event>
<event>
12    1  0.1335216E-007  0.7679831E+03  0.7818608E-02  0.9607553E-01
          1   -1    0    0  501    0  0.00000000000E+00  0.00000000000E+00  0.17025229780E+04  0.17025229780E+04  0.00000000000E+00 0. -1.
         -1   -1    0    0    0  501 -0.00000000000E+00 -0.00000000000E+00 -0.72705235999E+03  0.72705235999E+03  0.00000000000E+00 0.  1.
         23    2    1    2    0    0 -0.63081965003E+03 -0.30318850214E+03 -0.37133030831E+03  0.79742093804E+03  0.90206739581E+02 0.  0.
    5000000    2    1    2    0    0  0.63081965003E+03  0.30318850214E+03  0.13468009263E+04  0.16321543999E+04  0.60016543670E+03 0.  0.
         23    2    4    4    0    0  0.19866509230E+03  0.33632568043E+03  0.97519496773E+03  0.10544867360E+04  0.91401690432E+02 0.  0.
         23    2    4    4    0    0  0.43215455773E+03 -0.33137178283E+02  0.37160595859E+03  0.57766766398E+03  0.88052865934E+02 0.  0.
          4    1    3    3  502    0 -0.14228366123E+03 -0.92688075079E+02 -0.12693090143E+03  0.21200748396E+03  0.00000000000E+00 0. -1.
         -4    1    3    3    0  502 -0.48853598879E+03 -0.21050042706E+03 -0.24439940688E+03  0.58541345409E+03  0.00000000000E+00 0.  1.
         13    1    5    5    0    0  0.19721901393E+02  0.11162341269E+03  0.30182678684E+03  0.32240990820E+03  0.00000000000E+00 0. -1.
        -13    1    5    5    0    0  0.17894319090E+03  0.22470226774E+03  0.67336818089E+03  0.73207682775E+03  0.00000000000E+00 0.  1.
          2    1    6    6  503    0  0.24567496523E+03 -0.12722079655E+02  0.15341941547E+03  0.28992336384E+03  0.00000000000E+00 0. -1.
         -2    1    6    6    0  503  0.18647959250E+03 -0.20415098628E+02  0.21818654312E+03  0.28774430015E+03  0.00000000000E+00 0.  1.
<mgrwt>
<rscale>  0 0.76798313E+03</rscale>
<asrwt>0</asrwt>
<pdfrwt beam="1">  1        1 0.26192661E+00 0.76798313E+03</pdfrwt>
<pdfrwt beam="2">  1       -1 0.11185421E+00 0.76798313E+03</pdfrwt>
<totfact> 0.36326029E+00</totfact>
</mgrwt>
</event>
<event>
12    1  0.1335216E-007  0.6914991E+03  0.7818608E-02  0.9731881E-01
         -2   -1    0    0    0  501 -0.00000000000E+00  0.00000000000E+00  0.82231975312E+03  0.82231975312E+03  0.00000000000E+00 0.  1.
          2   -1    0    0  501    0  0.00000000000E+00 -0.00000000000E+00 -0.75732139337E+03  0.75732139337E+03  0.00000000000E+00 0. -1.
         23    2    1    2    0    0  0.29968480361E+03  0.53565999597E+03  0.30103483486E+03  0.68985053451E+03  0.92353534629E+02 0.  0.
    5000000    2    1    2    0    0 -0.29968480361E+03 -0.53565999597E+03 -0.23603647511E+03  0.88979061199E+03  0.59939261156E+03 0.  0.
         23    2    4    4    0    0  0.11388197059E+03 -0.54187967118E+02 -0.18529922123E+03  0.24659205778E+03  0.10279300835E+03 0.  0.
         23    2    4    4    0    0 -0.41356677421E+03 -0.48147202886E+03 -0.50737253886E+02  0.64319855421E+03  0.90979777459E+02 0.  0.
          1    1    3    3  502    0  0.12182258326E+03  0.29686046864E+03  0.18416237081E+03  0.36997656473E+03  0.00000000000E+00 0. -1.
         -1    1    3    3    0  502  0.17786222035E+03  0.23879952734E+03  0.11687246405E+03  0.31987396977E+03  0.00000000000E+00 0.  1.
         11    1    5    5    0    0  0.47502368811E+02 -0.21163710344E+02 -0.16002326665E+03  0.16826117659E+03  0.00000000000E+00 0. -1.
        -11    1    5    5    0    0  0.66379601780E+02 -0.33024256774E+02 -0.25275954579E+02  0.78330881189E+02  0.00000000000E+00 0.  1.
          4    1    6    6  503    0 -0.23427197372E+03 -0.22149370569E+03 -0.56615027111E+02  0.32733481426E+03  0.00000000000E+00 0. -1.
         -4    1    6    6    0  503 -0.17929480049E+03 -0.25997832316E+03  0.58777732253E+01  0.31586373995E+03  0.00000000000E+00 0.  1.
<mgrwt>
<rscale>  0 0.69149911E+03</rscale>
<asrwt>0</asrwt>
<pdfrwt beam="1">  1        2 0.11651098E+00 0.69149911E+03</pdfrwt>
<pdfrwt beam="2">  1       -2 0.12651073E+00 0.69149911E+03</pdfrwt>
<totfact> 0.17581264E+01</totfact>
</mgrwt>
</event>
<event>
12    1  0.1335216E-007  0.6857864E+03  0.7818608E-02  0.9741853E-01
         -2   -1    0    0    0  501 -0.00000000000E+00  0.00000000000E+00  0.17676247341E+03  0.17676247341E+03  0.00000000000E+00 0. -1.
          2   -1    0    0  501    0  0.00000000000E+00 -0.00000000000E+00 -0.36971443531E+04  0.36971443531E+04  0.00000000000E+00 0.  1.
         23    2    1    2    0    0 -0.27646914786E+03 -0.59133965965E+03 -0.96151854667E+03  0.11657920511E+04  0.91844477988E+02 0.  0.
    5000000    2    1    2    0    0  0.27646914786E+03  0.59133965965E+03 -0.25588633331E+04  0.27081147754E+04  0.59998858049E+03 0.  0.
         23    2    4    4    0    0  0.23408874043E+03  0.19768103706E+03 -0.40837394581E+03  0.51907605062E+03  0.93783452186E+02 0.  0.
         23    2    4    4    0    0  0.42380407436E+02  0.39365862259E+03 -0.21504893872E+04  0.21890387248E+04  0.10258032892E+03 0.  0.
          1    1    3    3  502    0 -0.18969656864E+03 -0.37585018663E+03 -0.54263345268E+03  0.68680362180E+03  0.00000000000E+00 0. -1.
         -1    1    3    3    0  502 -0.86772579217E+02 -0.21548947302E+03 -0.41888509399E+03  0.47898842935E+03  0.00000000000E+00 0.  1.
         11    1    5    5    0    0  0.32756188691E+02  0.73183791491E+02 -0.72026459450E+02  0.10778054600E+03  0.00000000000E+00 0. -1.
        -11    1    5    5    0    0  0.20133255174E+03  0.12449724557E+03 -0.33634748636E+03  0.41129550463E+03  0.00000000000E+00 0.  1.
          3    1    6    6  503    0  0.50137341338E+02  0.16211868876E+03 -0.70720557514E+03  0.72727982768E+03  0.00000000000E+00 0. -1.
         -3    1    6    6    0  503 -0.77569339017E+01  0.23153993383E+03 -0.14432838121E+04  0.14617588971E+04  0.00000000000E+00 0.  1.
<mgrwt>
<rscale>  0 0.68578636E+03</rscale>
<asrwt>0</asrwt>
<pdfrwt beam="1">  1        2 0.56879140E+00 0.68578636E+03</pdfrwt>
<pdfrwt beam="2">  1       -2 0.27194229E-01 0.68578636E+03</pdfrwt>
<totfact> 0.79591427E+00</totfact>
</mgrwt>
</event>
<event>
12    1  0.1335216E-007  0.1601558E+04  0.7818608E-02  0.8819592E-01
          2   -1    0    0  501    0  0.00000000000E+00  0.00000000000E+00  0.19375310496E+04  0.19375310496E+04  0.00000000000E+00 0. -1.
         -2   -1    0    0    0  501 -0.00000000000E+00 -0.00000000000E+00 -0.16414583561E+04  0.16414583561E+04  0.00000000000E+00 0.  1.
         23    2    1    2    0    0 -0.74847824806E+03 -0.13848949148E+04  0.86800010564E+03  0.17998996098E+04  0.89782009835E+02 0.  0.
    5000000    2    1    2    0    0  0.74847824806E+03  0.13848949148E+04 -0.57192741219E+03  0.17790897958E+04  0.59992159821E+03 0.  0.
         23    2    4    4    0    0  0.16205664966E+02  0.34138749820E+02  0.59933121754E+02  0.11533153207E+03  0.91001677949E+02 0.  0.
         23    2    4    4    0    0  0.73227258309E+03  0.13507561650E+04 -0.63186053394E+03  0.16637582638E+04  0.89880324552E+02 0.  0.
          1    1    3    3  502    0 -0.67959866029E+03 -0.12799417962E+04  0.82285371243E+03  0.16664913960E+04  0.00000000000E+00 0. -1.
         -1    1    3    3    0  502 -0.68879587769E+02 -0.10495311856E+03  0.45146393205E+02  0.13340821386E+03  0.00000000000E+00 0.  1.
         11    1    5    5    0    0  0.35690385954E+02 -0.15245746001E+02  0.46501913092E+02  0.60569500096E+02  0.00000000000E+00 0. -1.
        -11    1    5    5    0    0 -0.19484720988E+02  0.49384495821E+02  0.13431208662E+02  0.54762031971E+02  0.00000000000E+00 0.  1.
          1    1    6    6  503    0  0.19803666380E+03  0.35694652900E+03 -0.21108436326E+03  0.45954972875E+03  0.00000000000E+00 0. -1.
         -1    1    6    6    0  503  0.53423591930E+03  0.99380963596E+03 -0.42077617068E+03  0.12042085350E+04  0.00000000000E+00 0.  1.
<mgrwt>
<rscale>  0 0.16015577E+04</rscale>
<asrwt>0</asrwt>
<pdfrwt beam="1">  1        2 0.29808170E+00 0.16015577E+04</pdfrwt>
<pdfrwt beam="2">  1       -2 0.25253206E+00 0.16015577E+04</pdfrwt>
<totfact> 0.41631821E-01</totfact>
</mgrwt>
</event>
<event>
12    1  0.1335216E-007  0.8977772E+03  0.7818608E-02  0.9428364E-01
         -2   -1    0    0    0  501 -0.00000000000E+00  0.00000000000E+00  0.68630768579E+03  0.68630768579E+03  0.00000000000E+00 0.  1.
          2   -1    0    0  501    0  0.00000000000E+00 -0.00000000000E+00 -0.11914925284E+04  0.11914925284E+04  0.00000000000E+00 0. -1.
         23    2    1    2    0    0  0.17192661270E+03 -0.78276142674E+03 -0.19340258863E+03  0.82923057217E+03  0.89132312805E+02 0.  0.
    5000000    2    1    2    0    0 -0.17192661270E+03  0.78276142674E+03 -0.31178225395E+03  0.10485696420E+04  0.60001325724E+03 0.  0.
         23    2    4    4    0    0  0.11977436865E+02  0.78730809783E+03 -0.28440306546E+03  0.84210534608E+03  0.90877996998E+02 0.  0.
         23    2    4    4    0    0 -0.18390404957E+03 -0.45466710932E+01 -0.27379188483E+02  0.20646429591E+03  0.89646605378E+02 0.  0.
          1    1    3    3  502    0  0.11047000666E+03 -0.45636440722E+03 -0.15705840371E+03  0.49511557916E+03  0.00000000000E+00 0. -1.
         -1    1    3    3    0  502  0.61456606043E+02 -0.32639701952E+03 -0.36344184914E+02  0.33411499301E+03  0.00000000000E+00 0.  1.
         11    1    5    5    0    0 -0.24240267260E+02  0.10779263014E+03 -0.21220260097E+02  0.11250396041E+03  0.00000000000E+00 0. -1.
        -11    1    5    5    0    0  0.36217704125E+02  0.67951546770E+03 -0.26318280537E+03  0.72960138567E+03  0.00000000000E+00 0.  1.
          3    1    6    6  503    0 -0.66389692458E+02  0.39688820484E+02 -0.23501668298E+02  0.80840102355E+02  0.00000000000E+00 0. -1.
         -3    1    6    6    0  503 -0.11751435711E+03 -0.44235491577E+02 -0.38775201850E+01  0.12562419355E+03  0.00000000000E+00 0.  1.
<mgrwt>
<rscale>  0 0.89777718E+03</rscale>
<asrwt>0</asrwt>
<pdfrwt beam="1">  1        2 0.18330654E+00 0.89777718E+03</pdfrwt>
<pdfrwt beam="2">  1       -2 0.10558580E+00 0.89777718E+03</pdfrwt>
<totfact> 0.13944854E+01</totfact>
</mgrwt>
</event>
<event>
12    1  0.1335216E-007  0.7685427E+03  0.7818608E-02  0.9606701E-01
         -2   -1    0    0    0  501 -0.00000000000E+00  0.00000000000E+00  0.38190734429E+03  0.38190734429E+03  0.00000000000E+00 0. -1.
          2   -1    0    0  501    0  0.00000000000E+00 -0.00000000000E+00 -0.23627885692E+04  0.23627885692E+04  0.00000000000E+00 0.  1.
         23    2    1    2    0    0 -0.60573080585E+03  0.26514172660E+03 -0.11770546209E+03  0.67861740014E+03  0.97247393896E+02 0.  0.
    5000000    2    1    2    0    0  0.60573080585E+03 -0.26514172660E+03 -0.18631757629E+04  0.20660785134E+04  0.60003879530E+03 0.  0.
         23    2    4    4    0    0  0.33219861526E+03  0.15274754916E+03 -0.65638894696E+03  0.75686148307E+03  0.91132437164E+02 0.  0.
         23    2    4    4    0    0  0.27353219059E+03 -0.41788927576E+03 -0.12067868159E+04  0.13092170303E+04  0.90903835908E+02 0.  0.
          1    1    3    3  502    0 -0.24155843314E+03  0.72246586424E+02 -0.84336411809E+01  0.25227202020E+03  0.00000000000E+00 0. -1.
         -1    1    3    3    0  502 -0.36417237271E+03  0.19289514018E+03 -0.10927182091E+03  0.42634537994E+03  0.00000000000E+00 0.  1.
         11    1    5    5    0    0  0.23555700078E+03  0.84191476742E+02 -0.51385848282E+03  0.57151189466E+03  0.00000000000E+00 0.  1.
        -11    1    5    5    0    0  0.96641614478E+02  0.68556072419E+02 -0.14253046415E+03  0.18534958841E+03  0.00000000000E+00 0. -1.
          4    1    6    6  503    0  0.18265560048E+03 -0.33324729949E+03 -0.97117170269E+03  0.10428764582E+04  0.00000000000E+00 0. -1.
         -4    1    6    6    0  503  0.90876590111E+02 -0.84641976277E+02 -0.23561511321E+03  0.26634057211E+03  0.00000000000E+00 0.  1.
<mgrwt>
<rscale>  0 0.76854267E+03</rscale>
<asrwt>0</asrwt>
<pdfrwt beam="1">  1        2 0.36350593E+00 0.76854267E+03</pdfrwt>
<pdfrwt beam="2">  1       -2 0.58754976E-01 0.76854267E+03</pdfrwt>
<totfact> 0.11770560E+01</totfact>
</mgrwt>
</event>
<event>
12    1  0.1335216E-007  0.2321464E+04  0.7818608E-02  0.8469506E-01
          2   -1    0    0  501    0  0.00000000000E+00  0.00000000000E+00  0.27271345648E+04  0.27271345648E+04  0.00000000000E+00 0. -1.
         -2   -1    0    0    0  501 -0.00000000000E+00 -0.00000000000E+00 -0.20099552034E+04  0.20099552034E+04  0.00000000000E+00 0.  1.
         23    2    1    2    0    0 -0.40418773925E+02  0.23013715187E+04  0.32353766070E+03  0.23261082788E+04  0.90324760976E+02 0.  0.
    5000000    2    1    2    0    0  0.40418773925E+02 -0.23013715187E+04  0.39364170071E+03  0.24109814895E+04  0.59994450553E+03 0.  0.
         23    2    4    4    0    0  0.12594989847E+03 -0.26778012869E+03 -0.76658838315E+02  0.32015858820E+03  0.95159707147E+02 0.  0.
         23    2    4    4    0    0 -0.85531124543E+02 -0.20335913900E+04  0.47030053903E+03  0.20908229013E+04  0.86880911050E+02 0.  0.
          1    1    3    3  502    0 -0.62896447651E+02  0.12784764891E+04  0.19946887271E+03  0.12954713148E+04  0.00000000000E+00 0. -1.
         -1    1    3    3    0  502  0.22477673726E+02  0.10228950296E+04  0.12406878799E+03  0.10306369640E+04  0.00000000000E+00 0.  1.
         13    1    5    5    0    0  0.12243539585E+03 -0.27206940754E+03 -0.62324884759E+02  0.30478940260E+03  0.00000000000E+00 0.  1.
        -13    1    5    5    0    0  0.35145026154E+01  0.42892788481E+01 -0.14333953557E+02  0.15369185608E+02  0.00000000000E+00 0. -1.
          1    1    6    6  503    0 -0.35569158129E+02 -0.13434402742E+04  0.34672730999E+03  0.13879181398E+04  0.00000000000E+00 0. -1.
         -1    1    6    6    0  503 -0.49961966414E+02 -0.69015111583E+03  0.12357322904E+03  0.70290476147E+03  0.00000000000E+00 0.  1.
<mgrwt>
<rscale>  0 0.23214636E+04</rscale>
<asrwt>0</asrwt>
<pdfrwt beam="1">  1        2 0.41955916E+00 0.23214636E+04</pdfrwt>
<pdfrwt beam="2">  1       -2 0.30922388E+00 0.23214636E+04</pdfrwt>
<totfact> 0.61258270E-02</totfact>
</mgrwt>
</event>
<event>
12    1  0.1335216E-007  0.6683614E+03  0.7818608E-02  0.9772922E-01
         -2   -1    0    0    0  501 -0.00000000000E+00  0.00000000000E+00  0.46714052855E+03  0.46714052855E+03  0.00000000000E+00 0.  1.
          2   -1    0    0  501    0  0.00000000000E+00 -0.00000000000E+00 -0.14792695788E+04  0.14792695788E+04  0.00000000000E+00 0. -1.
         23    2    1    2    0    0 -0.42464225606E+03 -0.34006828506E+03  0.11013642205E+03  0.56238123057E+03  0.90416441562E+02 0.  0.
    5000000    2    1    2    0    0  0.42464225606E+03  0.34006828506E+03 -0.11222654723E+04  0.13840288767E+04  0.60007387651E+03 0.  0.
         23    2    4    4    0    0  0.13976037141E+03  0.44704416326E+03 -0.80209238915E+03  0.93317097883E+03  0.89857830311E+02 0.  0.
         23    2    4    4    0    0  0.28488188465E+03 -0.10697587820E+03 -0.32017308312E+03  0.45085789792E+03  0.90335564655E+02 0.  0.
          4    1    3    3  502    0 -0.99166104764E+02 -0.13041040211E+03  0.21822375078E+02  0.16527856899E+03  0.00000000000E+00 0. -1.
         -4    1    3    3    0  502 -0.32547615130E+03 -0.20965788295E+03  0.88314046973E+02  0.39710266158E+03  0.00000000000E+00 0.  1.
         13    1    5    5    0    0  0.44996958797E+02  0.12372277749E+03 -0.30991618701E+03  0.33671960879E+03  0.00000000000E+00 0. -1.
        -13    1    5    5    0    0  0.94763412613E+02  0.32332138577E+03 -0.49217620214E+03  0.59645137004E+03  0.00000000000E+00 0.  1.
          3    1    6    6  503    0  0.18286394187E+03 -0.11300518127E+03 -0.22561012478E+03  0.31162368433E+03  0.00000000000E+00 0. -1.
         -3    1    6    6    0  503  0.10201794278E+03  0.60293030652E+01 -0.94562958340E+02  0.13923421359E+03  0.00000000000E+00 0.  1.
<mgrwt>
<rscale>  0 0.66836143E+03</rscale>
<asrwt>0</asrwt>
<pdfrwt beam="1">  1        2 0.22757993E+00 0.66836143E+03</pdfrwt>
<pdfrwt beam="2">  1       -2 0.71867774E-01 0.66836143E+03</pdfrwt>
<totfact> 0.23659602E+01</totfact>
</mgrwt>
</event>
<event>
12    1  0.1335216E-007  0.3273054E+03  0.7818608E-02  0.1072335E+00
         -2   -1    0    0    0  501 -0.00000000000E+00  0.00000000000E+00  0.52296580362E+03  0.52296580362E+03  0.00000000000E+00 0.  1.
          2   -1    0    0  501    0  0.00000000000E+00 -0.00000000000E+00 -0.47253059401E+03  0.47253059401E+03  0.00000000000E+00 0. -1.
         23    2    1    2    0    0  0.19061017747E+03 -0.11478274147E+03  0.22815426318E+03  0.33150529388E+03  0.91291152742E+02 0.  0.
    5000000    2    1    2    0    0 -0.19061017747E+03  0.11478274147E+03 -0.17771905357E+03  0.66399110376E+03  0.59982731380E+03 0.  0.
         23    2    4    4    0    0 -0.10698162408E+02  0.21103286930E+03  0.14389193835E+03  0.27204383695E+03  0.93024925112E+02 0.  0.
         23    2    4    4    0    0 -0.17991201506E+03 -0.96250127836E+02 -0.32161099193E+03  0.39194726681E+03  0.92501943552E+02 0.  0.
          4    1    3    3  502    0  0.10113574242E+03 -0.22717450145E+02  0.59402944925E+02  0.11947062736E+03  0.00000000000E+00 0. -1.
         -4    1    3    3    0  502  0.89474435050E+02 -0.92065291321E+02  0.16875131826E+03  0.21203466652E+03  0.00000000000E+00 0.  1.
         13    1    5    5    0    0 -0.18091635679E+02  0.12962295569E+03  0.13783710919E+03  0.19007494994E+03  0.00000000000E+00 0. -1.
        -13    1    5    5    0    0  0.73934732710E+01  0.81409913610E+02  0.60548291628E+01  0.81968887007E+02  0.00000000000E+00 0.  1.
          4    1    6    6  503    0 -0.11968054426E+03 -0.36532867908E+02 -0.25518685812E+03  0.28421543883E+03  0.00000000000E+00 0.  1.
         -4    1    6    6    0  503 -0.60231470802E+02 -0.59717259929E+02 -0.66424133807E+02  0.10773182798E+03  0.00000000000E+00 0. -1.
<mgrwt>
<rscale>  0 0.32730539E+03</rscale>
<asrwt>0</asrwt>
<pdfrwt beam="1">  1        2 0.72697015E-01 0.32730539E+03</pdfrwt>
<pdfrwt beam="2">  1       -2 0.80456277E-01 0.32730539E+03</pdfrwt>
<totfact> 0.93696419E+01</totfact>
</mgrwt>
</event>
<event>
12    1  0.1335216E-007  0.5641565E+03  0.7818608E-02  0.9982694E-01
         -1   -1    0    0    0  501 -0.00000000000E+00  0.00000000000E+00  0.27343383333E+03  0.27343383333E+03  0.00000000000E+00 0.  1.
          1   -1    0    0  501    0  0.00000000000E+00 -0.00000000000E+00 -0.19925149469E+04  0.19925149469E+04  0.00000000000E+00 0. -1.
         23    2    1    2    0    0 -0.25601944274E+03  0.38147780916E+03 -0.99764302540E+02  0.47896446112E+03  0.91557441023E+02 0.  0.
    5000000    2    1    2    0    0  0.25601944274E+03 -0.38147780916E+03 -0.16193168111E+04  0.17869843191E+04  0.60004562187E+03 0.  0.
         23    2    4    4    0    0  0.32476629008E+03 -0.53241963808E+02 -0.11697006789E+04  0.12184224276E+04  0.89697737686E+02 0.  0.
         23    2    4    4    0    0 -0.68746847348E+02 -0.32823584536E+03 -0.44961613220E+03  0.56856189151E+03  0.92968053335E+02 0.  0.
          3    1    3    3  502    0 -0.57423207406E+02  0.11673253083E+03 -0.67169756966E+02  0.14640930556E+03  0.00000000000E+00 0. -1.
         -3    1    3    3    0  502 -0.19859623533E+03  0.26474527833E+03 -0.32594545574E+02  0.33255515556E+03  0.00000000000E+00 0.  1.
         11    1    5    5    0    0  0.20310481259E+03 -0.48401595425E+02 -0.58405172466E+03  0.62025051102E+03  0.00000000000E+00 0. -1.
        -11    1    5    5    0    0  0.12166147749E+03 -0.48403683833E+01 -0.58564895421E+03  0.59817191662E+03  0.00000000000E+00 0.  1.
          3    1    6    6  503    0 -0.52812348809E+02 -0.17887597217E+03 -0.31892584475E+03  0.36945832249E+03  0.00000000000E+00 0.  1.
         -3    1    6    6    0  503 -0.15934498540E+02 -0.14935987318E+03 -0.13069028745E+03  0.19910356901E+03  0.00000000000E+00 0. -1.
<mgrwt>
<rscale>  0 0.56415645E+03</rscale>
<asrwt>0</asrwt>
<pdfrwt beam="1">  1        1 0.30654076E+00 0.56415645E+03</pdfrwt>
<pdfrwt beam="2">  1       -1 0.42066744E-01 0.56415645E+03</pdfrwt>
<totfact> 0.17984696E+01</totfact>
</mgrwt>
</event>
<event>
12    1  0.1335216E-007  0.1601215E+04  0.7818608E-02  0.8819802E-01
         -2   -1    0    0    0  501 -0.00000000000E+00  0.00000000000E+00  0.16353477646E+04  0.16353477646E+04  0.00000000000E+00 0.  1.
          2   -1    0    0  501    0  0.00000000000E+00 -0.00000000000E+00 -0.18188237997E+04  0.18188237997E+04  0.00000000000E+00 0. -1.
         23    2    1    2    0    0  0.15475403422E+04 -0.66664380757E+02  0.53936233024E+03  0.16426244965E+04  0.89321122166E+02 0.  0.
    5000000    2    1    2    0    0 -0.15475403422E+04  0.66664380757E+02 -0.72283836533E+03  0.18115470677E+04  0.59990184684E+03 0.  0.
         23    2    4    4    0    0 -0.98541447668E+03 -0.23147404017E+03 -0.48308272793E+03  0.11249196096E+04  0.86332403466E+02 0.  0.
         23    2    4    4    0    0 -0.56212586552E+03  0.29813842092E+03 -0.23975563740E+03  0.68662745815E+03  0.95406990871E+02 0.  0.
          4    1    3    3  502    0  0.60669701612E+03 -0.68626968263E+02  0.20160331356E+03  0.64298897828E+03  0.00000000000E+00 0. -1.
         -4    1    3    3    0  502  0.94084332608E+03  0.19625875068E+01  0.33775901668E+03  0.99963551824E+03  0.00000000000E+00 0.  1.
         11    1    5    5    0    0 -0.53177047439E+03 -0.15284062352E+03 -0.22671185543E+03  0.59794511372E+03  0.00000000000E+00 0. -1.
        -11    1    5    5    0    0 -0.45364400229E+03 -0.78633416649E+02 -0.25637087250E+03  0.52697449587E+03  0.00000000000E+00 0.  1.
          1    1    6    6  503    0 -0.17054992688E+03  0.71979875144E+02 -0.11348633911E+03  0.21713481791E+03  0.00000000000E+00 0. -1.
         -1    1    6    6    0  503 -0.39157593863E+03  0.22615854578E+03 -0.12626929829E+03  0.46949264024E+03  0.00000000000E+00 0.  1.
<mgrwt>
<rscale>  0 0.16012153E+04</rscale>
<asrwt>0</asrwt>
<pdfrwt beam="1">  1        2 0.27981905E+00 0.16012153E+04</pdfrwt>
<pdfrwt beam="2">  1       -2 0.25159196E+00 0.16012153E+04</pdfrwt>
<totfact> 0.49145727E-01</totfact>
</mgrwt>
</event>
<event>
12    1  0.1335216E-007  0.1174004E+04  0.7818608E-02  0.9135920E-01
         -2   -1    0    0    0  501 -0.00000000000E+00  0.00000000000E+00  0.56569244379E+03  0.56569244379E+03  0.00000000000E+00 0.  1.
          2   -1    0    0  501    0  0.00000000000E+00 -0.00000000000E+00 -0.31225287357E+04  0.31225287357E+04  0.00000000000E+00 0. -1.
         23    2    1    2    0    0  0.10270511933E+04 -0.45003657416E+03 -0.20111557600E+04  0.23044045467E+04  0.90364550471E+02 0.  0.
    5000000    2    1    2    0    0 -0.10270511933E+04  0.45003657416E+03 -0.54568053188E+03  0.13838166328E+04  0.59984511210E+03 0.  0.
         23    2    4    4    0    0 -0.33405958894E+03 -0.81878073907E+02 -0.31759320422E+03  0.47627002787E+03  0.87566364169E+02 0.  0.
         23    2    4    4    0    0 -0.69299160438E+03  0.53191464806E+03 -0.22808732766E+03  0.90754660491E+03  0.91904594416E+02 0.  0.
          3    1    3    3  502    0  0.15609720658E+03 -0.10393481334E+03 -0.35273230846E+03  0.39948575038E+03  0.00000000000E+00 0. -1.
         -3    1    3    3    0  502  0.87095398674E+03 -0.34610176082E+03 -0.16584234515E+04  0.19049187963E+04  0.00000000000E+00 0.  1.
         13    1    5    5    0    0 -0.27576256797E+03 -0.44112543427E+02 -0.21531489979E+03  0.35263496204E+03  0.00000000000E+00 0. -1.
        -13    1    5    5    0    0 -0.58297020970E+02 -0.37765530480E+02 -0.10227830443E+03  0.12363506583E+03  0.00000000000E+00 0.  1.
          1    1    6    6  503    0 -0.40737693636E+03  0.28730308669E+03 -0.87713441159E+02  0.50615479812E+03  0.00000000000E+00 0. -1.
         -1    1    6    6    0  503 -0.28561466802E+03  0.24461156137E+03 -0.14037388650E+03  0.40139180679E+03  0.00000000000E+00 0.  1.
<mgrwt>
<rscale>  0 0.11740036E+04</rscale>
<asrwt>0</asrwt>
<pdfrwt beam="1">  1        2 0.48038904E+00 0.11740036E+04</pdfrwt>
<pdfrwt beam="2">  1       -2 0.87029606E-01 0.11740036E+04</pdfrwt>
<totfact> 0.16586069E+00</totfact>
</mgrwt>
</event>
<event>
12    1  0.1335216E-007  0.4321049E+03  0.7818608E-02  0.1033197E+00
         -2   -1    0    0    0  501 -0.00000000000E+00  0.00000000000E+00  0.15006313213E+03  0.15006313213E+03  0.00000000000E+00 0.  1.
          2   -1    0    0  501    0  0.00000000000E+00 -0.00000000000E+00 -0.16087229298E+04  0.16087229298E+04  0.00000000000E+00 0. -1.
         23    2    1    2    0    0 -0.28976528924E+03 -0.48191589939E+02 -0.56053259456E+03  0.63952843846E+03  0.92268531143E+02 0.  0.
    5000000    2    1    2    0    0  0.28976528924E+03  0.48191589939E+02 -0.89812720310E+03  0.11192576235E+04  0.59984898312E+03 0.  0.
         23    2    4    4    0    0  0.30100739606E+02 -0.18970045669E+03 -0.63332779405E+03  0.66804942661E+03  0.91069335583E+02 0.  0.
         23    2    4    4    0    0  0.25966454963E+03  0.23789204663E+03 -0.26479940904E+03  0.45120819685E+03  0.97220397500E+02 0.  0.
          4    1    3    3  502    0 -0.13711831179E+03 -0.60992314252E+02 -0.22216704041E+03  0.26810387477E+03  0.00000000000E+00 0. -1.
         -4    1    3    3    0  502 -0.15264697745E+03  0.12800724314E+02 -0.33836555416E+03  0.37142456368E+03  0.00000000000E+00 0.  1.
         13    1    5    5    0    0 -0.18226480291E+02 -0.34031054941E+02 -0.22679192137E+03  0.23005410860E+03  0.00000000000E+00 0. -1.
        -13    1    5    5    0    0  0.48327219897E+02 -0.15566940175E+03 -0.40653587268E+03  0.43799531801E+03  0.00000000000E+00 0.  1.
          3    1    6    6  503    0  0.18148722751E+03  0.20699791369E+03 -0.16592111659E+03  0.32142738986E+03  0.00000000000E+00 0. -1.
         -3    1    6    6    0  503  0.78177322125E+02  0.30894132936E+02 -0.98878292456E+02  0.12978080699E+03  0.00000000000E+00 0.  1.
<mgrwt>
<rscale>  0 0.43210495E+03</rscale>
<asrwt>0</asrwt>
<pdfrwt beam="1">  1        2 0.24749584E+00 0.43210495E+03</pdfrwt>
<pdfrwt beam="2">  1       -2 0.23086635E-01 0.43210495E+03</pdfrwt>
<totfact> 0.19169970E+02</totfact>
</mgrwt>
</event>
<event>
12    1  0.1335216E-007  0.1219479E+04  0.7818608E-02  0.9095976E-01
         -3   -1    0    0    0  501 -0.00000000000E+00  0.00000000000E+00  0.12014264675E+04  0.12014264675E+04  0.00000000000E+00 0.  1.
          3   -1    0    0  501    0  0.00000000000E+00 -0.00000000000E+00 -0.12865643427E+04  0.12865643427E+04  0.00000000000E+00 0. -1.
         23    2    1    2    0    0 -0.14879528449E+03 -0.11488615664E+04 -0.19683361045E+03  0.11786273982E+04  0.91630443218E+02 0.  0.
    5000000    2    1    2    0    0  0.14879528449E+03  0.11488615664E+04  0.11169573524E+03  0.13093634120E+04  0.59994472399E+03 0.  0.
         23    2    4    4    0    0  0.32379303116E+03  0.96219886665E+03  0.10221713237E+02  0.10193928804E+04  0.91590256721E+02 0.  0.
         23    2    4    4    0    0 -0.17499774668E+03  0.18666269976E+03  0.10147402200E+03  0.28997053158E+03  0.91207221332E+02 0.  0.
          2    1    3    3  502    0 -0.91297388810E+02 -0.37106077467E+03 -0.61106426248E+02  0.38698230842E+03  0.00000000000E+00 0. -1.
         -2    1    3    3    0  502 -0.57497895675E+02 -0.77780079174E+03 -0.13572718421E+03  0.79164508978E+03  0.00000000000E+00 0.  1.
         11    1    5    5    0    0  0.21179637288E+03  0.75087442032E+03  0.73416237544E+01  0.78020766344E+03  0.00000000000E+00 0. -1.
        -11    1    5    5    0    0  0.11199665828E+03  0.21132444632E+03  0.28800894830E+01  0.23918521693E+03  0.00000000000E+00 0.  1.
          3    1    6    6  503    0 -0.81638383016E+02  0.65860963460E+02  0.87613433412E+02  0.13666969600E+03  0.00000000000E+00 0. -1.
         -3    1    6    6    0  503 -0.93359363659E+02  0.12080173630E+03  0.13860588588E+02  0.15330083559E+03  0.00000000000E+00 0.  1.
<mgrwt>
<rscale>  0 0.12194786E+04</rscale>
<asrwt>0</asrwt>
<pdfrwt beam="1">  1        3 0.19793298E+00 0.12194786E+04</pdfrwt>
<pdfrwt beam="2">  1       -3 0.18483484E+00 0.12194786E+04</pdfrwt>
<totfact> 0.69152055E-02</totfact>
</mgrwt>
</event>
<event>
12    1  0.1335216E-007  0.1081194E+04  0.7818608E-02  0.9223718E-01
          2   -1    0    0  501    0  0.00000000000E+00  0.00000000000E+00  0.29264142332E+04  0.29264142332E+04  0.00000000000E+00 0.  1.
         -2   -1    0    0    0  501 -0.00000000000E+00 -0.00000000000E+00 -0.45285915823E+03  0.45285915823E+03  0.00000000000E+00 0. -1.
         23    2    1    2    0    0  0.48767932042E+03  0.94812349138E+03  0.13008710476E+04  0.16845243008E+04  0.92668027377E+02 0.  0.
    5000000    2    1    2    0    0 -0.48767932042E+03 -0.94812349138E+03  0.11726840275E+04  0.16947490906E+04  0.60018112055E+03 0.  0.
         23    2    4    4    0    0 -0.22590076869E+03 -0.61885989732E+03  0.10559150625E+04  0.12477558294E+04  0.88990228322E+02 0.  0.
         23    2    4    4    0    0 -0.26177855172E+03 -0.32926359407E+03  0.11676896492E+03  0.44699326122E+03  0.96049257597E+02 0.  0.
          4    1    3    3  502    0  0.18644964411E+03  0.44657986915E+03  0.54898354792E+03  0.73183330425E+03  0.00000000000E+00 0.  1.
         -4    1    3    3    0  502  0.30122967631E+03  0.50154362223E+03  0.75188749964E+03  0.95269099660E+03  0.00000000000E+00 0. -1.
         13    1    5    5    0    0 -0.17241875900E+03 -0.54801411018E+03  0.94162177008E+03  0.11030409110E+04  0.00000000000E+00 0. -1.
        -13    1    5    5    0    0 -0.53482009689E+02 -0.70845787136E+02  0.11429329246E+03  0.14471491843E+03  0.00000000000E+00 0.  1.
          2    1    6    6  503    0 -0.21982130392E+03 -0.21121471059E+03  0.66608051658E+02  0.31204117063E+03  0.00000000000E+00 0. -1.
         -2    1    6    6    0  503 -0.41957247809E+02 -0.11804888348E+03  0.50160913260E+02  0.13495209058E+03  0.00000000000E+00 0.  1.
<mgrwt>
<rscale>  0 0.10811937E+04</rscale>
<asrwt>0</asrwt>
<pdfrwt beam="1">  1        2 0.45021756E+00 0.10811937E+04</pdfrwt>
<pdfrwt beam="2">  1       -2 0.69670642E-01 0.10811937E+04</pdfrwt>
<totfact> 0.36663878E+00</totfact>
</mgrwt>
</event>
<event>
12    1  0.1335216E-007  0.4760229E+03  0.7818608E-02  0.1020234E+00
          2   -1    0    0  501    0  0.00000000000E+00  0.00000000000E+00  0.32522961094E+04  0.32522961094E+04  0.00000000000E+00 0. -1.
         -2   -1    0    0    0  501 -0.00000000000E+00 -0.00000000000E+00 -0.13881592044E+03  0.13881592044E+03  0.00000000000E+00 0.  1.
         23    2    1    2    0    0 -0.46536513108E+03  0.20734132034E+02  0.59081792352E+03  0.75657884235E+03  0.79693892452E+02 0.  0.
    5000000    2    1    2    0    0  0.46536513108E+03 -0.20734132034E+02  0.25226622654E+04  0.26345331874E+04  0.59995466581E+03 0.  0.
         23    2    4    4    0    0  0.25387754175E+03  0.25853444626E+02  0.22827027733E+04  0.22986130949E+04  0.88136269696E+02 0.  0.
         23    2    4    4    0    0  0.21148758933E+03 -0.46587576659E+02  0.23995949207E+03  0.33592009251E+03  0.91456809366E+02 0.  0.
          3    1    3    3  502    0 -0.21890228816E+03  0.49496889992E+02  0.27628739617E+03  0.35595347893E+03  0.00000000000E+00 0. -1.
         -3    1    3    3    0  502 -0.24646284292E+03 -0.28762757959E+02  0.31453052735E+03  0.40062536342E+03  0.00000000000E+00 0.  1.
         13    1    5    5    0    0  0.82350072549E+02  0.15915143417E+02  0.44039151790E+03  0.44830738927E+03  0.00000000000E+00 0.  1.
        -13    1    5    5    0    0  0.17152746920E+03  0.99383012086E+01  0.18423112554E+04  0.18503057057E+04  0.00000000000E+00 0. -1.
          3    1    6    6  503    0  0.37266935928E+02 -0.31720626916E+02  0.15381908582E+02  0.51299374236E+02  0.00000000000E+00 0. -1.
         -3    1    6    6    0  503  0.17422065340E+03 -0.14866949743E+02  0.22457758349E+03  0.28462071827E+03  0.00000000000E+00 0.  1.
<mgrwt>
<rscale>  0 0.47602291E+03</rscale>
<asrwt>0</asrwt>
<pdfrwt beam="1">  1        2 0.50035319E+00 0.47602291E+03</pdfrwt>
<pdfrwt beam="2">  1       -2 0.21356298E-01 0.47602291E+03</pdfrwt>
<totfact> 0.25728213E+01</totfact>
</mgrwt>
</event>
<event>
12    1  0.1335216E-007  0.8598210E+03  0.7818608E-02  0.9477249E-01
         -2   -1    0    0    0  501 -0.00000000000E+00  0.00000000000E+00  0.40623307207E+03  0.40623307207E+03  0.00000000000E+00 0.  1.
          2   -1    0    0  501    0  0.00000000000E+00 -0.00000000000E+00 -0.37157008707E+04  0.37157008707E+04  0.00000000000E+00 0. -1.
         23    2    1    2    0    0 -0.76072635529E+03 -0.12044671729E+03 -0.29998994411E+04  0.30987946017E+04  0.99595819007E+02 0.  0.
    5000000    2    1    2    0    0  0.76072635529E+03  0.12044671729E+03 -0.30956835751E+03  0.10231393411E+04  0.59813839868E+03 0.  0.
         23    2    4    4    0    0  0.22535785959E+03  0.29320221312E+03 -0.23632349933E+03  0.44857378346E+03  0.92822089028E+02 0.  0.
         23    2    4    4    0    0  0.53536849571E+03 -0.17275549583E+03 -0.73244858177E+02  0.57456555764E+03  0.91087228742E+02 0.  0.
          2    1    3    3  502    0 -0.54741788515E+03 -0.51196746708E+02 -0.20129421292E+04  0.20866776137E+04  0.00000000000E+00 0. -1.
         -2    1    3    3    0  502 -0.21330847014E+03 -0.69249970578E+02 -0.98695731188E+03  0.10121169880E+04  0.00000000000E+00 0.  1.
         13    1    5    5    0    0  0.21997434177E+03  0.23258302343E+03 -0.20481505418E+03  0.38004312945E+03  0.00000000000E+00 0.  1.
        -13    1    5    5    0    0  0.53835178209E+01  0.60619189686E+02 -0.31508445156E+02  0.68530654006E+02  0.00000000000E+00 0. -1.
          1    1    6    6  503    0  0.22017117296E+03 -0.46453826349E+02  0.89571251773E+01  0.22519665512E+03  0.00000000000E+00 0. -1.
         -1    1    6    6    0  503  0.31519732274E+03 -0.12630166948E+03 -0.82201983354E+02  0.34936890252E+03  0.00000000000E+00 0.  1.
<mgrwt>
<rscale>  0 0.85982102E+03</rscale>
<asrwt>0</asrwt>
<pdfrwt beam="1">  1        2 0.57164631E+00 0.85982102E+03</pdfrwt>
<pdfrwt beam="2">  1       -2 0.62497394E-01 0.85982102E+03</pdfrwt>
<totfact> 0.14460156E+00</totfact>
</mgrwt>
</event>
<event>
12    1  0.1335216E-007  0.7154084E+03  0.7818608E-02  0.9691239E-01
          2   -1    0    0  501    0  0.00000000000E+00  0.00000000000E+00  0.48456622538E+03  0.48456622538E+03  0.00000000000E+00 0. -1.
         -2   -1    0    0    0  501 -0.00000000000E+00 -0.00000000000E+00 -0.13679908092E+04  0.13679908092E+04  0.00000000000E+00 0.  1.
         23    2    1    2    0    0 -0.47179343219E+03 -0.43152588548E+03 -0.58153548966E+02  0.64845694743E+03  0.91164384011E+02 0.  0.
    5000000    2    1    2    0    0  0.47179343219E+03  0.43152588548E+03 -0.82527103487E+03  0.12041000872E+04  0.59998425512E+03 0.  0.
         23    2    4    4    0    0  0.20841803934E+03  0.47226565610E+03 -0.74513054432E+03  0.91096013916E+03  0.90310121327E+02 0.  0.
         23    2    4    4    0    0  0.26337539285E+03 -0.40739770614E+02 -0.80140490553E+02  0.29313994799E+03  0.92098883884E+02 0.  0.
          4    1    3    3  502    0 -0.26642037093E+03 -0.25874057424E+03 -0.77451074169E+02  0.37937470619E+03  0.00000000000E+00 0. -1.
         -4    1    3    3    0  502 -0.20537306127E+03 -0.17278531124E+03  0.19297525204E+02  0.26908224125E+03  0.00000000000E+00 0.  1.
         13    1    5    5    0    0  0.11364831369E+03  0.35789859908E+03 -0.53660103866E+03  0.65494123486E+03  0.00000000000E+00 0.  1.
        -13    1    5    5    0    0  0.94769725646E+02  0.11436705702E+03 -0.20852950566E+03  0.25601890431E+03  0.00000000000E+00 0. -1.
          3    1    6    6  503    0  0.12033162379E+03 -0.10421121191E+02 -0.83575506193E+02  0.14687806061E+03  0.00000000000E+00 0. -1.
         -3    1    6    6    0  503  0.14304376906E+03 -0.30318649423E+02  0.34350156406E+01  0.14626188739E+03  0.00000000000E+00 0.  1.
<mgrwt>
<rscale>  0 0.71540843E+03</rscale>
<asrwt>0</asrwt>
<pdfrwt beam="1">  1        2 0.74548650E-01 0.71540843E+03</pdfrwt>
<pdfrwt beam="2">  1       -2 0.21046013E+00 0.71540843E+03</pdfrwt>
<totfact> 0.74457759E+00</totfact>
</mgrwt>
</event>
<event>
12    1  0.1335216E-007  0.1586749E+04  0.7818608E-02  0.8828730E-01
         -1   -1    0    0    0  501 -0.00000000000E+00  0.00000000000E+00  0.10072896849E+04  0.10072896849E+04  0.00000000000E+00 0.  1.
          1   -1    0    0  501    0  0.00000000000E+00 -0.00000000000E+00 -0.27528857194E+04  0.27528857194E+04  0.00000000000E+00 0. -1.
         23    2    1    2    0    0 -0.54025758617E+03  0.14746536197E+04 -0.12443475036E+04  0.20058245450E+04  0.91922999555E+02 0.  0.
    5000000    2    1    2    0    0  0.54025758617E+03 -0.14746536197E+04 -0.50124853081E+03  0.17543508593E+04  0.60001274175E+03 0.  0.
         23    2    4    4    0    0  0.47897248308E+03 -0.95876794740E+03 -0.57875514020E+03  0.12215958806E+04  0.93211408634E+02 0.  0.
         23    2    4    4    0    0  0.61285103099E+02 -0.51588567231E+03  0.77506609387E+02  0.53275497867E+03  0.89032028195E+02 0.  0.
          3    1    3    3  502    0 -0.20661475267E+03  0.44146677003E+03 -0.37855569404E+03  0.61716041557E+03  0.00000000000E+00 0. -1.
         -3    1    3    3    0  502 -0.33364283350E+03  0.10331868497E+04 -0.86579180961E+03  0.13886641294E+04  0.00000000000E+00 0.  1.
         11    1    5    5    0    0  0.15523503457E+03 -0.22078634688E+03 -0.14113099510E+03  0.30456934301E+03  0.00000000000E+00 0. -1.
        -11    1    5    5    0    0  0.32373744851E+03 -0.73798160053E+03 -0.43762414510E+03  0.91702653759E+03  0.00000000000E+00 0.  1.
          2    1    6    6  503    0 -0.41208157928E+01 -0.27353121796E+03  0.66289694210E+02  0.28147936315E+03  0.00000000000E+00 0. -1.
         -2    1    6    6    0  503  0.65405918892E+02 -0.24235445435E+03  0.11216915177E+02  0.25127561552E+03  0.00000000000E+00 0.  1.
<mgrwt>
<rscale>  0 0.15867495E+04</rscale>
<asrwt>0</asrwt>
<pdfrwt beam="1">  1        1 0.42352087E+00 0.15867495E+04</pdfrwt>
<pdfrwt beam="2">  1       -1 0.15496765E+00 0.15867495E+04</pdfrwt>
<totfact> 0.27043096E-01</totfact>
</mgrwt>
</event>
<event>
12    1  0.1335216E-007  0.6476045E+03  0.7818608E-02  0.9811285E-01
         -2   -1    0    0    0  501 -0.00000000000E+00  0.00000000000E+00  0.19582685457E+03  0.19582685457E+03  0.00000000000E+00 0.  1.
          2   -1    0    0  501    0  0.00000000000E+00 -0.00000000000E+00 -0.22023697702E+04  0.22023697702E+04  0.00000000000E+00 0. -1.
         23    2    1    2    0    0  0.46348789757E+03  0.21744534353E+03 -0.89610494278E+03  0.10361508606E+04  0.92201023600E+02 0.  0.
    5000000    2    1    2    0    0 -0.46348789757E+03 -0.21744534353E+03 -0.11104379729E+04  0.13620457642E+04  0.59999388633E+03 0.  0.
         23    2    4    4    0    0  0.26302944054E+01 -0.28532766179E+03 -0.52635854536E+03  0.60617504460E+03  0.94742141582E+02 0.  0.
         23    2    4    4    0    0 -0.46611819197E+03  0.67882318263E+02 -0.58407942753E+03  0.75587071964E+03  0.91200817548E+02 0.  0.
          4    1    3    3  502    0  0.13598995499E+03  0.11017920695E+03 -0.32480312310E+03  0.36895771340E+03  0.00000000000E+00 0. -1.
         -4    1    3    3    0  502  0.32749794258E+03  0.10726613658E+03 -0.57130181968E+03  0.66719314716E+03  0.00000000000E+00 0.  1.
         11    1    5    5    0    0  0.44062475972E+02 -0.97782651387E+02 -0.21667461764E+03  0.24176608246E+03  0.00000000000E+00 0. -1.
        -11    1    5    5    0    0 -0.41432181566E+02 -0.18754501041E+03 -0.30968392773E+03  0.36440896214E+03  0.00000000000E+00 0.  1.
          3    1    6    6  503    0 -0.18299606779E+03  0.61510059859E+02 -0.19261850937E+03  0.27271402319E+03  0.00000000000E+00 0. -1.
         -3    1    6    6    0  503 -0.28312212418E+03  0.63722584041E+01 -0.39146091816E+03  0.48315669645E+03  0.00000000000E+00 0.  1.
<mgrwt>
<rscale>  0 0.64760447E+03</rscale>
<asrwt>0</asrwt>
<pdfrwt beam="1">  1        2 0.33882613E+00 0.64760447E+03</pdfrwt>
<pdfrwt beam="2">  1       -2 0.30127207E-01 0.64760447E+03</pdfrwt>
<totfact> 0.54855142E+01</totfact>
</mgrwt>
</event>
<event>
12    1  0.1335216E-007  0.8897388E+03  0.7818608E-02  0.9438500E-01
         -2   -1    0    0    0  501 -0.00000000000E+00  0.00000000000E+00  0.67952172378E+03  0.67952172378E+03  0.00000000000E+00 0.  1.
          2   -1    0    0  501    0  0.00000000000E+00 -0.00000000000E+00 -0.12094874699E+04  0.12094874699E+04  0.00000000000E+00 0. -1.
         23    2    1    2    0    0 -0.14795173591E+03 -0.78288882208E+03 -0.12109442360E+03  0.81120400793E+03  0.92646959811E+02 0.  0.
    5000000    2    1    2    0    0  0.14795173591E+03  0.78288882208E+03 -0.40887132257E+03  0.10778051858E+04  0.59973630556E+03 0.  0.
         23    2    4    4    0    0 -0.21525447810E+03  0.38707772931E+03 -0.16846734831E+03  0.48245357634E+03  0.90645170932E+02 0.  0.
         23    2    4    4    0    0  0.36320621402E+03  0.39581109277E+03 -0.24040397426E+03  0.59535160945E+03  0.89801408524E+02 0.  0.
          1    1    3    3  502    0 -0.10162991389E+03 -0.41671645197E+03 -0.24228849992E+02  0.42961410348E+03  0.00000000000E+00 0. -1.
         -1    1    3    3    0  502 -0.46321822020E+02 -0.36617237011E+03 -0.96865573606E+02  0.38158990445E+03  0.00000000000E+00 0.  1.
         11    1    5    5    0    0 -0.18757112189E+03  0.30973499072E+03 -0.10038535893E+03  0.37576044301E+03  0.00000000000E+00 0.  1.
        -11    1    5    5    0    0 -0.27683356213E+02  0.77342738590E+02 -0.68081989378E+02  0.10669313334E+03  0.00000000000E+00 0. -1.
          3    1    6    6  503    0  0.30116053298E+03  0.32699268065E+03 -0.23424998883E+03  0.50248874324E+03  0.00000000000E+00 0. -1.
         -3    1    6    6    0  503  0.62045681040E+02  0.68818412125E+02 -0.61539854259E+01  0.92862866205E+02  0.00000000000E+00 0.  1.
<mgrwt>
<rscale>  0 0.88973877E+03</rscale>
<asrwt>0</asrwt>
<pdfrwt beam="1">  1        2 0.18607499E+00 0.88973877E+03</pdfrwt>
<pdfrwt beam="2">  1       -2 0.10454180E+00 0.88973877E+03</pdfrwt>
<totfact> 0.13945430E+01</totfact>
</mgrwt>
</event>
<event>
12    1  0.1335216E-007  0.7761230E+03  0.7818608E-02  0.9595236E-01
          1   -1    0    0  501    0  0.00000000000E+00  0.00000000000E+00  0.11088336536E+04  0.11088336536E+04  0.00000000000E+00 0. -1.
         -1   -1    0    0    0  501 -0.00000000000E+00 -0.00000000000E+00 -0.67273341170E+03  0.67273341170E+03  0.00000000000E+00 0.  1.
         23    2    1    2    0    0 -0.70728043449E+03  0.94598692843E+02 -0.66447381602E+02  0.72243370833E+03  0.91108082557E+02 0.  0.
    5000000    2    1    2    0    0  0.70728043449E+03 -0.94598692843E+02  0.50254762354E+03  0.10591333570E+04  0.60001235677E+03 0.  0.
         23    2    4    4    0    0  0.26481943344E+03 -0.24110553010E+03  0.26278899113E+01  0.36944766903E+03  0.90683324702E+02 0.  0.
         23    2    4    4    0    0  0.44246100106E+03  0.14650683725E+03  0.49991973363E+03  0.68968568797E+03  0.92253006975E+02 0.  0.
          3    1    3    3  502    0 -0.47448073181E+03  0.27602979987E+02 -0.68387828028E+02  0.48017786745E+03  0.00000000000E+00 0. -1.
         -3    1    3    3    0  502 -0.23279970268E+03  0.66995712857E+02  0.19404464264E+01  0.24225584089E+03  0.00000000000E+00 0.  1.
         13    1    5    5    0    0  0.94389449021E+02 -0.34659310255E+02 -0.12439148686E+02  0.10131815382E+03  0.00000000000E+00 0.  1.
        -13    1    5    5    0    0  0.17042998442E+03 -0.20644621984E+03  0.15067038598E+02  0.26812951521E+03  0.00000000000E+00 0. -1.
          4    1    6    6  503    0  0.39994606441E+03  0.13811295133E+03  0.48552072376E+03  0.64402050819E+03  0.00000000000E+00 0. -1.
         -4    1    6    6    0  503  0.42514936650E+02  0.83938859238E+01  0.14399009863E+02  0.45665179779E+02  0.00000000000E+00 0.  1.
<mgrwt>
<rscale>  0 0.77612297E+03</rscale>
<asrwt>0</asrwt>
<pdfrwt beam="1">  1        1 0.17058979E+00 0.77612297E+03</pdfrwt>
<pdfrwt beam="2">  1       -1 0.10349745E+00 0.77612297E+03</pdfrwt>
<totfact> 0.11315857E+01</totfact>
</mgrwt>
</event>
<event>
12    1  0.1335216E-007  0.7181916E+03  0.7818608E-02  0.9686618E-01
          2   -1    0    0  501    0  0.00000000000E+00  0.00000000000E+00  0.90251742855E+03  0.90251742855E+03  0.00000000000E+00 0. -1.
         -2   -1    0    0    0  501 -0.00000000000E+00 -0.00000000000E+00 -0.73062940700E+03  0.73062940700E+03  0.00000000000E+00 0.  1.
         23    2    1    2    0    0  0.22918951899E+03  0.65915988272E+03  0.63564663341E+02  0.70653449675E+03  0.90171736528E+02 0.  0.
    5000000    2    1    2    0    0 -0.22918951899E+03 -0.65915988272E+03  0.10832335821E+03  0.92661233881E+03  0.59988072973E+03 0.  0.
         23    2    4    4    0    0 -0.14011086389E+03 -0.15759354662E+03  0.29703391073E+03  0.37549656873E+03  0.91113933525E+02 0.  0.
         23    2    4    4    0    0 -0.89078655101E+02 -0.50156633609E+03 -0.18871055253E+03  0.55111577008E+03  0.92806912993E+02 0.  0.
          1    1    3    3  502    0  0.14705025658E+03  0.47827018046E+03  0.87371456754E+01  0.50044228557E+03  0.00000000000E+00 0. -1.
         -1    1    3    3    0  502  0.82139262412E+02  0.18088970226E+03  0.54827517666E+02  0.20609221117E+03  0.00000000000E+00 0.  1.
         13    1    5    5    0    0 -0.12948359120E+02  0.58486003154E+01  0.55749376083E+02  0.57531374598E+02  0.00000000000E+00 0. -1.
        -13    1    5    5    0    0 -0.12716250477E+03 -0.16344214694E+03  0.24128453465E+03  0.31796519413E+03  0.00000000000E+00 0.  1.
          1    1    6    6  503    0 -0.41563605581E+02 -0.66593105706E+02 -0.45407985388E+02  0.90686604157E+02  0.00000000000E+00 0. -1.
         -1    1    6    6    0  503 -0.47515049520E+02 -0.43497323039E+03 -0.14330256714E+03  0.46042916592E+03  0.00000000000E+00 0.  1.
<mgrwt>
<rscale>  0 0.71819164E+03</rscale>
<asrwt>0</asrwt>
<pdfrwt beam="1">  1        2 0.13884883E+00 0.71819164E+03</pdfrwt>
<pdfrwt beam="2">  1       -2 0.11240452E+00 0.71819164E+03</pdfrwt>
<totfact> 0.18552918E+01</totfact>
</mgrwt>
</event>
<event>
12    1  0.1335216E-007  0.1532224E+04  0.7818608E-02  0.8863303E-01
         -2   -1    0    0    0  501 -0.00000000000E+00  0.00000000000E+00  0.75654690864E+03  0.75654690864E+03  0.00000000000E+00 0. -1.
          2   -1    0    0  501    0  0.00000000000E+00 -0.00000000000E+00 -0.33068458582E+04  0.33068458582E+04  0.00000000000E+00 0.  1.
         23    2    1    2    0    0  0.85382232019E+03 -0.12072938888E+04 -0.75961251484E+03  0.16649928649E+04  0.92838456620E+02 0.  0.
    5000000    2    1    2    0    0 -0.85382232019E+03  0.12072938888E+04 -0.17906864347E+04  0.23983999019E+04  0.59932720070E+03 0.  0.
         23    2    4    4    0    0 -0.52012226420E+02 -0.28148432935E+02 -0.59241786722E+02  0.12345058108E+03  0.90735057730E+02 0.  0.
         23    2    4    4    0    0 -0.80181009377E+03  0.12354423218E+04 -0.17314446480E+04  0.22749493208E+04  0.90976295535E+02 0.  0.
          4    1    3    3  502    0  0.93900009702E+02 -0.90838358564E+02 -0.78578169031E+02  0.15245769202E+03  0.00000000000E+00 0. -1.
         -4    1    3    3    0  502  0.75992231049E+03 -0.11164555303E+04 -0.68103434581E+03  0.15125351729E+04  0.00000000000E+00 0.  1.
         13    1    5    5    0    0  0.44809540858E+01 -0.47789365369E+02 -0.20527396483E+02  0.52204179893E+02  0.00000000000E+00 0.  1.
        -13    1    5    5    0    0 -0.56493180506E+02  0.19640932435E+02 -0.38714390239E+02  0.71246401188E+02  0.00000000000E+00 0. -1.
          3    1    6    6  503    0 -0.47343138926E+03  0.80730402775E+03 -0.10810380797E+04  0.14298672677E+04  0.00000000000E+00 0. -1.
         -3    1    6    6    0  503 -0.32837870451E+03  0.42813829402E+03 -0.65040656828E+03  0.84508205309E+03  0.00000000000E+00 0.  1.
<mgrwt>
<rscale>  0 0.15322239E+04</rscale>
<asrwt>0</asrwt>
<pdfrwt beam="1">  1        2 0.50874551E+00 0.15322239E+04</pdfrwt>
<pdfrwt beam="2">  1       -2 0.11639183E+00 0.15322239E+04</pdfrwt>
<totfact> 0.60126119E-01</totfact>
</mgrwt>
</event>
<event>
12    1  0.1335216E-007  0.8899378E+03  0.7818608E-02  0.9438248E-01
         -2   -1    0    0    0  501 -0.00000000000E+00  0.00000000000E+00  0.92128177372E+03  0.92128177372E+03  0.00000000000E+00 0. -1.
          2   -1    0    0  501    0  0.00000000000E+00 -0.00000000000E+00 -0.96910190091E+03  0.96910190091E+03  0.00000000000E+00 0.  1.
         23    2    1    2    0    0 -0.71887486496E+03 -0.43533486697E+03  0.83703878456E+02  0.84944930174E+03  0.90885967518E+02 0.  0.
    5000000    2    1    2    0    0  0.71887486496E+03  0.43533486697E+03 -0.13152400565E+03  0.10409343729E+04  0.59995690406E+03 0.  0.
         23    2    4    4    0    0 -0.12992367799E+02  0.14804222229E+03  0.11886332503E+03  0.21071613086E+03  0.90484786389E+02 0.  0.
         23    2    4    4    0    0  0.73186723276E+03  0.28729264468E+03 -0.25038733067E+03  0.83021824203E+03  0.91661354764E+02 0.  0.
          4    1    3    3  502    0 -0.15741412939E+03 -0.12598542738E+03 -0.85463162375E+01  0.20180330910E+03  0.00000000000E+00 0. -1.
         -4    1    3    3    0  502 -0.56146073558E+03 -0.30934943959E+03  0.92250194693E+02  0.64764599265E+03  0.00000000000E+00 0.  1.
         13    1    5    5    0    0 -0.69063863145E+01  0.17997817984E+02  0.68444143092E+02  0.71107104763E+02  0.00000000000E+00 0.  1.
        -13    1    5    5    0    0 -0.60859814845E+01  0.13004440430E+03  0.50419181933E+02  0.13960902610E+03  0.00000000000E+00 0. -1.
          2    1    6    6  503    0  0.54937129264E+02  0.35985548519E+02  0.86909421454E+00  0.65679549319E+02  0.00000000000E+00 0. -1.
         -2    1    6    6    0  503  0.67693010350E+03  0.25130709616E+03 -0.25125642489E+03  0.76453869271E+03  0.00000000000E+00 0.  1.
<mgrwt>
<rscale>  0 0.88993784E+03</rscale>
<asrwt>0</asrwt>
<pdfrwt beam="1">  1        2 0.14909260E+00 0.88993784E+03</pdfrwt>
<pdfrwt beam="2">  1       -2 0.14173566E+00 0.88993784E+03</pdfrwt>
<totfact> 0.91925649E+00</totfact>
</mgrwt>
</event>
<event>
12    1  0.1335216E-007  0.1204278E+04  0.7818608E-02  0.9109120E-01
         -1   -1    0    0    0  501 -0.00000000000E+00  0.00000000000E+00  0.12078366309E+04  0.12078366309E+04  0.00000000000E+00 0.  1.
          1   -1    0    0  501    0  0.00000000000E+00 -0.00000000000E+00 -0.15053742310E+04  0.15053742310E+04  0.00000000000E+00 0. -1.
         23    2    1    2    0    0 -0.11237714380E+04  0.18921767892E+03  0.44484728611E+03  0.12266597958E+04  0.90219575516E+02 0.  0.
    5000000    2    1    2    0    0  0.11237714380E+04 -0.18921767892E+03 -0.74238488624E+03  0.14865510660E+04  0.60002764742E+03 0.  0.
         23    2    4    4    0    0  0.12417906359E+02 -0.11896763305E+03 -0.98832922778E+01  0.15063495887E+03  0.91025871344E+02 0.  0.
         23    2    4    4    0    0  0.11113535317E+04 -0.70250045871E+02 -0.73250159396E+03  0.13359161072E+04  0.89841632547E+02 0.  0.
          4    1    3    3  502    0 -0.58305616320E+03  0.14009478238E+03  0.21422942963E+03  0.63676941354E+03  0.00000000000E+00 0.  1.
         -4    1    3    3    0  502 -0.54071527482E+03  0.49122896542E+02  0.23061785649E+03  0.58989038229E+03  0.00000000000E+00 0. -1.
         13    1    5    5    0    0  0.26393366847E+02 -0.12967595417E+03 -0.52946940776E+01  0.13244054020E+03  0.00000000000E+00 0. -1.
        -13    1    5    5    0    0 -0.13975460489E+02  0.10708321119E+02 -0.45885982002E+01  0.18194418664E+02  0.00000000000E+00 0.  1.
          4    1    6    6  503    0  0.48344315317E+03 -0.67302990075E+02 -0.35074794977E+03  0.60105831588E+03  0.00000000000E+00 0. -1.
         -4    1    6    6    0  503  0.62791037850E+03 -0.29470557960E+01 -0.38175364419E+03  0.73485779129E+03  0.00000000000E+00 0.  1.
<mgrwt>
<rscale>  0 0.12042783E+04</rscale>
<asrwt>0</asrwt>
<pdfrwt beam="1">  1        1 0.23159604E+00 0.12042783E+04</pdfrwt>
<pdfrwt beam="2">  1       -1 0.18582102E+00 0.12042783E+04</pdfrwt>
<totfact> 0.12013758E+00</totfact>
</mgrwt>
</event>
<event>
12    1  0.1335216E-007  0.1674758E+04  0.7818608E-02  0.8775893E-01
         -2   -1    0    0    0  501 -0.00000000000E+00  0.00000000000E+00  0.12208167679E+04  0.12208167679E+04  0.00000000000E+00 0.  1.
          2   -1    0    0  501    0  0.00000000000E+00 -0.00000000000E+00 -0.26312041209E+04  0.26312041209E+04  0.00000000000E+00 0. -1.
         23    2    1    2    0    0  0.15709362428E+04  0.45710834613E+03 -0.13250176063E+04  0.21073246354E+04  0.91415224099E+02 0.  0.
    5000000    2    1    2    0    0 -0.15709362428E+04 -0.45710834613E+03 -0.85369746632E+02  0.17446962533E+04  0.59990691263E+03 0.  0.
         23    2    4    4    0    0 -0.12038358776E+04 -0.12979945172E+03 -0.20132290932E+03  0.12308324105E+04  0.91371718304E+02 0.  0.
         23    2    4    4    0    0 -0.36710036512E+03 -0.32730889441E+03  0.11595316269E+03  0.51386384285E+03  0.93365532300E+02 0.  0.
          4    1    3    3  502    0  0.10441664473E+04  0.25865772660E+03 -0.87195588578E+03  0.13847362405E+04  0.00000000000E+00 0.  1.
         -4    1    3    3    0  502  0.52676979550E+03  0.19845061952E+03 -0.45306172053E+03  0.72258839490E+03  0.00000000000E+00 0. -1.
         11    1    5    5    0    0 -0.57169386518E+03 -0.55226875524E+02 -0.49727064158E+02  0.57650382841E+03  0.00000000000E+00 0.  1.
        -11    1    5    5    0    0 -0.63214201246E+03 -0.74572576195E+02 -0.15159584516E+03  0.65432858207E+03  0.00000000000E+00 0. -1.
          2    1    6    6  503    0 -0.34871988883E+02 -0.75365599402E+02  0.98778227243E+01  0.83627749962E+02  0.00000000000E+00 0. -1.
         -2    1    6    6    0  503 -0.33222837624E+03 -0.25194329501E+03  0.10607533996E+03  0.43023609289E+03  0.00000000000E+00 0.  1.
<mgrwt>
<rscale>  0 0.16747576E+04</rscale>
<asrwt>0</asrwt>
<pdfrwt beam="1">  1        2 0.40480063E+00 0.16747576E+04</pdfrwt>
<pdfrwt beam="2">  1       -2 0.18781797E+00 0.16747576E+04</pdfrwt>
<totfact> 0.43214093E-01</totfact>
</mgrwt>
</event>
<event>
12    1  0.1335216E-007  0.3595485E+03  0.7818608E-02  0.1058763E+00
         -2   -1    0    0    0  501 -0.00000000000E+00  0.00000000000E+00  0.10140570317E+04  0.10140570317E+04  0.00000000000E+00 0.  1.
          2   -1    0    0  501    0  0.00000000000E+00 -0.00000000000E+00 -0.52350781062E+03  0.52350781062E+03  0.00000000000E+00 0. -1.
         23    2    1    2    0    0 -0.14808190319E+03 -0.87514821167E+02  0.81215281970E+03  0.83494119333E+03  0.89148750920E+02 0.  0.
    5000000    2    1    2    0    0  0.14808190319E+03  0.87514821167E+02 -0.32160359857E+03  0.70262364904E+03  0.60055309807E+03 0.  0.
         23    2    4    4    0    0 -0.13364608737E+03  0.16579714969E+03  0.32941343471E+02  0.23391197265E+03  0.90992897119E+02 0.  0.
         23    2    4    4    0    0  0.28172799056E+03 -0.78282328521E+02 -0.35454494204E+03  0.46871167638E+03  0.92139763576E+02 0.  0.
          1    1    3    3  502    0 -0.12207445786E+03 -0.42678394675E+02  0.69359566155E+03  0.70554841106E+03  0.00000000000E+00 0. -1.
         -1    1    3    3    0  502 -0.26007445323E+02 -0.44836426492E+02  0.11855715816E+03  0.12939278227E+03  0.00000000000E+00 0.  1.
         13    1    5    5    0    0 -0.74176447706E+02  0.24335967531E+02  0.13648866207E+02  0.79250717717E+02  0.00000000000E+00 0. -1.
        -13    1    5    5    0    0 -0.59469639664E+02  0.14146118216E+03  0.19292477264E+02  0.15466125493E+03  0.00000000000E+00 0.  1.
          1    1    6    6  503    0  0.77711790923E+02 -0.66139404219E+02 -0.11118757333E+03  0.15091792373E+03  0.00000000000E+00 0. -1.
         -1    1    6    6    0  503  0.20401619963E+03 -0.12142924302E+02 -0.24335736871E+03  0.31779375266E+03  0.00000000000E+00 0.  1.
<mgrwt>
<rscale>  0 0.35954848E+03</rscale>
<asrwt>0</asrwt>
<pdfrwt beam="1">  1        2 0.80539663E-01 0.35954848E+03</pdfrwt>
<pdfrwt beam="2">  1       -2 0.15600877E+00 0.35954848E+03</pdfrwt>
<totfact> 0.16806797E+01</totfact>
</mgrwt>
</event>
<event>
12    1  0.1335216E-007  0.5188364E+03  0.7818608E-02  0.1008976E+00
          2   -1    0    0  501    0  0.00000000000E+00  0.00000000000E+00  0.11951656483E+04  0.11951656483E+04  0.00000000000E+00 0. -1.
         -2   -1    0    0    0  501 -0.00000000000E+00 -0.00000000000E+00 -0.36135832318E+03  0.36135832318E+03  0.00000000000E+00 0.  1.
         23    2    1    2    0    0  0.15688726987E+03 -0.37631297740E+03  0.70542476129E+03  0.81985928425E+03  0.91214471060E+02 0.  0.
    5000000    2    1    2    0    0 -0.15688726987E+03  0.37631297740E+03  0.12838256381E+03  0.73666468720E+03  0.59997308796E+03 0.  0.
         23    2    4    4    0    0 -0.17748485531E+03 -0.57356721595E+02  0.19893491140E+03  0.28759480161E+03  0.91350991023E+02 0.  0.
         23    2    4    4    0    0  0.20597585441E+02  0.43366969899E+03 -0.70552347590E+02  0.44906988560E+03  0.90512209393E+02 0.  0.
          4    1    3    3  502    0  0.23958056790E+02 -0.12949948138E+03  0.16558505986E+03  0.21157153923E+03  0.00000000000E+00 0.  1.
         -4    1    3    3    0  502  0.13292921308E+03 -0.24681349601E+03  0.53983970143E+03  0.60828774502E+03  0.00000000000E+00 0. -1.
         11    1    5    5    0    0 -0.14860017471E+03 -0.56069524303E+02  0.10772716491E+03  0.19191390137E+03  0.00000000000E+00 0. -1.
        -11    1    5    5    0    0 -0.28884680601E+02 -0.12871972925E+01  0.91207746493E+02  0.95680900240E+02  0.00000000000E+00 0.  1.
          3    1    6    6  503    0  0.39515910112E+02  0.23141144289E+03 -0.73209685309E+02  0.24591140900E+03  0.00000000000E+00 0. -1.
         -3    1    6    6    0  503 -0.18918324671E+02  0.20225825611E+03  0.26573377196E+01  0.20315847660E+03  0.00000000000E+00 0.  1.
<mgrwt>
<rscale>  0 0.51883637E+03</rscale>
<asrwt>0</asrwt>
<pdfrwt beam="1">  1        2 0.18387164E+00 0.51883637E+03</pdfrwt>
<pdfrwt beam="2">  1       -2 0.55593589E-01 0.51883637E+03</pdfrwt>
<totfact> 0.60465402E+01</totfact>
</mgrwt>
</event>
<event>
12    1  0.1335216E-007  0.7505498E+03  0.7818608E-02  0.9634488E-01
          1   -1    0    0  501    0  0.00000000000E+00  0.00000000000E+00  0.11707308813E+04  0.11707308813E+04  0.00000000000E+00 0. -1.
         -1   -1    0    0    0  501 -0.00000000000E+00 -0.00000000000E+00 -0.51399738946E+03  0.51399738946E+03  0.00000000000E+00 0.  1.
         23    2    1    2    0    0 -0.16984685349E+03 -0.60685563531E+03  0.81982412899E+02  0.64199520417E+03  0.91186678868E+02 0.  0.
    5000000    2    1    2    0    0  0.16984685349E+03  0.60685563531E+03  0.57475107895E+03  0.10427330666E+04  0.59985975834E+03 0.  0.
         23    2    4    4    0    0  0.36558134124E+03  0.24804106373E+03  0.27943657081E+03  0.53074040238E+03  0.91795921745E+02 0.  0.
         23    2    4    4    0    0 -0.19573448775E+03  0.35881457158E+03  0.29531450814E+03  0.51199266422E+03  0.88690151765E+02 0.  0.
          2    1    3    3  502    0 -0.24101734676E+01 -0.11810924470E+03 -0.42812155419E+01  0.11821138450E+03  0.00000000000E+00 0. -1.
         -2    1    3    3    0  502 -0.16743668002E+03 -0.48874639061E+03  0.86263628441E+02  0.52378381966E+03  0.00000000000E+00 0.  1.
         11    1    5    5    0    0  0.41615621234E+02  0.77447133461E+00  0.12138251501E+02  0.43356624477E+02  0.00000000000E+00 0. -1.
        -11    1    5    5    0    0  0.32396572001E+03  0.24726659239E+03  0.26729831931E+03  0.48738377790E+03  0.00000000000E+00 0.  1.
          4    1    6    6  503    0 -0.17558792621E+03  0.24408991503E+03  0.22900445527E+03  0.37796037753E+03  0.00000000000E+00 0. -1.
         -4    1    6    6    0  503 -0.20146561541E+02  0.11472465655E+03  0.66310052874E+02  0.13403228669E+03  0.00000000000E+00 0.  1.
<mgrwt>
<rscale>  0 0.75054977E+03</rscale>
<asrwt>0</asrwt>
<pdfrwt beam="1">  1        1 0.18011244E+00 0.75054977E+03</pdfrwt>
<pdfrwt beam="2">  1       -1 0.79076522E-01 0.75054977E+03</pdfrwt>
<totfact> 0.18512995E+01</totfact>
</mgrwt>
</event>
<event>
12    1  0.1335216E-007  0.2793442E+03  0.7818608E-02  0.1096048E+00
          1   -1    0    0  501    0  0.00000000000E+00  0.00000000000E+00  0.18063622348E+04  0.18063622348E+04  0.00000000000E+00 0. -1.
         -1   -1    0    0    0  501 -0.00000000000E+00 -0.00000000000E+00 -0.13093373893E+03  0.13093373893E+03  0.00000000000E+00 0.  1.
         23    2    1    2    0    0 -0.24872945806E+02 -0.10142835674E+03  0.10667289882E+04  0.10756971739E+04  0.91144395114E+02 0.  0.
    5000000    2    1    2    0    0  0.24872945806E+02  0.10142835674E+03  0.60869950773E+03  0.86159879986E+03  0.60077535420E+03 0.  0.
         23    2    4    4    0    0  0.12009098885E+03  0.23068664516E+03  0.61883134621E+03  0.67755695616E+03  0.92157582102E+02 0.  0.
         23    2    4    4    0    0 -0.95218043039E+02 -0.12925828842E+03 -0.10131838475E+02  0.18404184369E+03  0.89412332667E+02 0.  0.
          3    1    3    3  502    0 -0.57272986323E+02 -0.48670961307E+02  0.66338812794E+03  0.66763228332E+03  0.00000000000E+00 0. -1.
         -3    1    3    3    0  502  0.32400040517E+02 -0.52757395435E+02  0.40334086024E+03  0.40806489060E+03  0.00000000000E+00 0.  1.
         13    1    5    5    0    0  0.72286895629E+02  0.14311605658E+03  0.48372958128E+03  0.50960956500E+03  0.00000000000E+00 0.  1.
        -13    1    5    5    0    0  0.47804093216E+02  0.87570588587E+02  0.13510176493E+03  0.16794739117E+03  0.00000000000E+00 0. -1.
          3    1    6    6  503    0 -0.24132083917E+02 -0.20942260352E+02 -0.39889889580E+02  0.51109089540E+02  0.00000000000E+00 0. -1.
         -3    1    6    6    0  503 -0.71085959122E+02 -0.10831602807E+03  0.29758051105E+02  0.13293275415E+03  0.00000000000E+00 0.  1.
<mgrwt>
<rscale>  0 0.27934418E+03</rscale>
<asrwt>0</asrwt>
<pdfrwt beam="1">  1        1 0.27790186E+00 0.27934418E+03</pdfrwt>
<pdfrwt beam="2">  1       -1 0.20143653E-01 0.27934418E+03</pdfrwt>
<totfact> 0.90309951E+01</totfact>
</mgrwt>
</event>
<event>
12    1  0.1335216E-007  0.5572073E+03  0.7818608E-02  0.9998394E-01
         -2   -1    0    0    0  501 -0.00000000000E+00  0.00000000000E+00  0.19007286489E+03  0.19007286489E+03  0.00000000000E+00 0.  1.
          2   -1    0    0  501    0  0.00000000000E+00 -0.00000000000E+00 -0.25556681252E+04  0.25556681252E+04  0.00000000000E+00 0. -1.
         23    2    1    2    0    0 -0.88281183682E+02 -0.41751635600E+03 -0.24379817015E+03  0.49980493243E+03  0.90851239950E+02 0.  0.
    5000000    2    1    2    0    0  0.88281183682E+02  0.41751635600E+03 -0.21217970902E+04  0.22459360577E+04  0.60007700200E+03 0.  0.
         23    2    4    4    0    0  0.30065373747E+03  0.16944321550E+03 -0.14576082874E+04  0.15007805726E+04  0.92826367009E+02 0.  0.
         23    2    4    4    0    0 -0.21237255379E+03  0.24807314050E+03 -0.66418880280E+03  0.74515548511E+03  0.86414967331E+02 0.  0.
          1    1    3    3  502    0 -0.83889377034E+02 -0.31286511424E+03 -0.22234854842E+03  0.39288787748E+03  0.00000000000E+00 0. -1.
         -1    1    3    3    0  502 -0.43918066483E+01 -0.10465124176E+03 -0.21449621723E+02  0.10691705495E+03  0.00000000000E+00 0.  1.
         11    1    5    5    0    0  0.64475182586E+02  0.68338188426E+02 -0.27558621032E+03  0.29116132381E+03  0.00000000000E+00 0. -1.
        -11    1    5    5    0    0  0.23617855489E+03  0.10110502707E+03 -0.11820220771E+04  0.12096192488E+04  0.00000000000E+00 0.  1.
          1    1    6    6  503    0 -0.61554841223E+02  0.12829361666E+03 -0.33132180290E+03  0.36058617227E+03  0.00000000000E+00 0. -1.
         -1    1    6    6    0  503 -0.15081771257E+03  0.11977952384E+03 -0.33286699990E+03  0.38456931284E+03  0.00000000000E+00 0.  1.
<mgrwt>
<rscale>  0 0.55720732E+03</rscale>
<asrwt>0</asrwt>
<pdfrwt beam="1">  1        2 0.39317973E+00 0.55720732E+03</pdfrwt>
<pdfrwt beam="2">  1       -2 0.29241978E-01 0.55720732E+03</pdfrwt>
<totfact> 0.37427297E+01</totfact>
</mgrwt>
</event>
<event>
12    1  0.1335216E-007  0.6403360E+03  0.7818608E-02  0.9825084E-01
          1   -1    0    0  501    0  0.00000000000E+00  0.00000000000E+00  0.82100146626E+03  0.82100146626E+03  0.00000000000E+00 0. -1.
         -1   -1    0    0    0  501 -0.00000000000E+00 -0.00000000000E+00 -0.56495892484E+03  0.56495892484E+03  0.00000000000E+00 0.  1.
         23    2    1    2    0    0  0.30888224658E+02  0.53722412523E+03  0.21174165913E+02  0.54681128516E+03  0.94817683629E+02 0.  0.
    5000000    2    1    2    0    0 -0.30888224658E+02 -0.53722412523E+03  0.23486837551E+03  0.83914910595E+03  0.59953667532E+03 0.  0.
         23    2    4    4    0    0 -0.22324366244E+03 -0.46685867771E+03  0.30072586256E+03  0.60553215316E+03  0.91860689760E+02 0.  0.
         23    2    4    4    0    0  0.19235543778E+03 -0.70365447513E+02 -0.65857487051E+02  0.23361695279E+03  0.91037142872E+02 0.  0.
          1    1    3    3  502    0 -0.20482013064E+02  0.30803381038E+03 -0.15429831100E+02  0.30909937056E+03  0.00000000000E+00 0. -1.
         -1    1    3    3    0  502  0.51370237722E+02  0.22919031485E+03  0.36603997012E+02  0.23771191460E+03  0.00000000000E+00 0.  1.
         13    1    5    5    0    0 -0.21902004778E+03 -0.45133683279E+03  0.30712701896E+03  0.58821911202E+03  0.00000000000E+00 0. -1.
        -13    1    5    5    0    0 -0.42236146533E+01 -0.15521844920E+02 -0.64011563961E+01  0.17313041145E+02  0.00000000000E+00 0.  1.
          3    1    6    6  503    0  0.16540854077E+03 -0.26034862663E+02 -0.28899352628E+02  0.16992048733E+03  0.00000000000E+00 0. -1.
         -3    1    6    6    0  503  0.26946897012E+02 -0.44330584850E+02 -0.36958134423E+02  0.63696465457E+02  0.00000000000E+00 0.  1.
<mgrwt>
<rscale>  0 0.64033597E+03</rscale>
<asrwt>0</asrwt>
<pdfrwt beam="1">  1        1 0.12630792E+00 0.64033597E+03</pdfrwt>
<pdfrwt beam="2">  1       -1 0.86916757E-01 0.64033597E+03</pdfrwt>
<totfact> 0.28732010E+01</totfact>
</mgrwt>
</event>
<event>
12    1  0.1335216E-007  0.5376344E+03  0.7818608E-02  0.1004397E+00
          2   -1    0    0  501    0  0.00000000000E+00  0.00000000000E+00  0.16099154988E+04  0.16099154988E+04  0.00000000000E+00 0. -1.
         -2   -1    0    0    0  501 -0.00000000000E+00 -0.00000000000E+00 -0.20092124340E+03  0.20092124340E+03  0.00000000000E+00 0.  1.
         23    2    1    2    0    0  0.26049944812E+03  0.30463203890E+03  0.60869048206E+03  0.73324334291E+03  0.80505002239E+02 0.  0.
    5000000    2    1    2    0    0 -0.26049944812E+03 -0.30463203890E+03  0.80030377337E+03  0.10775933993E+04  0.60005063369E+03 0.  0.
         23    2    4    4    0    0  0.16366176293E+03 -0.76329303495E+02  0.38412633178E+03  0.43449515791E+03  0.92852938900E+02 0.  0.
         23    2    4    4    0    0 -0.42416121105E+03 -0.22830273541E+03  0.41617744159E+03  0.64309824141E+03  0.91306151322E+02 0.  0.
          4    1    3    3  502    0  0.22516257005E+03  0.26112520278E+03  0.46405721112E+03  0.57812944024E+03  0.00000000000E+00 0. -1.
         -4    1    3    3    0  502  0.35336878069E+02  0.43506836117E+02  0.14463327094E+03  0.15511390267E+03  0.00000000000E+00 0.  1.
         11    1    5    5    0    0  0.78834667217E+02 -0.16468446375E+02  0.81602402344E+02  0.11465193653E+03  0.00000000000E+00 0.  1.
        -11    1    5    5    0    0  0.84827095712E+02 -0.59860857120E+02  0.30252392943E+03  0.31984322138E+03  0.00000000000E+00 0. -1.
          2    1    6    6  503    0 -0.71561160467E+02 -0.29891133403E+01  0.54262981678E+02  0.89857696757E+02  0.00000000000E+00 0.  1.
         -2    1    6    6    0  503 -0.35260005058E+03 -0.22531362206E+03  0.36191445991E+03  0.55324054465E+03  0.00000000000E+00 0. -1.
<mgrwt>
<rscale>  0 0.53763438E+03</rscale>
<asrwt>0</asrwt>
<pdfrwt beam="1">  1        2 0.24767930E+00 0.53763438E+03</pdfrwt>
<pdfrwt beam="2">  1       -2 0.30910962E-01 0.53763438E+03</pdfrwt>
<totfact> 0.11130888E+02</totfact>
</mgrwt>
</event>
<event>
12    1  0.1335216E-007  0.5147748E+03  0.7818608E-02  0.1009993E+00
         -1   -1    0    0    0  501 -0.00000000000E+00  0.00000000000E+00  0.15465311029E+04  0.15465311029E+04  0.00000000000E+00 0.  1.
          1   -1    0    0  501    0  0.00000000000E+00 -0.00000000000E+00 -0.25413736299E+03  0.25413736299E+03  0.00000000000E+00 0. -1.
         23    2    1    2    0    0  0.28443934187E+03 -0.20578352984E+03  0.96758652147E+03  0.10333693628E+04  0.91520288380E+02 0.  0.
    5000000    2    1    2    0    0 -0.28443934187E+03  0.20578352984E+03  0.32480721846E+03  0.76729910307E+03  0.59999632003E+03 0.  0.
         23    2    4    4    0    0 -0.12695269646E+03  0.39780674872E+03  0.23512017051E+03  0.48762546656E+03  0.90165983589E+02 0.  0.
         23    2    4    4    0    0 -0.15748664541E+03 -0.19202321888E+03  0.89687047952E+02  0.27967363651E+03  0.92187940194E+02 0.  0.
          3    1    3    3  502    0  0.67527601945E+02 -0.82653609828E+02  0.20645418723E+03  0.23241111778E+03  0.00000000000E+00 0. -1.
         -3    1    3    3    0  502  0.21691173992E+03 -0.12312992001E+03  0.76113233424E+03  0.80095824507E+03  0.00000000000E+00 0.  1.
         11    1    5    5    0    0 -0.51371733757E+02  0.22142928726E+03  0.80331533176E+02  0.24108741051E+03  0.00000000000E+00 0.  1.
        -11    1    5    5    0    0 -0.75580962705E+02  0.17637746146E+03  0.15478863733E+03  0.24653805605E+03  0.00000000000E+00 0. -1.
          3    1    6    6  503    0 -0.19790917869E+02 -0.25225247647E+01  0.33169131240E+02  0.38707038488E+02  0.00000000000E+00 0. -1.
         -3    1    6    6    0  503 -0.13769572754E+03 -0.18950069411E+03  0.56517916712E+02  0.24096659802E+03  0.00000000000E+00 0.  1.
<mgrwt>
<rscale>  0 0.51477477E+03</rscale>
<asrwt>0</asrwt>
<pdfrwt beam="1">  1        1 0.39098057E-01 0.51477477E+03</pdfrwt>
<pdfrwt beam="2">  1       -1 0.23792786E+00 0.51477477E+03</pdfrwt>
<totfact> 0.97455286E+00</totfact>
</mgrwt>
</event>
<event>
12    1  0.1335216E-007  0.2268039E+04  0.7818608E-02  0.8490631E-01
          1   -1    0    0  501    0  0.00000000000E+00  0.00000000000E+00  0.25178095611E+04  0.25178095611E+04  0.00000000000E+00 0. -1.
         -1   -1    0    0    0  501 -0.00000000000E+00 -0.00000000000E+00 -0.24819372798E+04  0.24819372798E+04  0.00000000000E+00 0.  1.
         23    2    1    2    0    0 -0.15935496184E+04 -0.16100763509E+04 -0.94897788341E+03  0.24577566725E+04  0.90898822480E+02 0.  0.
    5000000    2    1    2    0    0  0.15935496184E+04  0.16100763509E+04  0.98485016471E+03  0.25419901684E+04  0.60003160531E+03 0.  0.
         23    2    4    4    0    0  0.73043359182E+03  0.78448603991E+03  0.16055637178E+03  0.10878114868E+04  0.92757228761E+02 0.  0.
         23    2    4    4    0    0  0.86311602656E+03  0.82559031099E+03  0.82429379293E+03  0.14541786816E+04  0.92772538889E+02 0.  0.
          3    1    3    3  502    0 -0.11313867971E+04 -0.11712130169E+04 -0.64299666107E+03  0.17507771765E+04  0.00000000000E+00 0. -1.
         -3    1    3    3    0  502 -0.46216282132E+03 -0.43886333400E+03 -0.30598122234E+03  0.70697949600E+03  0.00000000000E+00 0.  1.
         13    1    5    5    0    0  0.98575676309E+02  0.14065089573E+03  0.50539806113E+02  0.17903661757E+03  0.00000000000E+00 0. -1.
        -13    1    5    5    0    0  0.63185791551E+03  0.64383514419E+03  0.11001656566E+03  0.90877486926E+03  0.00000000000E+00 0.  1.
          4    1    6    6  503    0  0.72881495861E+03  0.73065672822E+03  0.73546886462E+03  0.12672588328E+04  0.00000000000E+00 0. -1.
         -4    1    6    6    0  503  0.13430106795E+03  0.94933582764E+02  0.88824928314E+02  0.18691984881E+03  0.00000000000E+00 0.  1.
<mgrwt>
<rscale>  0 0.22680389E+04</rscale>
<asrwt>0</asrwt>
<pdfrwt beam="1">  1        1 0.38735532E+00 0.22680389E+04</pdfrwt>
<pdfrwt beam="2">  1       -1 0.38183650E+00 0.22680389E+04</pdfrwt>
<totfact> 0.10751284E-02</totfact>
</mgrwt>
</event>
<event>
12    1  0.1335216E-007  0.4413048E+03  0.7818608E-02  0.1030347E+00
          1   -1    0    0  501    0  0.00000000000E+00  0.00000000000E+00  0.12152066963E+04  0.12152066963E+04  0.00000000000E+00 0. -1.
         -1   -1    0    0    0  501 -0.00000000000E+00 -0.00000000000E+00 -0.29299900882E+03  0.29299900882E+03  0.00000000000E+00 0.  1.
         23    2    1    2    0    0  0.42153119220E+03 -0.27231989211E+02  0.19565599546E+03  0.47561039922E+03  0.97436420543E+02 0.  0.
    5000000    2    1    2    0    0 -0.42153119220E+03  0.27231989211E+02  0.72655169201E+03  0.10325953059E+04  0.59995464609E+03 0.  0.
         23    2    4    4    0    0 -0.18967457984E+03  0.28518431613E+02  0.75379158964E+03  0.78280700051E+03  0.88290952297E+02 0.  0.
         23    2    4    4    0    0 -0.23185661236E+03 -0.12864424025E+01 -0.27239897626E+02  0.24978830539E+03  0.88842792932E+02 0.  0.
          1    1    3    3  502    0  0.71554071054E+02 -0.38169684607E+02  0.56425307955E+02  0.98796382956E+02  0.00000000000E+00 0. -1.
         -1    1    3    3    0  502  0.34997712115E+03  0.10937695396E+02  0.13923068751E+03  0.37681401626E+03  0.00000000000E+00 0.  1.
         11    1    5    5    0    0 -0.66041232891E+02 -0.31204811984E+02  0.29518761345E+03  0.30409030216E+03  0.00000000000E+00 0.  1.
        -11    1    5    5    0    0 -0.12363334695E+03  0.59723243597E+02  0.45860397618E+03  0.47871669835E+03  0.00000000000E+00 0. -1.
          1    1    6    6  503    0 -0.17729086463E+03 -0.29277258998E+02  0.64688946114E+01  0.17980838460E+03  0.00000000000E+00 0. -1.
         -1    1    6    6    0  503 -0.54565747736E+02  0.27990816595E+02 -0.33708792238E+02  0.69979920790E+02  0.00000000000E+00 0.  1.
<mgrwt>
<rscale>  0 0.44130477E+03</rscale>
<asrwt>0</asrwt>
<pdfrwt beam="1">  1        1 0.18695487E+00 0.44130477E+03</pdfrwt>
<pdfrwt beam="2">  1       -1 0.45076771E-01 0.44130477E+03</pdfrwt>
<totfact> 0.54306434E+01</totfact>
</mgrwt>
</event>
<event>
12    1  0.1335216E-007  0.9176245E+03  0.7818608E-02  0.9403814E-01
          2   -1    0    0  501    0  0.00000000000E+00  0.00000000000E+00  0.40989974062E+04  0.40989974062E+04  0.00000000000E+00 0. -1.
         -2   -1    0    0    0  501 -0.00000000000E+00 -0.00000000000E+00 -0.27069793679E+03  0.27069793679E+03  0.00000000000E+00 0.  1.
         23    2    1    2    0    0  0.90301505019E+03 -0.10003301210E+03  0.24407496183E+04  0.26059864454E+04  0.91999294362E+02 0.  0.
    5000000    2    1    2    0    0 -0.90301505019E+03  0.10003301210E+03  0.13875498511E+04  0.17637088975E+04  0.59994308198E+03 0.  0.
         23    2    4    4    0    0 -0.36009855786E+03  0.77497854908E+02  0.14956286925E+03  0.40822200197E+03  0.92732206632E+02 0.  0.
         23    2    4    4    0    0 -0.54291649233E+03  0.22535157191E+02  0.12379869818E+04  0.13554868956E+04  0.97297512273E+02 0.  0.
          4    1    3    3  502    0  0.37518139715E+03 -0.19988927701E+01  0.10685815972E+04  0.11325333135E+04  0.00000000000E+00 0. -1.
         -4    1    3    3    0  502  0.52783365304E+03 -0.98034119329E+02  0.13721680211E+04  0.14734531319E+04  0.00000000000E+00 0.  1.
         13    1    5    5    0    0 -0.17918293166E+03  0.85876347975E+02  0.75745203887E+02  0.21264666950E+03  0.00000000000E+00 0. -1.
        -13    1    5    5    0    0 -0.18091562620E+03 -0.83784930668E+01  0.73817665360E+02  0.19557533247E+03  0.00000000000E+00 0.  1.
          3    1    6    6  503    0 -0.20615921565E+03  0.70013122905E+01  0.59056760762E+03  0.62555634418E+03  0.00000000000E+00 0. -1.
         -3    1    6    6    0  503 -0.33675727668E+03  0.15533844900E+02  0.64741937421E+03  0.72993055138E+03  0.00000000000E+00 0.  1.
<mgrwt>
<rscale>  0 0.91762449E+03</rscale>
<asrwt>0</asrwt>
<pdfrwt beam="1">  1        2 0.63061494E+00 0.91762449E+03</pdfrwt>
<pdfrwt beam="2">  1       -2 0.41645839E-01 0.91762449E+03</pdfrwt>
<totfact> 0.16654863E+00</totfact>
</mgrwt>
</event>
<event>
12    1  0.1335216E-007  0.1315432E+04  0.7818608E-02  0.9017416E-01
          2   -1    0    0  501    0  0.00000000000E+00  0.00000000000E+00  0.41968765385E+04  0.41968765385E+04  0.00000000000E+00 0.  1.
         -2   -1    0    0    0  501 -0.00000000000E+00 -0.00000000000E+00 -0.45045659595E+03  0.45045659595E+03  0.00000000000E+00 0. -1.
         23    2    1    2    0    0 -0.10126949989E+04  0.78920111583E+03  0.13612184861E+04  0.18728212569E+04  0.78448271967E+02 0.  0.
    5000000    2    1    2    0    0  0.10126949989E+04 -0.78920111583E+03  0.23852014565E+04  0.27745118775E+04  0.60028377335E+03 0.  0.
         23    2    4    4    0    0  0.54378954701E+03 -0.18443811112E+03  0.62779447194E+03  0.85559804044E+03  0.90540706535E+02 0.  0.
         23    2    4    4    0    0  0.46890545192E+03 -0.60476300471E+03  0.17574069845E+04  0.19189138371E+04  0.90224110959E+02 0.  0.
          3    1    3    3  502    0 -0.89040834550E+03  0.72268605079E+03  0.12009241778E+04  0.16605183018E+04  0.00000000000E+00 0. -1.
         -3    1    3    3    0  502 -0.12228665343E+03  0.66515065035E+02  0.16029430824E+03  0.21230295509E+03  0.00000000000E+00 0.  1.
         11    1    5    5    0    0  0.29305555837E+03 -0.10543932978E+03  0.27394359721E+03  0.41478199938E+03  0.00000000000E+00 0. -1.
        -11    1    5    5    0    0  0.25073398864E+03 -0.78998781334E+02  0.35385087473E+03  0.44081604106E+03  0.00000000000E+00 0.  1.
          4    1    6    6  503    0  0.33868968425E+03 -0.49748818994E+03  0.13698502100E+04  0.14962268542E+04  0.00000000000E+00 0. -1.
         -4    1    6    6    0  503  0.13021576767E+03 -0.10727481477E+03  0.38755677448E+03  0.42268698286E+03  0.00000000000E+00 0.  1.
<mgrwt>
<rscale>  0 0.13154320E+04</rscale>
<asrwt>0</asrwt>
<pdfrwt beam="1">  1        2 0.64567328E+00 0.13154320E+04</pdfrwt>
<pdfrwt beam="2">  1       -2 0.69301018E-01 0.13154320E+04</pdfrwt>
<totfact> 0.44731924E-01</totfact>
</mgrwt>
</event>
<event>
12    1  0.1335216E-007  0.6923165E+03  0.7818608E-02  0.9730463E-01
          2   -1    0    0  501    0  0.00000000000E+00  0.00000000000E+00  0.13883284651E+04  0.13883284651E+04  0.00000000000E+00 0. -1.
         -2   -1    0    0    0  501 -0.00000000000E+00 -0.00000000000E+00 -0.38574917635E+03  0.38574917635E+03  0.00000000000E+00 0.  1.
         23    2    1    2    0    0  0.88050478516E+02  0.59618827848E+03  0.35641849522E+03  0.70605959412E+03  0.91064024411E+02 0.  0.
    5000000    2    1    2    0    0 -0.88050478516E+02 -0.59618827848E+03  0.64616079352E+03  0.10680180473E+04  0.59995452174E+03 0.  0.
         23    2    4    4    0    0 -0.20107710617E+03 -0.52263239473E+02  0.38504032739E+03  0.44746823048E+03  0.93852622516E+02 0.  0.
         23    2    4    4    0    0  0.11302662765E+03 -0.54392503901E+03  0.26112046613E+03  0.62054981684E+03  0.90932451425E+02 0.  0.
          1    1    3    3  502    0  0.54388132880E+01  0.19294589064E+03  0.73286709331E+02  0.20646704137E+03  0.00000000000E+00 0. -1.
         -1    1    3    3    0  502  0.82611665228E+02  0.40324238784E+03  0.28313178589E+03  0.49959255275E+03  0.00000000000E+00 0.  1.
         11    1    5    5    0    0 -0.20345111294E+02 -0.30785744143E+02  0.12304378523E+03  0.12845800357E+03  0.00000000000E+00 0.  1.
        -11    1    5    5    0    0 -0.18073199487E+03 -0.21477495329E+02  0.26199654215E+03  0.31901022691E+03  0.00000000000E+00 0. -1.
          1    1    6    6  503    0  0.19132415806E+02 -0.28539268094E+03  0.15822114690E+03  0.32687759635E+03  0.00000000000E+00 0. -1.
         -1    1    6    6    0  503  0.93894211846E+02 -0.25853235807E+03  0.10289931923E+03  0.29367222048E+03  0.00000000000E+00 0.  1.
<mgrwt>
<rscale>  0 0.69231645E+03</rscale>
<asrwt>0</asrwt>
<pdfrwt beam="1">  1        2 0.21358899E+00 0.69231645E+03</pdfrwt>
<pdfrwt beam="2">  1       -2 0.59346028E-01 0.69231645E+03</pdfrwt>
<totfact> 0.40016303E+01</totfact>
</mgrwt>
</event>
<event>
12    1  0.1335216E-007  0.1434084E+04  0.7818608E-02  0.8929510E-01
          2   -1    0    0  501    0  0.00000000000E+00  0.00000000000E+00  0.32578349460E+04  0.32578349460E+04  0.00000000000E+00 0. -1.
         -2   -1    0    0    0  501 -0.00000000000E+00 -0.00000000000E+00 -0.69478155622E+03  0.69478155622E+03  0.00000000000E+00 0.  1.
         23    2    1    2    0    0 -0.13947373035E+04  0.68144230690E+02  0.17107875261E+04  0.22101413868E+04  0.89415927718E+02 0.  0.
    5000000    2    1    2    0    0  0.13947373035E+04 -0.68144230690E+02  0.85226586366E+03  0.17424751154E+04  0.59993886668E+03 0.  0.
         23    2    4    4    0    0  0.10445689632E+04 -0.23707135268E+03  0.79998037052E+03  0.13397984096E+04  0.88113789763E+02 0.  0.
         23    2    4    4    0    0  0.35016834021E+03  0.16892712199E+03  0.52285493136E+02  0.40267670583E+03  0.90887389632E+02 0.  0.
          2    1    3    3  502    0 -0.68045855623E+03 -0.94261455894E+01  0.85343152134E+03  0.10915393079E+04  0.00000000000E+00 0.  1.
         -2    1    3    3    0  502 -0.71427874723E+03  0.77570376280E+02  0.85735600477E+03  0.11186020789E+04  0.00000000000E+00 0. -1.
         13    1    5    5    0    0  0.78855493878E+03 -0.19470172063E+03  0.56209296712E+03  0.98776320805E+03  0.00000000000E+00 0. -1.
        -13    1    5    5    0    0  0.25601402446E+03 -0.42369632053E+02  0.23788740340E+03  0.35203520157E+03  0.00000000000E+00 0.  1.
          1    1    6    6  503    0  0.75101199442E+02  0.90194091548E+00 -0.51087721648E+01  0.75280164772E+02  0.00000000000E+00 0. -1.
         -1    1    6    6    0  503  0.27506714077E+03  0.16802518108E+03  0.57394265301E+02  0.32739654106E+03  0.00000000000E+00 0.  1.
<mgrwt>
<rscale>  0 0.14340840E+04</rscale>
<asrwt>0</asrwt>
<pdfrwt beam="1">  1        2 0.50120537E+00 0.14340840E+04</pdfrwt>
<pdfrwt beam="2">  1       -2 0.10688947E+00 0.14340840E+04</pdfrwt>
<totfact> 0.80731396E-01</totfact>
</mgrwt>
</event>
<event>
12    1  0.1335216E-007  0.4373929E+03  0.7818608E-02  0.1031550E+00
          1   -1    0    0  501    0  0.00000000000E+00  0.00000000000E+00  0.87885192670E+03  0.87885192670E+03  0.00000000000E+00 0. -1.
         -1   -1    0    0    0  501 -0.00000000000E+00 -0.00000000000E+00 -0.23085275385E+03  0.23085275385E+03  0.00000000000E+00 0.  1.
         23    2    1    2    0    0  0.21616799225E+03 -0.94688286148E+02  0.20709514342E+03  0.32855333068E+03  0.96769934725E+02 0.  0.
    5000000    2    1    2    0    0 -0.21616799225E+03  0.94688286148E+02  0.44090402943E+03  0.78115134987E+03  0.60008882328E+03 0.  0.
         23    2    4    4    0    0 -0.19172323214E+03 -0.22401274686E+03  0.25694616878E+03  0.40160833142E+03  0.91260121181E+02 0.  0.
         23    2    4    4    0    0 -0.24444760107E+02  0.31870103301E+03  0.18395786065E+03  0.37954301845E+03  0.89691212619E+02 0.  0.
          4    1    3    3  502    0  0.10726426991E+03 -0.11830896485E+02  0.46341599431E+02  0.11744418909E+03  0.00000000000E+00 0. -1.
         -4    1    3    3    0  502  0.10890372233E+03 -0.82857389663E+02  0.16075354399E+03  0.21110914159E+03  0.00000000000E+00 0.  1.
         13    1    5    5    0    0 -0.19678121321E+02 -0.66608094716E+02  0.28208881864E+02  0.74964043091E+02  0.00000000000E+00 0. -1.
        -13    1    5    5    0    0 -0.17204511082E+03 -0.15740465214E+03  0.22873728692E+03  0.32664428833E+03  0.00000000000E+00 0.  1.
          4    1    6    6  503    0 -0.49470825254E+02  0.19449625949E+03  0.81529877607E+02  0.21661781656E+03  0.00000000000E+00 0. -1.
         -4    1    6    6    0  503  0.25026065147E+02  0.12420477352E+03  0.10242798304E+03  0.16292520189E+03  0.00000000000E+00 0.  1.
<mgrwt>
<rscale>  0 0.43739285E+03</rscale>
<asrwt>0</asrwt>
<pdfrwt beam="1">  1        1 0.13520799E+00 0.43739285E+03</pdfrwt>
<pdfrwt beam="2">  1       -1 0.35515809E-01 0.43739285E+03</pdfrwt>
<totfact> 0.14947064E+02</totfact>
</mgrwt>
</event>
<event>
12    1  0.1335216E-007  0.1122575E+04  0.7818608E-02  0.9183464E-01
         -1   -1    0    0    0  501 -0.00000000000E+00  0.00000000000E+00  0.10716994375E+04  0.10716994375E+04  0.00000000000E+00 0. -1.
          1   -1    0    0  501    0  0.00000000000E+00 -0.00000000000E+00 -0.12885735678E+04  0.12885735678E+04  0.00000000000E+00 0.  1.
         23    2    1    2    0    0 -0.10498964244E+04 -0.31473463525E+03 -0.13673569219E+03  0.11082770883E+04  0.90780297307E+02 0.  0.
    5000000    2    1    2    0    0  0.10498964244E+04  0.31473463525E+03 -0.80138438099E+02  0.12519959170E+04  0.59977597002E+03 0.  0.
         23    2    4    4    0    0  0.22993737450E+03  0.20961054259E+03 -0.24223590566E+03  0.40458999929E+03  0.90592813048E+02 0.  0.
         23    2    4    4    0    0  0.81995904993E+03  0.10512409266E+03  0.16209746756E+03  0.84740591769E+03  0.91854678328E+02 0.  0.
          4    1    3    3  502    0 -0.40033699322E+03 -0.86791565992E+02 -0.81546805325E+02  0.41767495200E+03  0.00000000000E+00 0. -1.
         -4    1    3    3    0  502 -0.64955943121E+03 -0.22794306926E+03 -0.55188886866E+02  0.69060213635E+03  0.00000000000E+00 0.  1.
         11    1    5    5    0    0  0.21825430730E+03  0.17307397816E+03 -0.23728095212E+03  0.36591227748E+03  0.00000000000E+00 0.  1.
        -11    1    5    5    0    0  0.11683067204E+02  0.36536564432E+02 -0.49549535357E+01  0.38677721809E+02  0.00000000000E+00 0. -1.
          1    1    6    6  503    0  0.22801734833E+03  0.64067603369E+02  0.23037114858E+02  0.23796486631E+03  0.00000000000E+00 0. -1.
         -1    1    6    6    0  503  0.59194170160E+03  0.41056489287E+02  0.13906035270E+03  0.60944105137E+03  0.00000000000E+00 0.  1.
<mgrwt>
<rscale>  0 0.11225747E+04</rscale>
<asrwt>0</asrwt>
<pdfrwt beam="1">  1        1 0.19824209E+00 0.11225747E+04</pdfrwt>
<pdfrwt beam="2">  1       -1 0.16487684E+00 0.11225747E+04</pdfrwt>
<totfact> 0.24485251E+00</totfact>
</mgrwt>
</event>
<event>
12    1  0.1335216E-007  0.9474643E+03  0.7818608E-02  0.9368119E-01
          1   -1    0    0  501    0  0.00000000000E+00  0.00000000000E+00  0.15684357263E+04  0.15684357263E+04  0.00000000000E+00 0. -1.
         -1   -1    0    0    0  501 -0.00000000000E+00 -0.00000000000E+00 -0.12178928258E+04  0.12178928258E+04  0.00000000000E+00 0.  1.
         23    2    1    2    0    0 -0.58175241787E+03  0.65027483975E+03 -0.82497274164E+03  0.12043810680E+04  0.93061751894E+02 0.  0.
    5000000    2    1    2    0    0  0.58175241787E+03 -0.65027483975E+03  0.11755156421E+04  0.15819474841E+04  0.59952278921E+03 0.  0.
         23    2    4    4    0    0 -0.45144859423E+02 -0.28297975010E+03  0.19670779733E+03  0.35961492196E+03  0.92267747728E+02 0.  0.
         23    2    4    4    0    0  0.62689727729E+03 -0.36729508966E+03  0.97880784472E+03  0.12223325621E+04  0.90145528853E+02 0.  0.
          3    1    3    3  502    0 -0.29332606826E+03  0.39042069342E+03 -0.48686931714E+03  0.68957249955E+03  0.00000000000E+00 0. -1.
         -3    1    3    3    0  502 -0.28842634961E+03  0.25985414634E+03 -0.33810342450E+03  0.51480856848E+03  0.00000000000E+00 0.  1.
         13    1    5    5    0    0 -0.32212503348E+02 -0.20674568502E+03  0.18890665661E+03  0.28189918155E+03  0.00000000000E+00 0. -1.
        -13    1    5    5    0    0 -0.12932356075E+02 -0.76234065076E+02  0.78011407217E+01  0.77715740415E+02  0.00000000000E+00 0.  1.
          3    1    6    6  503    0  0.29302691301E+03 -0.22235297289E+03  0.51028435119E+03  0.62904350833E+03  0.00000000000E+00 0. -1.
         -3    1    6    6    0  503  0.33387036428E+03 -0.14494211676E+03  0.46852349353E+03  0.59328905379E+03  0.00000000000E+00 0.  1.
<mgrwt>
<rscale>  0 0.94746425E+03</rscale>
<asrwt>0</asrwt>
<pdfrwt beam="1">  1        1 0.24129781E+00 0.94746425E+03</pdfrwt>
<pdfrwt beam="2">  1       -1 0.18736813E+00 0.94746425E+03</pdfrwt>
<totfact> 0.10985639E+00</totfact>
</mgrwt>
</event>
<event>
12    1  0.1335216E-007  0.4979418E+03  0.7818608E-02  0.1014318E+00
          1   -1    0    0  501    0  0.00000000000E+00  0.00000000000E+00  0.45030618760E+03  0.45030618760E+03  0.00000000000E+00 0. -1.
         -1   -1    0    0    0  501 -0.00000000000E+00 -0.00000000000E+00 -0.81782793207E+03  0.81782793207E+03  0.00000000000E+00 0.  1.
         23    2    1    2    0    0  0.94557253104E+02 -0.43762457989E+03 -0.68917246797E+02  0.46214177194E+03  0.91482694689E+02 0.  0.
    5000000    2    1    2    0    0 -0.94557253104E+02  0.43762457989E+03 -0.29860449767E+03  0.80599234773E+03  0.60000222628E+03 0.  0.
         23    2    4    4    0    0  0.63729351585E+02  0.29767970553E+03 -0.43468196937E+03  0.53876672002E+03  0.92986702121E+02 0.  0.
         23    2    4    4    0    0 -0.15828660469E+03  0.13994487436E+03  0.13607747170E+03  0.26722562771E+03  0.90847348443E+02 0.  0.
          3    1    3    3  502    0  0.72764632092E+02 -0.17924241516E+03 -0.60562872346E+02  0.20270766286E+03  0.00000000000E+00 0. -1.
         -3    1    3    3    0  502  0.21792621012E+02 -0.25838216473E+03 -0.83543744506E+01  0.25943410908E+03  0.00000000000E+00 0.  1.
         13    1    5    5    0    0 -0.15874412765E+02  0.75530484441E+02 -0.15248569735E+03  0.17090564343E+03  0.00000000000E+00 0.  1.
        -13    1    5    5    0    0  0.79603764349E+02  0.22214922109E+03 -0.28219627202E+03  0.36786107659E+03  0.00000000000E+00 0. -1.
          3    1    6    6  503    0 -0.40942977693E+02  0.96533112507E+02  0.63306682166E+02  0.12248553074E+03  0.00000000000E+00 0. -1.
         -3    1    6    6    0  503 -0.11734362700E+03  0.43411761851E+02  0.72770789532E+02  0.14474009698E+03  0.00000000000E+00 0.  1.
<mgrwt>
<rscale>  0 0.49794177E+03</rscale>
<asrwt>0</asrwt>
<pdfrwt beam="1">  1        1 0.69277876E-01 0.49794177E+03</pdfrwt>
<pdfrwt beam="2">  1       -1 0.12581968E+00 0.49794177E+03</pdfrwt>
<totfact> 0.29705361E+01</totfact>
</mgrwt>
</event>
<event>
12    1  0.1335216E-007  0.1080755E+04  0.7818608E-02  0.9224155E-01
         -2   -1    0    0    0  501 -0.00000000000E+00  0.00000000000E+00  0.13048187457E+04  0.13048187457E+04  0.00000000000E+00 0. -1.
          2   -1    0    0  501    0  0.00000000000E+00 -0.00000000000E+00 -0.91115568516E+03  0.91115568516E+03  0.00000000000E+00 0.  1.
         23    2    1    2    0    0  0.92646341230E+03  0.38598012327E+03  0.25814814307E+03  0.10388777789E+04  0.72879804594E+02 0.  0.
    5000000    2    1    2    0    0 -0.92646341230E+03 -0.38598012327E+03  0.13551491750E+03  0.11770966520E+04  0.59989759567E+03 0.  0.
         23    2    4    4    0    0 -0.10464277597E+03  0.12794241841E+03 -0.27267075342E+02  0.18994480704E+03  0.89533029294E+02 0.  0.
         23    2    4    4    0    0 -0.82182063633E+03 -0.51392254167E+03  0.16278199285E+03  0.98715184491E+03  0.92006796367E+02 0.  0.
          4    1    3    3  502    0  0.63432321414E+03  0.26356896324E+03  0.14145176730E+03  0.70131529347E+03  0.00000000000E+00 0. -1.
         -4    1    3    3    0  502  0.29214019816E+03  0.12241116003E+03  0.11669637577E+03  0.33756248547E+03  0.00000000000E+00 0.  1.
         11    1    5    5    0    0  0.19763152612E+01  0.61552809787E+02 -0.17206679306E+02  0.63943131198E+02  0.00000000000E+00 0.  1.
        -11    1    5    5    0    0 -0.10661909123E+03  0.66389608618E+02 -0.10060396036E+02  0.12600167584E+03  0.00000000000E+00 0. -1.
          3    1    6    6  503    0 -0.37226184233E+03 -0.20237177477E+03  0.32953438275E+02  0.42499311003E+03  0.00000000000E+00 0. -1.
         -3    1    6    6    0  503 -0.44955879400E+03 -0.31155076690E+03  0.12982855457E+03  0.56215873488E+03  0.00000000000E+00 0.  1.
<mgrwt>
<rscale>  0 0.10807555E+04</rscale>
<asrwt>0</asrwt>
<pdfrwt beam="1">  1        2 0.14017780E+00 0.10807555E+04</pdfrwt>
<pdfrwt beam="2">  1       -2 0.20074135E+00 0.10807555E+04</pdfrwt>
<totfact> 0.37305785E+00</totfact>
</mgrwt>
</event>
<event>
12    1  0.1335216E-007  0.2298491E+04  0.7818608E-02  0.8478516E-01
         -2   -1    0    0    0  501 -0.00000000000E+00  0.00000000000E+00  0.24382564430E+04  0.24382564430E+04  0.00000000000E+00 0. -1.
          2   -1    0    0  501    0  0.00000000000E+00 -0.00000000000E+00 -0.23275379492E+04  0.23275379492E+04  0.00000000000E+00 0.  1.
         23    2    1    2    0    0  0.16186147941E+04  0.15769640038E+04 -0.56670054558E+03  0.23315426271E+04  0.90621150144E+02 0.  0.
    5000000    2    1    2    0    0 -0.16186147941E+04 -0.15769640038E+04  0.67741903942E+03  0.24342517651E+04  0.59996314879E+03 0.  0.
         23    2    4    4    0    0 -0.79828680163E+03 -0.39528929112E+03  0.28838490863E+03  0.94138012541E+03  0.97546110432E+02 0.  0.
         23    2    4    4    0    0 -0.82032799248E+03 -0.11816747127E+04  0.38903413079E+03  0.14928716397E+04  0.89582564328E+02 0.  0.
          2    1    3    3  502    0  0.10565377746E+04  0.10805761462E+04 -0.40116167173E+03  0.15636008326E+04  0.00000000000E+00 0. -1.
         -2    1    3    3    0  502  0.56207701952E+03  0.49638785762E+03 -0.16553887385E+03  0.76794179455E+03  0.00000000000E+00 0.  1.
         13    1    5    5    0    0 -0.74046562865E+03 -0.39183630685E+03  0.27692198521E+03  0.88233260422E+03  0.00000000000E+00 0.  1.
        -13    1    5    5    0    0 -0.57821172988E+02 -0.34529842676E+01  0.11462923428E+02  0.59047521198E+02  0.00000000000E+00 0. -1.
          1    1    6    6  503    0 -0.59174681734E+03 -0.90472251880E+03  0.31749221412E+03  0.11267157751E+04  0.00000000000E+00 0. -1.
         -1    1    6    6    0  503 -0.22858117514E+03 -0.27695219386E+03  0.71541916671E+02  0.36615586456E+03  0.00000000000E+00 0.  1.
<mgrwt>
<rscale>  0 0.22984911E+04</rscale>
<asrwt>0</asrwt>
<pdfrwt beam="1">  1        2 0.35808276E+00 0.22984911E+04</pdfrwt>
<pdfrwt beam="2">  1       -2 0.37511638E+00 0.22984911E+04</pdfrwt>
<totfact> 0.40437150E-02</totfact>
</mgrwt>
</event>
<event>
12    1  0.1335216E-007  0.9290634E+03  0.7818608E-02  0.9389963E-01
         -2   -1    0    0    0  501 -0.00000000000E+00  0.00000000000E+00  0.52868691802E+03  0.52868691802E+03  0.00000000000E+00 0.  1.
          2   -1    0    0  501    0  0.00000000000E+00 -0.00000000000E+00 -0.20378543237E+04  0.20378543237E+04  0.00000000000E+00 0. -1.
         23    2    1    2    0    0 -0.57083051528E+03 -0.65895701887E+03 -0.11571937722E+04  0.14519046525E+04  0.94116225008E+02 0.  0.
    5000000    2    1    2    0    0  0.57083051528E+03  0.65895701887E+03 -0.35197363351E+03  0.11146365892E+04  0.59871316788E+03 0.  0.
         23    2    4    4    0    0 -0.19917206439E+02  0.26981608106E+03  0.59330313469E+02  0.29130881040E+03  0.90240369084E+02 0.  0.
         23    2    4    4    0    0  0.59074772172E+03  0.38914093781E+03 -0.41130394698E+03  0.82332777879E+03  0.91017329858E+02 0.  0.
          1    1    3    3  502    0 -0.40567194923E+03 -0.43411288673E+03 -0.72313549231E+03  0.93592129426E+03  0.00000000000E+00 0. -1.
         -1    1    3    3    0  502 -0.16515856604E+03 -0.22484413215E+03 -0.43405827986E+03  0.51598335827E+03  0.00000000000E+00 0.  1.
         11    1    5    5    0    0  0.19405756783E+02  0.12846402153E+03  0.63329591864E+02  0.14453451294E+03  0.00000000000E+00 0. -1.
        -11    1    5    5    0    0 -0.39322963222E+02  0.14135205953E+03 -0.39992783951E+01  0.14677429747E+03  0.00000000000E+00 0.  1.
          1    1    6    6  503    0  0.43051216205E+03  0.26378660239E+03 -0.33557855668E+03  0.60624834926E+03  0.00000000000E+00 0. -1.
         -1    1    6    6    0  503  0.16023555967E+03  0.12535433543E+03 -0.75725390300E+02  0.21707942954E+03  0.00000000000E+00 0.  1.
<mgrwt>
<rscale>  0 0.92906343E+03</rscale>
<asrwt>0</asrwt>
<pdfrwt beam="1">  1        2 0.31351606E+00 0.92906343E+03</pdfrwt>
<pdfrwt beam="2">  1       -2 0.81336446E-01 0.92906343E+03</pdfrwt>
<totfact> 0.85690558E+00</totfact>
</mgrwt>
</event>
<event>
12    1  0.1335216E-007  0.1380182E+04  0.7818608E-02  0.8968290E-01
         -1   -1    0    0    0  501 -0.00000000000E+00  0.00000000000E+00  0.23180125094E+04  0.23180125094E+04  0.00000000000E+00 0.  1.
          1   -1    0    0  501    0  0.00000000000E+00 -0.00000000000E+00 -0.86225426936E+03  0.86225426936E+03  0.00000000000E+00 0. -1.
         23    2    1    2    0    0 -0.15517651553E+03 -0.13376044312E+04  0.77773031125E+03  0.15576162019E+04  0.89657291655E+02 0.  0.
    5000000    2    1    2    0    0  0.15517651553E+03  0.13376044312E+04  0.67802792877E+03  0.16226505769E+04  0.60000638092E+03 0.  0.
         23    2    4    4    0    0  0.27091647593E+03  0.11772154311E+04  0.70874492274E+03  0.14036376248E+04  0.92990902800E+02 0.  0.
         23    2    4    4    0    0 -0.11573996040E+03  0.16038900007E+03 -0.30716993963E+02  0.21901295210E+03  0.88897523540E+02 0.  0.
          4    1    3    3  502    0 -0.10693904592E+03 -0.10445901632E+04  0.64515406754E+03  0.12324075379E+04  0.00000000000E+00 0.  1.
         -4    1    3    3    0  502 -0.48237469612E+02 -0.29301426804E+03  0.13257624371E+03  0.32520866401E+03  0.00000000000E+00 0. -1.
         13    1    5    5    0    0  0.68543595851E+02  0.45091039425E+03  0.30117344296E+03  0.54655635659E+03  0.00000000000E+00 0.  1.
        -13    1    5    5    0    0  0.20237288008E+03  0.72630503688E+03  0.40757147977E+03  0.85708126820E+03  0.00000000000E+00 0. -1.
          1    1    6    6  503    0 -0.22365265616E+02  0.69408502742E+02 -0.48292525494E+02  0.87463783234E+02  0.00000000000E+00 0. -1.
         -1    1    6    6    0  503 -0.93374694784E+02  0.90980497326E+02  0.17575531531E+02  0.13154916886E+03  0.00000000000E+00 0.  1.
<mgrwt>
<rscale>  0 0.13801815E+04</rscale>
<asrwt>0</asrwt>
<pdfrwt beam="1">  1        1 0.13265450E+00 0.13801815E+04</pdfrwt>
<pdfrwt beam="2">  1       -1 0.35661731E+00 0.13801815E+04</pdfrwt>
<totfact> 0.26587425E-01</totfact>
</mgrwt>
</event>
<event>
12    1  0.1335216E-007  0.7526902E+03  0.7818608E-02  0.9631139E-01
         -2   -1    0    0    0  501 -0.00000000000E+00  0.00000000000E+00  0.31046330703E+03  0.31046330703E+03  0.00000000000E+00 0.  1.
          2   -1    0    0  501    0  0.00000000000E+00 -0.00000000000E+00 -0.26830985790E+04  0.26830985790E+04  0.00000000000E+00 0. -1.
         23    2    1    2    0    0 -0.47841239336E+03 -0.41977891437E+03 -0.18854054294E+04  0.19923314515E+04  0.97663833059E+02 0.  0.
    5000000    2    1    2    0    0  0.47841239336E+03  0.41977891437E+03 -0.48722984258E+03  0.10012304346E+04  0.59998059010E+03 0.  0.
         23    2    4    4    0    0  0.11872227015E+03  0.46929972153E+03 -0.21165512060E+03  0.53610751534E+03  0.90973467930E+02 0.  0.
         23    2    4    4    0    0  0.35969012321E+03 -0.49520807158E+02 -0.27557472198E+03  0.46512291921E+03  0.92566773249E+02 0.  0.
          3    1    3    3  502    0 -0.73353320595E+02 -0.97684948326E+02 -0.45789066439E+03  0.47390602371E+03  0.00000000000E+00 0. -1.
         -3    1    3    3    0  502 -0.40505907277E+03 -0.32209396605E+03 -0.14275147650E+04  0.15184254278E+04  0.00000000000E+00 0.  1.
         11    1    5    5    0    0  0.12074553625E+03  0.30389707031E+03 -0.14650775829E+03  0.35832588116E+03  0.00000000000E+00 0. -1.
        -11    1    5    5    0    0 -0.20232660978E+01  0.16540265121E+03 -0.65147362311E+02  0.17778163418E+03  0.00000000000E+00 0.  1.
          1    1    6    6  503    0  0.72227541156E+02  0.24812743675E+02 -0.40704248513E+02  0.86540890896E+02  0.00000000000E+00 0. -1.
         -1    1    6    6    0  503  0.28746258205E+03 -0.74333550832E+02 -0.23487047347E+03  0.37858202832E+03  0.00000000000E+00 0.  1.
<mgrwt>
<rscale>  0 0.75269016E+03</rscale>
<asrwt>0</asrwt>
<pdfrwt beam="1">  1        2 0.41278440E+00 0.75269016E+03</pdfrwt>
<pdfrwt beam="2">  1       -2 0.47763585E-01 0.75269016E+03</pdfrwt>
<totfact> 0.11881892E+01</totfact>
</mgrwt>
</event>
<event>
12    1  0.1335216E-007  0.8228782E+03  0.7818608E-02  0.9527480E-01
         -3   -1    0    0    0  501 -0.00000000000E+00  0.00000000000E+00  0.14766083198E+04  0.14766083198E+04  0.00000000000E+00 0.  1.
          3   -1    0    0  501    0  0.00000000000E+00 -0.00000000000E+00 -0.48021374949E+03  0.48021374949E+03  0.00000000000E+00 0. -1.
         23    2    1    2    0    0  0.66969704708E+03 -0.29459867484E+03  0.44308671746E+03  0.86071158833E+03  0.96000442770E+02 0.  0.
    5000000    2    1    2    0    0 -0.66969704708E+03  0.29459867484E+03  0.55330785284E+03  0.10961104810E+04  0.60002174324E+03 0.  0.
         23    2    4    4    0    0 -0.34007167268E+02  0.26392148578E+03  0.66160986893E+02  0.28949056489E+03  0.92824958329E+02 0.  0.
         23    2    4    4    0    0 -0.63568987981E+03  0.30677189053E+02  0.48714686594E+03  0.80661991607E+03  0.90999487744E+02 0.  0.
          3    1    3    3  502    0  0.43887306538E+03 -0.16346146689E+03  0.32567152904E+03  0.57043068246E+03  0.00000000000E+00 0. -1.
         -3    1    3    3    0  502  0.23082398170E+03 -0.13113720795E+03  0.11741518842E+03  0.29028090587E+03  0.00000000000E+00 0.  1.
         13    1    5    5    0    0  0.34454367830E+01  0.13028446343E+03 -0.10830728500E+02  0.13077926872E+03  0.00000000000E+00 0. -1.
        -13    1    5    5    0    0 -0.37452604051E+02  0.13363702235E+03  0.76991715392E+02  0.15871129617E+03  0.00000000000E+00 0.  1.
          2    1    6    6  503    0 -0.22971113708E+03  0.54758826251E+02  0.17354629730E+03  0.29305981106E+03  0.00000000000E+00 0.  1.
         -2    1    6    6    0  503 -0.40597874273E+03 -0.24081637198E+02  0.31360056865E+03  0.51356010501E+03  0.00000000000E+00 0. -1.
<mgrwt>
<rscale>  0 0.82287823E+03</rscale>
<asrwt>0</asrwt>
<pdfrwt beam="1">  1        3 0.73879039E-01 0.82287823E+03</pdfrwt>
<pdfrwt beam="2">  1       -3 0.22717051E+00 0.82287823E+03</pdfrwt>
<totfact> 0.44990870E-01</totfact>
</mgrwt>
</event>
<event>
12    1  0.1335216E-007  0.8377586E+03  0.7818608E-02  0.9506916E-01
          2   -1    0    0  501    0  0.00000000000E+00  0.00000000000E+00  0.14561403987E+04  0.14561403987E+04  0.00000000000E+00 0. -1.
         -2   -1    0    0    0  501 -0.00000000000E+00 -0.00000000000E+00 -0.82298688810E+03  0.82298688810E+03  0.00000000000E+00 0.  1.
         23    2    1    2    0    0  0.25509987530E+03 -0.72761402890E+03  0.97278644544E+03  0.12448254394E+04  0.93695169088E+02 0.  0.
    5000000    2    1    2    0    0 -0.25509987530E+03  0.72761402890E+03 -0.33963293481E+03  0.10343018474E+04  0.59994304712E+03 0.  0.
         23    2    4    4    0    0  0.77699669260E+02  0.47780086826E+03 -0.31074126343E+01  0.49262645238E+03  0.91325008962E+02 0.  0.
         23    2    4    4    0    0 -0.33279954456E+03  0.24981316063E+03 -0.33652552217E+03  0.54167539506E+03  0.83669913638E+02 0.  0.
          3    1    3    3  502    0  0.78533248033E+02 -0.17256029780E+03  0.30055798165E+03  0.35535844968E+03  0.00000000000E+00 0. -1.
         -3    1    3    3    0  502  0.17656662727E+03 -0.55505373110E+03  0.67222846379E+03  0.88946698972E+03  0.00000000000E+00 0.  1.
         13    1    5    5    0    0  0.69685725076E+02  0.25544069599E+03  0.34338925576E+02  0.26699290489E+03  0.00000000000E+00 0.  1.
        -13    1    5    5    0    0  0.80139441843E+01  0.22236017227E+03 -0.37446338210E+02  0.22563354750E+03  0.00000000000E+00 0. -1.
          1    1    6    6  503    0 -0.18665375307E+03  0.14443770601E+03 -0.13722754769E+03  0.27300782827E+03  0.00000000000E+00 0. -1.
         -1    1    6    6    0  503 -0.14614579149E+03  0.10537545462E+03 -0.19929797449E+03  0.26866756679E+03  0.00000000000E+00 0.  1.
<mgrwt>
<rscale>  0 0.83775864E+03</rscale>
<asrwt>0</asrwt>
<pdfrwt beam="1">  1        2 0.22402160E+00 0.83775864E+03</pdfrwt>
<pdfrwt beam="2">  1       -2 0.12661337E+00 0.83775864E+03</pdfrwt>
<totfact> 0.63174259E+00</totfact>
</mgrwt>
</event>
<event>
12    1  0.1474317E-007  0.1014404E+04  0.7818608E-02  0.9292886E-01
         -1   -1    0    0    0  501 -0.00000000000E+00  0.00000000000E+00  0.11353099508E+04  0.11353099508E+04  0.00000000000E+00 0. -1.
          1   -1    0    0  501    0  0.00000000000E+00 -0.00000000000E+00 -0.96264838456E+03  0.96264838456E+03  0.00000000000E+00 0.  1.
         23    2    1    2    0    0  0.89449268062E+03 -0.31865859092E+03 -0.41198031960E+02  0.95466299132E+03  0.89575085292E+02 0.  0.
    5000000    2    1    2    0    0 -0.89449268062E+03  0.31865859092E+03  0.21385959821E+03  0.11432953441E+04  0.59977317608E+03 0.  0.
         23    2    4    4    0    0 -0.14022871010E+03  0.27342379712E+03  0.20663249191E+03  0.38210193828E+03  0.94235028268E+02 0.  0.
         23    2    4    4    0    0 -0.75426397052E+03  0.45234793800E+02  0.72271062947E+01  0.76119340578E+03  0.91667039546E+02 0.  0.
          3    1    3    3  502    0  0.67238354070E+03 -0.27957470363E+03 -0.36054209146E+02  0.72908267481E+03  0.00000000000E+00 0. -1.
         -3    1    3    3    0  502  0.22210913992E+03 -0.39083887288E+02 -0.51438228146E+01  0.22558031650E+03  0.00000000000E+00 0.  1.
         11    1    5    5    0    0 -0.10733823047E+03  0.12659378759E+03  0.14164469620E+03  0.21819876887E+03  0.00000000000E+00 0. -1.
        -11    1    5    5    0    0 -0.32890479633E+02  0.14683000953E+03  0.64987795717E+02  0.16390316941E+03  0.00000000000E+00 0.  1.
          2    1    6    6  503    0 -0.45396939798E+03  0.60430018482E+02  0.34553405986E+02  0.45927545035E+03  0.00000000000E+00 0. -1.
         -2    1    6    6    0  503 -0.30029457255E+03 -0.15195224682E+02 -0.27326299691E+02  0.30191795543E+03  0.00000000000E+00 0.  1.
<mgrwt>
<rscale>  0 0.10144040E+04</rscale>
<asrwt>0</asrwt>
<pdfrwt beam="1">  1        1 0.14809975E+00 0.10144040E+04</pdfrwt>
<pdfrwt beam="2">  1       -1 0.17466307E+00 0.10144040E+04</pdfrwt>
<totfact> 0.36886023E+00</totfact>
</mgrwt>
</event>
<event>
12    1  0.1335216E-007  0.9358288E+03  0.7818608E-02  0.9381870E-01
         -1   -1    0    0    0  501 -0.00000000000E+00  0.00000000000E+00  0.45029782006E+03  0.45029782006E+03  0.00000000000E+00 0.  1.
          1   -1    0    0  501    0  0.00000000000E+00 -0.00000000000E+00 -0.19997170699E+04  0.19997170699E+04  0.00000000000E+00 0. -1.
         23    2    1    2    0    0  0.84566548607E+03  0.68578482883E+02 -0.79119725489E+03  0.11635744400E+04  0.89773373611E+02 0.  0.
    5000000    2    1    2    0    0 -0.84566548607E+03 -0.68578482883E+02 -0.75822199494E+03  0.12864404500E+04  0.60014607809E+03 0.  0.
         23    2    4    4    0    0 -0.85161999499E+02 -0.21957064789E+03 -0.13903936745E+03  0.29006954355E+03  0.96667258273E+02 0.  0.
         23    2    4    4    0    0 -0.76050348657E+03  0.15099216501E+03 -0.61918262749E+03  0.99637090641E+03  0.90574113184E+02 0.  0.
          2    1    3    3  502    0  0.66911730823E+03  0.90558525379E+02 -0.63124344890E+03  0.92433062833E+03  0.00000000000E+00 0. -1.
         -2    1    3    3    0  502  0.17654817783E+03 -0.21980042496E+02 -0.15995380599E+03  0.23924381166E+03  0.00000000000E+00 0.  1.
         11    1    5    5    0    0 -0.75888592874E+01 -0.84798850656E+02 -0.96838679111E+02  0.12894248962E+03  0.00000000000E+00 0. -1.
        -11    1    5    5    0    0 -0.77573140212E+02 -0.13477179724E+03 -0.42200688339E+02  0.16112705393E+03  0.00000000000E+00 0.  1.
          3    1    6    6  503    0 -0.47542083200E+03  0.63255303931E+02 -0.34075470480E+03  0.58833661268E+03  0.00000000000E+00 0.  1.
         -3    1    6    6    0  503 -0.28508265457E+03  0.87736861077E+02 -0.27842792269E+03  0.40803429373E+03  0.00000000000E+00 0. -1.
<mgrwt>
<rscale>  0 0.93582884E+03</rscale>
<asrwt>0</asrwt>
<pdfrwt beam="1">  1        1 0.30764877E+00 0.93582884E+03</pdfrwt>
<pdfrwt beam="2">  1       -1 0.69276589E-01 0.93582884E+03</pdfrwt>
<totfact> 0.64080545E+00</totfact>
</mgrwt>
</event>
<event>
12    1  0.1335216E-007  0.5169857E+03  0.7818608E-02  0.1009438E+00
          1   -1    0    0  501    0  0.00000000000E+00  0.00000000000E+00  0.23842529361E+04  0.23842529361E+04  0.00000000000E+00 0. -1.
         -1   -1    0    0    0  501 -0.00000000000E+00 -0.00000000000E+00 -0.19200740072E+03  0.19200740072E+03  0.00000000000E+00 0.  1.
         23    2    1    2    0    0 -0.46469606006E+03  0.12937152685E+03  0.13434411595E+04  0.14303758680E+04  0.91986708037E+02 0.  0.
    5000000    2    1    2    0    0  0.46469606006E+03 -0.12937152685E+03  0.84880437590E+03  0.11458844689E+04  0.59991910058E+03 0.  0.
         23    2    4    4    0    0  0.22119985436E+03 -0.16542635740E+03  0.83189292471E+03  0.88136029270E+03  0.91950378312E+02 0.  0.
         23    2    4    4    0    0  0.24349620570E+03  0.36054830550E+02  0.16911451190E+02  0.26452417616E+03  0.95376567337E+02 0.  0.
          1    1    3    3  502    0 -0.13021581018E+03  0.79565128613E+02  0.39516842194E+03  0.42360931129E+03  0.00000000000E+00 0. -1.
         -1    1    3    3    0  502 -0.33448024989E+03  0.49806398240E+02  0.94827273754E+03  0.10067665567E+04  0.00000000000E+00 0.  1.
         13    1    5    5    0    0  0.17850913629E+03 -0.89002004934E+02  0.64174554166E+03  0.67202991664E+03  0.00000000000E+00 0. -1.
        -13    1    5    5    0    0  0.42690718071E+02 -0.76424352469E+02  0.19014738306E+03  0.20933037606E+03  0.00000000000E+00 0.  1.
          3    1    6    6  503    0  0.17545072760E+03 -0.71462222463E+01  0.41157989847E+02  0.18035522292E+03  0.00000000000E+00 0. -1.
         -3    1    6    6    0  503  0.68045478103E+02  0.43201052796E+02 -0.24246538657E+02  0.84168953242E+02  0.00000000000E+00 0.  1.
<mgrwt>
<rscale>  0 0.51698571E+03</rscale>
<asrwt>0</asrwt>
<pdfrwt beam="1">  1        1 0.36680812E+00 0.51698571E+03</pdfrwt>
<pdfrwt beam="2">  1       -1 0.29539602E-01 0.51698571E+03</pdfrwt>
<totfact> 0.18638882E+01</totfact>
</mgrwt>
</event>
<event>
12    1  0.1335216E-007  0.4243006E+03  0.7818608E-02  0.1035676E+00
          2   -1    0    0  501    0  0.00000000000E+00  0.00000000000E+00  0.29364650111E+04  0.29364650111E+04  0.00000000000E+00 0. -1.
         -2   -1    0    0    0  501 -0.00000000000E+00 -0.00000000000E+00 -0.14732417525E+03  0.14732417525E+03  0.00000000000E+00 0.  1.
         23    2    1    2    0    0  0.11410197915E+03  0.35007970633E+03  0.19587616118E+04  0.19951888258E+04  0.91958340050E+02 0.  0.
    5000000    2    1    2    0    0 -0.11410197915E+03 -0.35007970633E+03  0.83037922403E+03  0.10886003605E+04  0.59995502067E+03 0.  0.
         23    2    4    4    0    0 -0.16922827091E+02 -0.37200350853E+03  0.86839024814E+03  0.94927528160E+03  0.91372560184E+02 0.  0.
         23    2    4    4    0    0 -0.97179152055E+02  0.21923802201E+02 -0.38011024104E+02  0.13932507894E+03  0.89678308253E+02 0.  0.
          2    1    3    3  502    0  0.48543062965E+02  0.12342958016E+03  0.49163308587E+03  0.50920956525E+03  0.00000000000E+00 0.  1.
         -2    1    3    3    0  502  0.65558916182E+02  0.22665012616E+03  0.14671285259E+04  0.14859792606E+04  0.00000000000E+00 0. -1.
         11    1    5    5    0    0 -0.46579884463E+02 -0.21536035009E+03  0.56717957926E+03  0.60847550580E+03  0.00000000000E+00 0. -1.
        -11    1    5    5    0    0  0.29657057373E+02 -0.15664315844E+03  0.30121066888E+03  0.34079977580E+03  0.00000000000E+00 0.  1.
          2    1    6    6  503    0 -0.53108819977E+02  0.61960862620E+01  0.26463931531E+02  0.59659684179E+02  0.00000000000E+00 0. -1.
         -2    1    6    6    0  503 -0.44070332079E+02  0.15727715939E+02 -0.64474955636E+02  0.79665394761E+02  0.00000000000E+00 0.  1.
<mgrwt>
<rscale>  0 0.42430055E+03</rscale>
<asrwt>0</asrwt>
<pdfrwt beam="1">  1        2 0.45176380E+00 0.42430055E+03</pdfrwt>
<pdfrwt beam="2">  1       -2 0.22665260E-01 0.42430055E+03</pdfrwt>
<totfact> 0.36733933E+01</totfact>
</mgrwt>
</event>
<event>
12    1  0.1335216E-007  0.6700905E+03  0.7818608E-02  0.9769794E-01
         -1   -1    0    0    0  501 -0.00000000000E+00  0.00000000000E+00  0.37189271579E+03  0.37189271579E+03  0.00000000000E+00 0.  1.
          1   -1    0    0  501    0  0.00000000000E+00 -0.00000000000E+00 -0.12398037777E+04  0.12398037777E+04  0.00000000000E+00 0. -1.
         23    2    1    2    0    0  0.41637521295E+03  0.33815337590E+03 -0.44144376283E+03  0.70087824259E+03  0.92960699240E+02 0.  0.
    5000000    2    1    2    0    0 -0.41637521295E+03 -0.33815337590E+03 -0.42646729904E+03  0.91081825086E+03  0.59999958780E+03 0.  0.
         23    2    4    4    0    0  0.13002117607E+03 -0.70402638660E+01 -0.96971150015E+02  0.18605666593E+03  0.90876880774E+02 0.  0.
         23    2    4    4    0    0 -0.54639638902E+03 -0.33111311204E+03 -0.32949614903E+03  0.72476158494E+03  0.92340326406E+02 0.  0.
          3    1    3    3  502    0  0.33842986963E+03  0.22546590086E+03 -0.34547700637E+03  0.53359536265E+03  0.00000000000E+00 0.  1.
         -3    1    3    3    0  502  0.77945343313E+02  0.11268747504E+03 -0.95966756469E+02  0.16728287995E+03  0.00000000000E+00 0. -1.
         13    1    5    5    0    0  0.44693763948E+02 -0.45661242551E+02 -0.28101272008E+02  0.69800881768E+02  0.00000000000E+00 0.  1.
        -13    1    5    5    0    0  0.85327412121E+02  0.38620978685E+02 -0.68869878007E+02  0.11625578416E+03  0.00000000000E+00 0. -1.
          3    1    6    6  503    0 -0.31136465106E+03 -0.18370870496E+03 -0.23716241854E+03  0.43236887836E+03  0.00000000000E+00 0. -1.
         -3    1    6    6    0  503 -0.23503173796E+03 -0.14740440707E+03 -0.92333730493E+02  0.29239270658E+03  0.00000000000E+00 0.  1.
<mgrwt>
<rscale>  0 0.67009051E+03</rscale>
<asrwt>0</asrwt>
<pdfrwt beam="1">  1        1 0.19073905E+00 0.67009051E+03</pdfrwt>
<pdfrwt beam="2">  1       -1 0.57214263E-01 0.67009051E+03</pdfrwt>
<totfact> 0.32123269E+01</totfact>
</mgrwt>
</event>
<event>
12    1  0.1335216E-007  0.1011747E+04  0.7818608E-02  0.9295754E-01
         -2   -1    0    0    0  501 -0.00000000000E+00  0.00000000000E+00  0.44272821952E+03  0.44272821952E+03  0.00000000000E+00 0.  1.
          2   -1    0    0  501    0  0.00000000000E+00 -0.00000000000E+00 -0.25046337234E+04  0.25046337234E+04  0.00000000000E+00 0. -1.
         23    2    1    2    0    0 -0.38388237439E+03 -0.84689312392E+03 -0.58583988189E+03  0.11026719502E+04  0.89907851383E+02 0.  0.
    5000000    2    1    2    0    0  0.38388237439E+03  0.84689312392E+03 -0.14760656220E+04  0.18446899928E+04  0.59959803889E+03 0.  0.
         23    2    4    4    0    0  0.50861890746E+03  0.48804435854E+03 -0.10385528877E+04  0.12584556078E+04  0.90763028502E+02 0.  0.
         23    2    4    4    0    0 -0.12473653306E+03  0.35884876538E+03 -0.43751273430E+03  0.58623438496E+03  0.89004057986E+02 0.  0.
          3    1    3    3  502    0 -0.25163377519E+03 -0.52625808583E+03 -0.31738843231E+03  0.66408022609E+03  0.00000000000E+00 0. -1.
         -3    1    3    3    0  502 -0.13224859921E+03 -0.32063503810E+03 -0.26845144957E+03  0.43859172407E+03  0.00000000000E+00 0.  1.
         13    1    5    5    0    0  0.46567244765E+03  0.44551524549E+03 -0.89673699552E+03  0.11042970169E+04  0.00000000000E+00 0.  1.
        -13    1    5    5    0    0  0.42946459813E+02  0.42529113050E+02 -0.14181589217E+03  0.15415859087E+03  0.00000000000E+00 0. -1.
          1    1    6    6  503    0 -0.13808535550E+02  0.16108462404E+03 -0.20994297725E+03  0.26498110396E+03  0.00000000000E+00 0. -1.
         -1    1    6    6    0  503 -0.11092799751E+03  0.19776414134E+03 -0.22756975705E+03  0.32125328100E+03  0.00000000000E+00 0.  1.
<mgrwt>
<rscale>  0 0.10117467E+04</rscale>
<asrwt>0</asrwt>
<pdfrwt beam="1">  1        2 0.38532827E+00 0.10117467E+04</pdfrwt>
<pdfrwt beam="2">  1       -2 0.68112032E-01 0.10117467E+04</pdfrwt>
<totfact> 0.68930785E+00</totfact>
</mgrwt>
</event>
<event>
12    1  0.1656255E-007  0.1024138E+04  0.7818608E-02  0.9282460E-01
         -2   -1    0    0    0  501 -0.00000000000E+00  0.00000000000E+00  0.10480922223E+04  0.10480922223E+04  0.00000000000E+00 0.  1.
          2   -1    0    0  501    0  0.00000000000E+00 -0.00000000000E+00 -0.17941380601E+04  0.17941380601E+04  0.00000000000E+00 0. -1.
         23    2    1    2    0    0  0.55376799826E+03 -0.79964920309E+03  0.54436110765E+03  0.11184663274E+04  0.92412478329E+02 0.  0.
    5000000    2    1    2    0    0 -0.55376799826E+03  0.79964920309E+03 -0.12904069454E+04  0.17237639549E+04  0.60009519540E+03 0.  0.
         23    2    4    4    0    0 -0.59197421607E+03  0.76985556948E+03 -0.12942795092E+04  0.16206682840E+04  0.91077817016E+02 0.  0.
         23    2    4    4    0    0  0.38206217806E+02  0.29793633612E+02  0.38725637123E+01  0.10309567088E+03  0.90919441929E+02 0.  0.
          4    1    3    3  502    0  0.25791405624E+03 -0.35314591643E+03  0.29600773076E+03  0.52806465074E+03  0.00000000000E+00 0. -1.
         -4    1    3    3    0  502  0.29585394202E+03 -0.44650328667E+03  0.24835337689E+03  0.59040167668E+03  0.00000000000E+00 0.  1.
         13    1    5    5    0    0 -0.48140960287E+03  0.56645375013E+03 -0.96442351779E+03  0.12176772062E+04  0.00000000000E+00 0. -1.
        -13    1    5    5    0    0 -0.11056461320E+03  0.20340181935E+03 -0.32985599136E+03  0.40299107787E+03  0.00000000000E+00 0.  1.
          3    1    6    6  503    0  0.23623535447E+02 -0.30409706743E+02  0.12651252597E+02  0.40532405350E+02  0.00000000000E+00 0. -1.
         -3    1    6    6    0  503  0.14582682360E+02  0.60203340354E+02 -0.87786888849E+01  0.62563265525E+02  0.00000000000E+00 0.  1.
<mgrwt>
<rscale>  0 0.10241376E+04</rscale>
<asrwt>0</asrwt>
<pdfrwt beam="1">  1        2 0.27602124E+00 0.10241376E+04</pdfrwt>
<pdfrwt beam="2">  1       -2 0.16124496E+00 0.10241376E+04</pdfrwt>
<totfact> 0.21268441E+00</totfact>
</mgrwt>
</event>
<event>
12    1  0.1335216E-007  0.4047729E+03  0.7818608E-02  0.1042139E+00
         -2   -1    0    0    0  501 -0.00000000000E+00  0.00000000000E+00  0.91331445610E+02  0.91331445610E+02  0.00000000000E+00 0.  1.
          2   -1    0    0  501    0  0.00000000000E+00 -0.00000000000E+00 -0.21647495108E+04  0.21647495108E+04  0.00000000000E+00 0. -1.
         23    2    1    2    0    0  0.19988380349E+03 -0.91884965440E+02 -0.74499447453E+03  0.78196169305E+03  0.89727033583E+02 0.  0.
    5000000    2    1    2    0    0 -0.19988380349E+03  0.91884965440E+02 -0.13284235906E+04  0.14741192633E+04  0.59993498363E+03 0.  0.
         23    2    4    4    0    0 -0.20199989875E+03  0.29709254501E+03 -0.10679458452E+04  0.11300741560E+04  0.86552472488E+02 0.  0.
         23    2    4    4    0    0  0.21160952561E+01 -0.20520757957E+03 -0.26047774547E+03  0.34404510731E+03  0.91671977227E+02 0.  0.
          4    1    3    3  502    0  0.12720304136E+03 -0.10209755470E+03 -0.47798918756E+03  0.50505265847E+03  0.00000000000E+00 0. -1.
         -4    1    3    3    0  502  0.72680762129E+02  0.10212589263E+02 -0.26700528697E+03  0.27690903458E+03  0.00000000000E+00 0.  1.
         11    1    5    5    0    0 -0.55082457483E+02  0.10738673194E+03 -0.24910309705E+03  0.27680018114E+03  0.00000000000E+00 0. -1.
        -11    1    5    5    0    0 -0.14691744127E+03  0.18970581307E+03 -0.81884274811E+03  0.85327397487E+03  0.00000000000E+00 0.  1.
          1    1    6    6  503    0  0.25469909374E+02 -0.57805441619E+02 -0.31146568081E+02  0.70429355155E+02  0.00000000000E+00 0. -1.
         -1    1    6    6    0  503 -0.23353814118E+02 -0.14740213795E+03 -0.22933117739E+03  0.27361575216E+03  0.00000000000E+00 0.  1.
<mgrwt>
<rscale>  0 0.40477288E+03</rscale>
<asrwt>0</asrwt>
<pdfrwt beam="1">  1        2 0.33303839E+00 0.40477288E+03</pdfrwt>
<pdfrwt beam="2">  1       -2 0.14050992E-01 0.40477288E+03</pdfrwt>
<totfact> 0.22669608E+02</totfact>
</mgrwt>
</event>
<event>
12    1  0.1335216E-007  0.4424848E+03  0.7818608E-02  0.1029987E+00
          1   -1    0    0  501    0  0.00000000000E+00  0.00000000000E+00  0.70703254864E+03  0.70703254864E+03  0.00000000000E+00 0. -1.
         -1   -1    0    0    0  501 -0.00000000000E+00 -0.00000000000E+00 -0.40974224770E+03  0.40974224770E+03  0.00000000000E+00 0.  1.
         23    2    1    2    0    0  0.11031234550E+03  0.25885252319E+03  0.34413848239E+03  0.45237196040E+03  0.83878800406E+02 0.  0.
    5000000    2    1    2    0    0 -0.11031234550E+03 -0.25885252319E+03 -0.46848181457E+02  0.66440283595E+03  0.60005244269E+03 0.  0.
         23    2    4    4    0    0  0.16892483924E+03 -0.24527606968E+03  0.11149250599E+03  0.33052644905E+03  0.90117717236E+02 0.  0.
         23    2    4    4    0    0 -0.27923718474E+03 -0.13576453508E+02 -0.15834068745E+03  0.33387638690E+03  0.90796161784E+02 0.  0.
          4    1    3    3  502    0  0.12235570376E+03  0.23291923330E+03  0.29306529352E+03  0.39383950253E+03  0.00000000000E+00 0. -1.
         -4    1    3    3    0  502 -0.12043358258E+02  0.25933289883E+02  0.51073188873E+02  0.58532457867E+02  0.00000000000E+00 0.  1.
         11    1    5    5    0    0  0.47742762755E+02 -0.95342477837E+02 -0.23229078162E+01  0.10665343584E+03  0.00000000000E+00 0.  1.
        -11    1    5    5    0    0  0.12118207648E+03 -0.14993359184E+03  0.11381541381E+03  0.22387301321E+03  0.00000000000E+00 0. -1.
          1    1    6    6  503    0 -0.49085026347E+02  0.32867003264E+02 -0.28781346772E+02  0.65711076974E+02  0.00000000000E+00 0. -1.
         -1    1    6    6    0  503 -0.23015215840E+03 -0.46443456772E+02 -0.12955934067E+03  0.26816530992E+03  0.00000000000E+00 0.  1.
<mgrwt>
<rscale>  0 0.44248478E+03</rscale>
<asrwt>0</asrwt>
<pdfrwt beam="1">  1        1 0.10877424E+00 0.44248478E+03</pdfrwt>
<pdfrwt beam="2">  1       -1 0.63037269E-01 0.44248478E+03</pdfrwt>
<totfact> 0.72186884E+01</totfact>
</mgrwt>
</event>
<event>
12    1  0.1335216E-007  0.5697515E+03  0.7818608E-02  0.9970229E-01
          1   -1    0    0  501    0  0.00000000000E+00  0.00000000000E+00  0.16571289846E+04  0.16571289846E+04  0.00000000000E+00 0. -1.
         -1   -1    0    0    0  501 -0.00000000000E+00 -0.00000000000E+00 -0.20610951772E+03  0.20610951772E+03  0.00000000000E+00 0.  1.
         23    2    1    2    0    0  0.14452482807E+03 -0.39848724037E+03  0.50697792197E+03  0.66704972512E+03  0.90825193341E+02 0.  0.
    5000000    2    1    2    0    0 -0.14452482807E+03  0.39848724037E+03  0.94404154487E+03  0.11961887772E+04  0.59997803752E+03 0.  0.
         23    2    4    4    0    0 -0.27309577247E+03 -0.17491673721E+02  0.39023340655E+03  0.48524762713E+03  0.91081767934E+02 0.  0.
         23    2    4    4    0    0  0.12857094440E+03  0.41597891409E+03  0.55380813832E+03  0.71094115004E+03  0.95733588882E+02 0.  0.
          3    1    3    3  502    0  0.13955793555E+03 -0.34811560419E+03  0.48165519364E+03  0.61045279655E+03  0.00000000000E+00 0. -1.
         -3    1    3    3    0  502  0.49668925208E+01 -0.50371636186E+02  0.25322728329E+02  0.56596928569E+02  0.00000000000E+00 0.  1.
         11    1    5    5    0    0 -0.74604376254E+01 -0.73845996539E+01  0.61948813494E+02  0.62831886291E+02  0.00000000000E+00 0. -1.
        -11    1    5    5    0    0 -0.26563533485E+03 -0.10107074067E+02  0.32828459306E+03  0.42241574083E+03  0.00000000000E+00 0.  1.
          3    1    6    6  503    0 -0.20552700970E+01  0.29213865726E+02  0.81820017064E+02  0.86903332952E+02  0.00000000000E+00 0. -1.
         -3    1    6    6    0  503  0.13062621450E+03  0.38676504837E+03  0.47198812125E+03  0.62403781709E+03  0.00000000000E+00 0.  1.
<mgrwt>
<rscale>  0 0.56975147E+03</rscale>
<asrwt>0</asrwt>
<pdfrwt beam="1">  1        1 0.25494291E+00 0.56975147E+03</pdfrwt>
<pdfrwt beam="2">  1       -1 0.31709158E-01 0.56975147E+03</pdfrwt>
<totfact> 0.49725920E+01</totfact>
</mgrwt>
</event>
<event>
12    1  0.1335216E-007  0.9982413E+03  0.7818608E-02  0.9310476E-01
          1   -1    0    0  501    0  0.00000000000E+00  0.00000000000E+00  0.35160401880E+04  0.35160401880E+04  0.00000000000E+00 0. -1.
         -1   -1    0    0    0  501 -0.00000000000E+00 -0.00000000000E+00 -0.51290468023E+03  0.51290468023E+03  0.00000000000E+00 0.  1.
         23    2    1    2    0    0 -0.25460348904E+03  0.93747402472E+03  0.19173673672E+03  0.99450947199E+03  0.92766535044E+02 0.  0.
    5000000    2    1    2    0    0  0.25460348904E+03 -0.93747402472E+03  0.28113987711E+04  0.30344353963E+04  0.60012885320E+03 0.  0.
         23    2    4    4    0    0 -0.73643336558E+01 -0.53911040075E+03  0.82439588023E+03  0.98917801614E+03  0.90279137473E+02 0.  0.
         23    2    4    4    0    0  0.26196782269E+03 -0.39836362397E+03  0.19870028909E+04  0.20452573801E+04  0.87043355252E+02 0.  0.
          1    1    3    3  502    0 -0.15772945552E+03  0.51891999847E+03  0.62949978961E+02  0.54600297234E+03  0.00000000000E+00 0. -1.
         -1    1    3    3    0  502 -0.96874033512E+02  0.41855402625E+03  0.12878675776E+03  0.44850649966E+03  0.00000000000E+00 0.  1.
         13    1    5    5    0    0 -0.41781522377E+02 -0.40201938092E+03  0.58201915639E+03  0.70859831827E+03  0.00000000000E+00 0.  1.
        -13    1    5    5    0    0  0.34417188722E+02 -0.13709101984E+03  0.24237672383E+03  0.28057969787E+03  0.00000000000E+00 0. -1.
          2    1    6    6  503    0  0.24264242823E+03 -0.38632335985E+03  0.18016488406E+04  0.18585100568E+04  0.00000000000E+00 0. -1.
         -2    1    6    6    0  503  0.19325394466E+02 -0.12040264119E+02  0.18535405023E+03  0.18674732332E+03  0.00000000000E+00 0.  1.
<mgrwt>
<rscale>  0 0.99824133E+03</rscale>
<asrwt>0</asrwt>
<pdfrwt beam="1">  1        1 0.54092924E+00 0.99824133E+03</pdfrwt>
<pdfrwt beam="2">  1       -1 0.78908415E-01 0.99824133E+03</pdfrwt>
<totfact> 0.40568688E-01</totfact>
</mgrwt>
</event>
<event>
12    1  0.1335216E-007  0.1052361E+04  0.7818608E-02  0.9252910E-01
         -2   -1    0    0    0  501 -0.00000000000E+00  0.00000000000E+00  0.20735374551E+04  0.20735374551E+04  0.00000000000E+00 0.  1.
          2   -1    0    0  501    0  0.00000000000E+00 -0.00000000000E+00 -0.60725670715E+03  0.60725670715E+03  0.00000000000E+00 0. -1.
         23    2    1    2    0    0  0.81231396657E+03 -0.57324282822E+03  0.31852362863E+03  0.10480543308E+04  0.92191419689E+02 0.  0.
    5000000    2    1    2    0    0 -0.81231396657E+03  0.57324282822E+03  0.11477571193E+04  0.16327398315E+04  0.60002635936E+03 0.  0.
         23    2    4    4    0    0 -0.30371343009E+03 -0.31710017431E+02  0.13911725235E+03  0.34800634914E+03  0.92235764855E+02 0.  0.
         23    2    4    4    0    0 -0.50860053648E+03  0.60495284565E+03  0.10086398670E+04  0.12847334823E+04  0.92429909670E+02 0.  0.
          1    1    3    3  502    0  0.57058207716E+03 -0.36564803423E+03  0.24849888393E+03  0.72181305546E+03  0.00000000000E+00 0. -1.
         -1    1    3    3    0  502  0.24173188941E+03 -0.20759479399E+03  0.70024744703E+02  0.32624127532E+03  0.00000000000E+00 0.  1.
         13    1    5    5    0    0 -0.18914867949E+03 -0.59242026178E+02  0.10979007193E+03  0.22658486382E+03  0.00000000000E+00 0. -1.
        -13    1    5    5    0    0 -0.11456475060E+03  0.27532008746E+02  0.29327180414E+02  0.12142148532E+03  0.00000000000E+00 0.  1.
          4    1    6    6  503    0 -0.20397261278E+03  0.20046969504E+03  0.42199848714E+03  0.50978000014E+03  0.00000000000E+00 0. -1.
         -4    1    6    6    0  503 -0.30462792371E+03  0.40448315061E+03  0.58664137984E+03  0.77495348219E+03  0.00000000000E+00 0.  1.
<mgrwt>
<rscale>  0 0.10523606E+04</rscale>
<asrwt>0</asrwt>
<pdfrwt beam="1">  1        2 0.93424109E-01 0.10523606E+04</pdfrwt>
<pdfrwt beam="2">  1       -2 0.31900576E+00 0.10523606E+04</pdfrwt>
<totfact> 0.11896973E+00</totfact>
</mgrwt>
</event>
<event>
12    1  0.1335216E-007  0.6747571E+03  0.7818608E-02  0.9761402E-01
          1   -1    0    0  501    0  0.00000000000E+00  0.00000000000E+00  0.60925450171E+03  0.60925450171E+03  0.00000000000E+00 0. -1.
         -1   -1    0    0    0  501 -0.00000000000E+00 -0.00000000000E+00 -0.12082100206E+04  0.12082100206E+04  0.00000000000E+00 0.  1.
         23    2    1    2    0    0  0.29494437761E+03 -0.53547372106E+03 -0.72396606394E+03  0.95194318185E+03  0.91349153778E+02 0.  0.
    5000000    2    1    2    0    0 -0.29494437761E+03  0.53547372106E+03  0.12501054506E+03  0.86552134046E+03  0.59981268959E+03 0.  0.
         23    2    4    4    0    0 -0.68568804226E+02 -0.59004589295E+02 -0.12277218089E+03  0.17691793147E+03  0.89686808417E+02 0.  0.
         23    2    4    4    0    0 -0.22637557338E+03  0.59447831036E+03  0.24778272595E+03  0.68860340899E+03  0.90155498396E+02 0.  0.
          3    1    3    3  502    0  0.42239583236E+02 -0.27229913772E+02 -0.51588700370E+02  0.72021139965E+02  0.00000000000E+00 0. -1.
         -3    1    3    3    0  502  0.25270479437E+03 -0.50824380729E+03 -0.67237736357E+03  0.87992204188E+03  0.00000000000E+00 0.  1.
         11    1    5    5    0    0 -0.15602935240E+02 -0.28100605002E+02  0.74373010468E+01  0.32991044792E+02  0.00000000000E+00 0.  1.
        -11    1    5    5    0    0 -0.52965868986E+02 -0.30903984293E+02 -0.13020948194E+03  0.14392688668E+03  0.00000000000E+00 0. -1.
          1    1    6    6  503    0 -0.13131388792E+03  0.27275169935E+03  0.77966003172E+02  0.31259482451E+03  0.00000000000E+00 0. -1.
         -1    1    6    6    0  503 -0.95061685465E+02  0.32172661101E+03  0.16981672277E+03  0.37600858449E+03  0.00000000000E+00 0.  1.
<mgrwt>
<rscale>  0 0.67475711E+03</rscale>
<asrwt>0</asrwt>
<pdfrwt beam="1">  1        1 0.93731462E-01 0.67475711E+03</pdfrwt>
<pdfrwt beam="2">  1       -1 0.18587847E+00 0.67475711E+03</pdfrwt>
<totfact> 0.66154854E+00</totfact>
</mgrwt>
</event>
<event>
12    1  0.1335216E-007  0.1017733E+04  0.7818608E-02  0.9289307E-01
         -1   -1    0    0    0  501 -0.00000000000E+00  0.00000000000E+00  0.27770509534E+03  0.27770509534E+03  0.00000000000E+00 0.  1.
          1   -1    0    0  501    0  0.00000000000E+00 -0.00000000000E+00 -0.39464644648E+04  0.39464644648E+04  0.00000000000E+00 0. -1.
         23    2    1    2    0    0  0.79431208201E+03 -0.51451108436E+03 -0.19953314153E+04  0.22102291364E+04  0.90066857345E+02 0.  0.
    5000000    2    1    2    0    0 -0.79431208201E+03  0.51451108436E+03 -0.16734279541E+04  0.20139404237E+04  0.59995130899E+03 0.  0.
         23    2    4    4    0    0 -0.36161302771E+02 -0.77141130469E+02 -0.70715769967E+02  0.14279216231E+03  0.90169216851E+02 0.  0.
         23    2    4    4    0    0 -0.75815077924E+03  0.59165221483E+03 -0.16027121842E+04  0.18711482614E+04  0.87547265042E+02 0.  0.
          2    1    3    3  502    0  0.22942007550E+03 -0.11984415702E+03 -0.47285882849E+03  0.53906554767E+03  0.00000000000E+00 0. -1.
         -2    1    3    3    0  502  0.56489200651E+03 -0.39466692735E+03 -0.15224725868E+04  0.16711635887E+04  0.00000000000E+00 0.  1.
         11    1    5    5    0    0 -0.65885243658E+02 -0.51742501154E+02 -0.38805296157E+02  0.92325526088E+02  0.00000000000E+00 0. -1.
        -11    1    5    5    0    0  0.29723940887E+02 -0.25398629315E+02 -0.31910473809E+02  0.50466636224E+02  0.00000000000E+00 0.  1.
          1    1    6    6  503    0 -0.28158194623E+03  0.26674106078E+03 -0.60275347918E+03  0.71676421689E+03  0.00000000000E+00 0. -1.
         -1    1    6    6    0  503 -0.47656883301E+03  0.32491115405E+03 -0.99995870499E+03  0.11543840446E+04  0.00000000000E+00 0.  1.
<mgrwt>
<rscale>  0 0.10177330E+04</rscale>
<asrwt>0</asrwt>
<pdfrwt beam="1">  1        1 0.60714838E+00 0.10177330E+04</pdfrwt>
<pdfrwt beam="2">  1       -1 0.42723861E-01 0.10177330E+04</pdfrwt>
<totfact> 0.60455166E-01</totfact>
</mgrwt>
</event>
<event>
12    1  0.1335216E-007  0.6719304E+03  0.7818608E-02  0.9766477E-01
          1   -1    0    0  501    0  0.00000000000E+00  0.00000000000E+00  0.70436763424E+03  0.70436763424E+03  0.00000000000E+00 0.  1.
         -1   -1    0    0    0  501 -0.00000000000E+00 -0.00000000000E+00 -0.10904828660E+04  0.10904828660E+04  0.00000000000E+00 0. -1.
         23    2    1    2    0    0 -0.48753016808E+03  0.32639662995E+03 -0.68292190851E+03  0.90485267515E+03  0.90308392621E+02 0.  0.
    5000000    2    1    2    0    0  0.48753016808E+03 -0.32639662995E+03  0.29680667678E+03  0.88999782506E+03  0.59981788936E+03 0.  0.
         23    2    4    4    0    0  0.21072642950E+02 -0.26788886012E+03  0.29605919930E+03  0.40979899895E+03  0.89864745027E+02 0.  0.
         23    2    4    4    0    0  0.46645752513E+03 -0.58507769830E+02  0.74747748147E+00  0.48019882611E+03  0.97900827312E+02 0.  0.
          4    1    3    3  502    0 -0.45184304182E+03  0.32150005913E+03 -0.61593258411E+03  0.82879271873E+03  0.00000000000E+00 0. -1.
         -4    1    3    3    0  502 -0.35687126265E+02  0.48965708184E+01 -0.66989324402E+02  0.76059956421E+02  0.00000000000E+00 0.  1.
         11    1    5    5    0    0  0.30110010630E+02 -0.22452877622E+02  0.44401387169E+02  0.58156922513E+02  0.00000000000E+00 0. -1.
        -11    1    5    5    0    0 -0.90373676803E+01 -0.24543598249E+03  0.25165781213E+03  0.35164207644E+03  0.00000000000E+00 0.  1.
          2    1    6    6  503    0  0.91726447340E+02 -0.99627648604E+01  0.39477538100E+02  0.10035673291E+03  0.00000000000E+00 0. -1.
         -2    1    6    6    0  503  0.37473107779E+03 -0.48545004970E+02 -0.38730060618E+02  0.37984209320E+03  0.00000000000E+00 0.  1.
<mgrwt>
<rscale>  0 0.67193042E+03</rscale>
<asrwt>0</asrwt>
<pdfrwt beam="1">  1        1 0.10836425E+00 0.67193042E+03</pdfrwt>
<pdfrwt beam="2">  1       -1 0.16776659E+00 0.67193042E+03</pdfrwt>
<totfact> 0.72079270E+00</totfact>
</mgrwt>
</event>
<event>
12    1  0.1335216E-007  0.2785162E+04  0.7818608E-02  0.8307890E-01
         -2   -1    0    0    0  501 -0.00000000000E+00  0.00000000000E+00  0.34053897843E+04  0.34053897843E+04  0.00000000000E+00 0.  1.
          2   -1    0    0  501    0  0.00000000000E+00 -0.00000000000E+00 -0.24787745088E+04  0.24787745088E+04  0.00000000000E+00 0. -1.
         23    2    1    2    0    0 -0.26889273000E+04 -0.62436629072E+03  0.12671993090E+04  0.30388186212E+04  0.91984966758E+02 0.  0.
    5000000    2    1    2    0    0  0.26889273000E+04  0.62436629072E+03 -0.34058403349E+03  0.28453456719E+04  0.59985933254E+03 0.  0.
         23    2    4    4    0    0  0.10637412061E+04  0.50383754185E+03 -0.19877887966E+02  0.11812307143E+04  0.97535879472E+02 0.  0.
         23    2    4    4    0    0  0.16251860939E+04  0.12052874887E+03 -0.32070614553E+03  0.16641149576E+04  0.10329153480E+03 0.  0.
          2    1    3    3  502    0 -0.21159620607E+04 -0.48453271695E+03  0.95522385130E+03  0.23716070505E+04  0.00000000000E+00 0. -1.
         -2    1    3    3    0  502 -0.57296523935E+03 -0.13983357377E+03  0.31197545768E+03  0.66721157068E+03  0.00000000000E+00 0.  1.
         13    1    5    5    0    0  0.28755373592E+03  0.14066208836E+03  0.37820458315E+02  0.32234044303E+03  0.00000000000E+00 0. -1.
        -13    1    5    5    0    0  0.77618747015E+03  0.36317545349E+03 -0.57698346281E+02  0.85889027122E+03  0.00000000000E+00 0.  1.
          4    1    6    6  503    0  0.67528742057E+03  0.42357023635E+00 -0.12080875011E+03  0.68600877101E+03  0.00000000000E+00 0. -1.
         -4    1    6    6    0  503  0.94989867337E+03  0.12010517864E+03 -0.19989739541E+03  0.97810618661E+03  0.00000000000E+00 0.  1.
<mgrwt>
<rscale>  0 0.27851624E+04</rscale>
<asrwt>0</asrwt>
<pdfrwt beam="1">  1        2 0.38134992E+00 0.27851624E+04</pdfrwt>
<pdfrwt beam="2">  1       -2 0.52390612E+00 0.27851624E+04</pdfrwt>
<totfact> 0.34273906E-03</totfact>
</mgrwt>
</event>
<event>
12    1  0.1335216E-007  0.4067794E+03  0.7818608E-02  0.1041457E+00
         -2   -1    0    0    0  501 -0.00000000000E+00  0.00000000000E+00  0.61892592551E+03  0.61892592551E+03  0.00000000000E+00 0.  1.
          2   -1    0    0  501    0  0.00000000000E+00 -0.00000000000E+00 -0.63228484989E+03  0.63228484989E+03  0.00000000000E+00 0. -1.
         23    2    1    2    0    0  0.19253824693E+03  0.16937722569E+03  0.39611528036E+03  0.48087121895E+03  0.92575335650E+02 0.  0.
    5000000    2    1    2    0    0 -0.19253824693E+03 -0.16937722569E+03 -0.40947420474E+03  0.77033955644E+03  0.59999523895E+03 0.  0.
         23    2    4    4    0    0 -0.38819009891E+02 -0.30729642434E+03 -0.43455252076E+03  0.54161357606E+03  0.92581664106E+02 0.  0.
         23    2    4    4    0    0 -0.15371923704E+03  0.13791919865E+03  0.25078316023E+02  0.22872598038E+03  0.95054421119E+02 0.  0.
          4    1    3    3  502    0  0.28353495730E+02  0.80173068346E+02  0.14075073515E+03  0.16444576934E+03  0.00000000000E+00 0. -1.
         -4    1    3    3    0  502  0.16418475120E+03  0.89204157348E+02  0.25536454521E+03  0.31642544962E+03  0.00000000000E+00 0.  1.
         11    1    5    5    0    0 -0.33084994024E+02 -0.68363939084E+02 -0.16324941425E+03  0.18005170438E+03  0.00000000000E+00 0. -1.
        -11    1    5    5    0    0 -0.57340158667E+01 -0.23893248526E+03 -0.27130310651E+03  0.36156187168E+03  0.00000000000E+00 0.  1.
          4    1    6    6  503    0 -0.93406890186E+02  0.21873852832E+02  0.19032766579E+02  0.97803674653E+02  0.00000000000E+00 0. -1.
         -4    1    6    6    0  503 -0.60312346857E+02  0.11604534582E+03  0.60455494439E+01  0.13092230573E+03  0.00000000000E+00 0.  1.
<mgrwt>
<rscale>  0 0.40677938E+03</rscale>
<asrwt>0</asrwt>
<pdfrwt beam="1">  1        2 0.97274592E-01 0.40677938E+03</pdfrwt>
<pdfrwt beam="2">  1       -2 0.95219373E-01 0.40677938E+03</pdfrwt>
<totfact> 0.45185280E+01</totfact>
</mgrwt>
</event>
<event>
12    1  0.1335216E-007  0.5507634E+03  0.7818608E-02  0.1001317E+00
         -1   -1    0    0    0  501 -0.00000000000E+00  0.00000000000E+00  0.86550699762E+03  0.86550699762E+03  0.00000000000E+00 0.  1.
          1   -1    0    0  501    0  0.00000000000E+00 -0.00000000000E+00 -0.59670563555E+03  0.59670563555E+03  0.00000000000E+00 0. -1.
         23    2    1    2    0    0  0.25616154271E+03  0.48317022763E+03 -0.11111487614E+03  0.56576906355E+03  0.93144579742E+02 0.  0.
    5000000    2    1    2    0    0 -0.25616154271E+03 -0.48317022763E+03  0.37991623821E+03  0.89644356961E+03  0.60016874344E+03 0.  0.
         23    2    4    4    0    0 -0.14187683630E+03 -0.29792135512E+03 -0.10466711282E+03  0.35776308906E+03  0.90294257135E+02 0.  0.
         23    2    4    4    0    0 -0.11428470641E+03 -0.18524887252E+03  0.48458335103E+03  0.53868048055E+03  0.89316835743E+02 0.  0.
          3    1    3    3  502    0  0.22348300475E+03  0.35876394085E+03 -0.11152007378E+03  0.43714179109E+03  0.00000000000E+00 0. -1.
         -3    1    3    3    0  502  0.32678537964E+02  0.12440628678E+03  0.40519763282E+00  0.12862727246E+03  0.00000000000E+00 0.  1.
         13    1    5    5    0    0 -0.55920557791E+02 -0.16418537658E+03 -0.12259230187E+02  0.17387994534E+03  0.00000000000E+00 0.  1.
        -13    1    5    5    0    0 -0.85956278513E+02 -0.13373597854E+03 -0.92407882632E+02  0.18388314372E+03  0.00000000000E+00 0. -1.
          3    1    6    6  503    0 -0.83035517671E+02 -0.12795931629E+03  0.42010453379E+03  0.44694105107E+03  0.00000000000E+00 0. -1.
         -3    1    6    6    0  503 -0.31249188736E+02 -0.57289556227E+02  0.64478817238E+02  0.91739429482E+02  0.00000000000E+00 0.  1.
<mgrwt>
<rscale>  0 0.55076338E+03</rscale>
<asrwt>0</asrwt>
<pdfrwt beam="1">  1        1 0.91800867E-01 0.55076338E+03</pdfrwt>
<pdfrwt beam="2">  1       -1 0.13315492E+00 0.55076338E+03</pdfrwt>
<totfact> 0.17377004E+01</totfact>
</mgrwt>
</event>
<event>
12    1  0.1335216E-007  0.5183269E+03  0.7818608E-02  0.1009103E+00
          1   -1    0    0  501    0  0.00000000000E+00  0.00000000000E+00  0.26915290526E+03  0.26915290526E+03  0.00000000000E+00 0. -1.
         -1   -1    0    0    0  501 -0.00000000000E+00 -0.00000000000E+00 -0.15170479314E+04  0.15170479314E+04  0.00000000000E+00 0.  1.
         23    2    1    2    0    0  0.21680303003E+02 -0.49231604728E+03 -0.48169349522E+03  0.69533399649E+03  0.92820350078E+02 0.  0.
    5000000    2    1    2    0    0 -0.21680303003E+02  0.49231604728E+03 -0.76620153096E+03  0.10908668402E+04  0.60006712215E+03 0.  0.
         23    2    4    4    0    0 -0.87795087946E+02  0.21515925223E+03  0.18945849674E+02  0.25068606678E+03  0.92103624094E+02 0.  0.
         23    2    4    4    0    0  0.66114784943E+02  0.27715679505E+03 -0.78514738063E+03  0.84018077343E+03  0.90886021480E+02 0.  0.
          3    1    3    3  502    0 -0.35841346098E+02 -0.24030638265E+03 -0.23460452582E+03  0.33774404978E+03  0.00000000000E+00 0. -1.
         -3    1    3    3    0  502  0.57521649100E+02 -0.25200966463E+03 -0.24708896941E+03  0.35758994671E+03  0.00000000000E+00 0.  1.
         11    1    5    5    0    0  0.19572758576E+02  0.38060605823E+02  0.54415246089E+01  0.43142934346E+02  0.00000000000E+00 0. -1.
        -11    1    5    5    0    0 -0.10736784652E+03  0.17709864641E+03  0.13504325066E+02  0.20754313244E+03  0.00000000000E+00 0.  1.
          4    1    6    6  503    0  0.14094492614E+02  0.37558236096E+02 -0.22756030555E+03  0.23106918549E+03  0.00000000000E+00 0.  1.
         -4    1    6    6    0  503  0.52020292329E+02  0.23959855895E+03 -0.55758707508E+03  0.60911158794E+03  0.00000000000E+00 0. -1.
<mgrwt>
<rscale>  0 0.51832688E+03</rscale>
<asrwt>0</asrwt>
<pdfrwt beam="1">  1        1 0.41408139E-01 0.51832688E+03</pdfrwt>
<pdfrwt beam="2">  1       -1 0.23339199E+00 0.51832688E+03</pdfrwt>
<totfact> 0.96809664E+00</totfact>
</mgrwt>
</event>
<event>
12    1  0.1335216E-007  0.9829261E+03  0.7818608E-02  0.9327472E-01
         -1   -1    0    0    0  501 -0.00000000000E+00  0.00000000000E+00  0.13501734242E+04  0.13501734242E+04  0.00000000000E+00 0.  1.
          1   -1    0    0  501    0  0.00000000000E+00 -0.00000000000E+00 -0.85668034547E+03  0.85668034547E+03  0.00000000000E+00 0. -1.
         23    2    1    2    0    0  0.50877399435E+02  0.93633379475E+03 -0.96154192969E+02  0.94689018045E+03  0.89698941225E+02 0.  0.
    5000000    2    1    2    0    0 -0.50877399435E+02 -0.93633379475E+03  0.58964727175E+03  0.12599635893E+04  0.60042889357E+03 0.  0.
         23    2    4    4    0    0  0.13667501322E+03 -0.11507275278E+03 -0.39510576569E+02  0.20458773194E+03  0.91505501080E+02 0.  0.
         23    2    4    4    0    0 -0.18755241266E+03 -0.82126104196E+03  0.62915784832E+03  0.10553758573E+04  0.91285242948E+02 0.  0.
          3    1    3    3  502    0  0.51362495457E+02  0.55931391380E+03 -0.96341007434E+02  0.56986994114E+03  0.00000000000E+00 0. -1.
         -3    1    3    3    0  502 -0.48509602239E+00  0.37701988095E+03  0.18681446512E+00  0.37702023931E+03  0.00000000000E+00 0.  1.
         13    1    5    5    0    0  0.98399881676E+02 -0.67456360324E+02  0.18038818259E+02  0.12065776488E+03  0.00000000000E+00 0. -1.
        -13    1    5    5    0    0  0.38275131547E+02 -0.47616392460E+02 -0.57549394828E+02  0.83929967061E+02  0.00000000000E+00 0.  1.
          4    1    6    6  503    0 -0.25720215252E+01 -0.16278271985E+03  0.13642377094E+03  0.21240591906E+03  0.00000000000E+00 0. -1.
         -4    1    6    6    0  503 -0.18498039113E+03 -0.65847832211E+03  0.49273407738E+03  0.84296993826E+03  0.00000000000E+00 0.  1.
<mgrwt>
<rscale>  0 0.98292614E+03</rscale>
<asrwt>0</asrwt>
<pdfrwt beam="1">  1        1 0.13179698E+00 0.98292614E+03</pdfrwt>
<pdfrwt beam="2">  1       -1 0.20771899E+00 0.98292614E+03</pdfrwt>
<totfact> 0.26515416E+00</totfact>
</mgrwt>
</event>
<event>
12    1  0.1335216E-007  0.2580469E+04  0.7818608E-02  0.8374866E-01
         -2   -1    0    0    0  501 -0.00000000000E+00  0.00000000000E+00  0.26761037093E+04  0.26761037093E+04  0.00000000000E+00 0.  1.
          2   -1    0    0  501    0  0.00000000000E+00 -0.00000000000E+00 -0.30545129198E+04  0.30545129198E+04  0.00000000000E+00 0. -1.
         23    2    1    2    0    0  0.21664683391E+04 -0.13959799375E+04 -0.13509748952E+04  0.29113566372E+04  0.92299790566E+02 0.  0.
    5000000    2    1    2    0    0 -0.21664683391E+04  0.13959799375E+04  0.97256568479E+03  0.28192599919E+04  0.59999820030E+03 0.  0.
         23    2    4    4    0    0 -0.14715626817E+04  0.88922451130E+03  0.92050292775E+03  0.19524054332E+04  0.91347567012E+02 0.  0.
         23    2    4    4    0    0 -0.69490565743E+03  0.50675542621E+03  0.52062757041E+02  0.86685455869E+03  0.95033470576E+02 0.  0.
          1    1    3    3  502    0  0.14616017295E+04 -0.89409858866E+03 -0.91688830252E+03  0.19432900096E+04  0.00000000000E+00 0. -1.
         -1    1    3    3    0  502  0.70486660958E+03 -0.50188134885E+03 -0.43408659273E+03  0.96806662767E+03  0.00000000000E+00 0.  1.
         11    1    5    5    0    0 -0.89857699072E+03  0.54810868430E+03  0.61344208075E+03  0.12182671811E+04  0.00000000000E+00 0.  1.
        -11    1    5    5    0    0 -0.57298569096E+03  0.34111582699E+03  0.30706084700E+03  0.73413825212E+03  0.00000000000E+00 0. -1.
          3    1    6    6  503    0 -0.60437805949E+03  0.40970716583E+03  0.20551246594E+02  0.73044859796E+03  0.00000000000E+00 0. -1.
         -3    1    6    6    0  503 -0.90527597935E+02  0.97048260387E+02  0.31511510447E+02  0.13640596073E+03  0.00000000000E+00 0.  1.
<mgrwt>
<rscale>  0 0.25804689E+04</rscale>
<asrwt>0</asrwt>
<pdfrwt beam="1">  1        2 0.46992506E+00 0.25804689E+04</pdfrwt>
<pdfrwt beam="2">  1       -2 0.41170826E+00 0.25804689E+04</pdfrwt>
<totfact> 0.82721187E-03</totfact>
</mgrwt>
</event>
<event>
12    1  0.1335216E-007  0.7487199E+03  0.7818608E-02  0.9637361E-01
         -2   -1    0    0    0  501 -0.00000000000E+00  0.00000000000E+00  0.72711300028E+03  0.72711300028E+03  0.00000000000E+00 0.  1.
          2   -1    0    0  501    0  0.00000000000E+00 -0.00000000000E+00 -0.90740639161E+03  0.90740639161E+03  0.00000000000E+00 0. -1.
         23    2    1    2    0    0  0.66222135251E+03  0.21909344174E+03 -0.51428821786E+02  0.70537629693E+03  0.91497216523E+02 0.  0.
    5000000    2    1    2    0    0 -0.66222135251E+03 -0.21909344174E+03 -0.12886456955E+03  0.92914309497E+03  0.60013478295E+03 0.  0.
         23    2    4    4    0    0 -0.29807454475E+03  0.87269252099E+02  0.16381684801E+03  0.36264693859E+03  0.90622766384E+02 0.  0.
         23    2    4    4    0    0 -0.36414680775E+03 -0.30636269384E+03 -0.29268141756E+03  0.56649615637E+03  0.93778916741E+02 0.  0.
          2    1    3    3  502    0  0.44862673743E+03  0.16510924018E+03  0.45422388400E+01  0.47806656719E+03  0.00000000000E+00 0. -1.
         -2    1    3    3    0  502  0.21359461507E+03  0.53984201566E+02 -0.55971060626E+02  0.22730972974E+03  0.00000000000E+00 0.  1.
         11    1    5    5    0    0 -0.18966922083E+03  0.97569013676E+02  0.12389591775E+03  0.24666642292E+03  0.00000000000E+00 0. -1.
        -11    1    5    5    0    0 -0.10840532393E+03 -0.10299761576E+02  0.39920930262E+02  0.11598051568E+03  0.00000000000E+00 0.  1.
          2    1    6    6  503    0 -0.14248080327E+03 -0.13994539740E+03 -0.17435399732E+03  0.26511282492E+03  0.00000000000E+00 0. -1.
         -2    1    6    6    0  503 -0.22166600448E+03 -0.16641729644E+03 -0.11832742023E+03  0.30138333145E+03  0.00000000000E+00 0.  1.
<mgrwt>
<rscale>  0 0.74871991E+03</rscale>
<asrwt>0</asrwt>
<pdfrwt beam="1">  1        2 0.13960098E+00 0.74871991E+03</pdfrwt>
<pdfrwt beam="2">  1       -2 0.11186354E+00 0.74871991E+03</pdfrwt>
<totfact> 0.18570974E+01</totfact>
</mgrwt>
</event>
<event>
12    1  0.1335216E-007  0.1241579E+04  0.7818608E-02  0.9077221E-01
          2   -1    0    0  501    0  0.00000000000E+00  0.00000000000E+00  0.14397793054E+04  0.14397793054E+04  0.00000000000E+00 0. -1.
         -2   -1    0    0    0  501 -0.00000000000E+00 -0.00000000000E+00 -0.15301374009E+04  0.15301374009E+04  0.00000000000E+00 0.  1.
         23    2    1    2    0    0 -0.11990503382E+04 -0.65794059935E+02  0.71877815433E+03  0.14025326587E+04  0.91680160354E+02 0.  0.
    5000000    2    1    2    0    0  0.11990503382E+04  0.65794059935E+02 -0.80913624982E+03  0.15673840476E+04  0.59995058970E+03 0.  0.
         23    2    4    4    0    0  0.45272793824E+03 -0.18226380184E+03 -0.10408251497E+03  0.50729956105E+03  0.91307147578E+02 0.  0.
         23    2    4    4    0    0  0.74632239991E+03  0.24805786177E+03 -0.70505373486E+03  0.10600844865E+04  0.90269164947E+02 0.  0.
          4    1    3    3  502    0 -0.31596420555E+03  0.14694663416E+02  0.16069865093E+03  0.35478637055E+03  0.00000000000E+00 0. -1.
         -4    1    3    3    0  502 -0.88308613260E+03 -0.80488723351E+02  0.55807950340E+03  0.10477462881E+04  0.00000000000E+00 0.  1.
         11    1    5    5    0    0  0.24192761050E+03 -0.12776684269E+03 -0.21511864542E+02  0.27443778006E+03  0.00000000000E+00 0. -1.
        -11    1    5    5    0    0  0.21080032775E+03 -0.54496959151E+02 -0.82570650424E+02  0.23286178099E+03  0.00000000000E+00 0.  1.
          1    1    6    6  503    0  0.42461510479E+03  0.17253010671E+03 -0.45359566242E+03  0.64483614190E+03  0.00000000000E+00 0. -1.
         -1    1    6    6    0  503  0.32170729512E+03  0.75527755064E+02 -0.25145807244E+03  0.41524834462E+03  0.00000000000E+00 0.  1.
<mgrwt>
<rscale>  0 0.12415794E+04</rscale>
<asrwt>0</asrwt>
<pdfrwt beam="1">  1        2 0.22150451E+00 0.12415794E+04</pdfrwt>
<pdfrwt beam="2">  1       -2 0.23540575E+00 0.12415794E+04</pdfrwt>
<totfact> 0.10497845E+00</totfact>
</mgrwt>
</event>
<event>
12    1  0.1335216E-007  0.8672924E+03  0.7818608E-02  0.9467417E-01
          1   -1    0    0  501    0  0.00000000000E+00  0.00000000000E+00  0.25741126756E+04  0.25741126756E+04  0.00000000000E+00 0. -1.
         -1   -1    0    0    0  501 -0.00000000000E+00 -0.00000000000E+00 -0.48105195074E+03  0.48105195074E+03  0.00000000000E+00 0.  1.
         23    2    1    2    0    0  0.78625376386E+03  0.92852592114E+02  0.68457730614E+02  0.79989385609E+03  0.91253137315E+02 0.  0.
    5000000    2    1    2    0    0 -0.78625376386E+03 -0.92852592114E+02  0.20246029942E+04  0.22552707702E+04  0.60034354982E+03 0.  0.
         23    2    4    4    0    0 -0.43723371617E+03 -0.29208511131E+03  0.78855224804E+03  0.95236265580E+03  0.93235966700E+02 0.  0.
         23    2    4    4    0    0 -0.34902004770E+03  0.19923251919E+03  0.12360507462E+04  0.13029081144E+04  0.90771785843E+02 0.  0.
          4    1    3    3  502    0  0.62256814260E+03  0.35741738840E+02  0.52651574962E+02  0.62581207437E+03  0.00000000000E+00 0. -1.
         -4    1    3    3    0  502  0.16368562126E+03  0.57110853274E+02  0.15806155652E+02  0.17408178172E+03  0.00000000000E+00 0.  1.
         11    1    5    5    0    0 -0.10449224505E+03 -0.65967164773E+02  0.26231063387E+03  0.28996062620E+03  0.00000000000E+00 0. -1.
        -11    1    5    5    0    0 -0.33274147112E+03 -0.22611794653E+03  0.52624161416E+03  0.66240202960E+03  0.00000000000E+00 0.  1.
          1    1    6    6  503    0 -0.30127523811E+03  0.13111229954E+03  0.10041294209E+04  0.10565193316E+04  0.00000000000E+00 0. -1.
         -1    1    6    6    0  503 -0.47744809592E+02  0.68120219657E+02  0.23192132526E+03  0.24638878278E+03  0.00000000000E+00 0.  1.
<mgrwt>
<rscale>  0 0.86729236E+03</rscale>
<asrwt>0</asrwt>
<pdfrwt beam="1">  1        1 0.39601733E+00 0.86729236E+03</pdfrwt>
<pdfrwt beam="2">  1       -1 0.74007994E-01 0.86729236E+03</pdfrwt>
<totfact> 0.23038333E+00</totfact>
</mgrwt>
</event>
<event>
12    1  0.1335216E-007  0.4936606E+03  0.7818608E-02  0.1015447E+00
          2   -1    0    0  501    0  0.00000000000E+00  0.00000000000E+00  0.12936879851E+04  0.12936879851E+04  0.00000000000E+00 0. -1.
         -2   -1    0    0    0  501 -0.00000000000E+00 -0.00000000000E+00 -0.38569331463E+03  0.38569331463E+03  0.00000000000E+00 0.  1.
         23    2    1    2    0    0  0.16610864771E+03 -0.30625326723E+03  0.91745435465E+03  0.98529589618E+03  0.87763110988E+02 0.  0.
    5000000    2    1    2    0    0 -0.16610864771E+03  0.30625326723E+03 -0.94596842219E+01  0.69408540349E+03  0.60023488335E+03 0.  0.
         23    2    4    4    0    0 -0.35243321904E+03  0.19510430104E+03  0.11551099599E+03  0.42883586042E+03  0.91008476667E+02 0.  0.
         23    2    4    4    0    0  0.18632457133E+03  0.11114896619E+03 -0.12497068021E+03  0.26524954307E+03  0.87571174605E+02 0.  0.
          2    1    3    3  502    0  0.79421459300E+02 -0.21606319247E+03  0.52140465899E+03  0.56995955098E+03  0.00000000000E+00 0. -1.
         -2    1    3    3    0  502  0.86687188408E+02 -0.90190074757E+02  0.39604969566E+03  0.41533634521E+03  0.00000000000E+00 0.  1.
         11    1    5    5    0    0 -0.28341848595E+03  0.16882482890E+03  0.57360215859E+02  0.33484034314E+03  0.00000000000E+00 0. -1.
        -11    1    5    5    0    0 -0.69014733088E+02  0.26279472136E+02  0.58150780134E+02  0.93995517282E+02  0.00000000000E+00 0.  1.
          1    1    6    6  503    0  0.16463221640E+03  0.64452330515E+02 -0.11966210147E+03  0.21348744252E+03  0.00000000000E+00 0. -1.
         -1    1    6    6    0  503  0.21692354931E+02  0.46696635673E+02 -0.53085787465E+01  0.51762100556E+02  0.00000000000E+00 0.  1.
<mgrwt>
<rscale>  0 0.49366056E+03</rscale>
<asrwt>0</asrwt>
<pdfrwt beam="1">  1        2 0.19902892E+00 0.49366056E+03</pdfrwt>
<pdfrwt beam="2">  1       -2 0.59337434E-01 0.49366056E+03</pdfrwt>
<totfact> 0.46486541E+01</totfact>
</mgrwt>
</event>
<event>
12    1  0.1335216E-007  0.1594893E+04  0.7818608E-02  0.8823692E-01
         -2   -1    0    0    0  501 -0.00000000000E+00  0.00000000000E+00  0.12250103542E+04  0.12250103542E+04  0.00000000000E+00 0. -1.
          2   -1    0    0  501    0  0.00000000000E+00 -0.00000000000E+00 -0.20899164755E+04  0.20899164755E+04  0.00000000000E+00 0.  1.
         23    2    1    2    0    0  0.13512768596E+04  0.73959136367E+03 -0.33260711502E+03  0.15781785871E+04  0.84116724090E+02 0.  0.
    5000000    2    1    2    0    0 -0.13512768596E+04 -0.73959136367E+03 -0.53229900631E+03  0.17367482426E+04  0.60000640802E+03 0.  0.
         23    2    4    4    0    0 -0.28611432783E+03  0.70794358642E+02 -0.14564037041E+03  0.34057643293E+03  0.88926595377E+02 0.  0.
         23    2    4    4    0    0 -0.10651625318E+04 -0.81038572231E+03 -0.38665863589E+03  0.13961718097E+04  0.92166064759E+02 0.  0.
          2    1    3    3  502    0  0.47805055434E+03  0.24492537881E+03 -0.15424977785E+03  0.55885039828E+03  0.00000000000E+00 0. -1.
         -2    1    3    3    0  502  0.87322630524E+03  0.49466598486E+03 -0.17835733717E+03  0.10193281888E+04  0.00000000000E+00 0.  1.
         13    1    5    5    0    0 -0.26619323777E+03  0.37322921537E+02 -0.12403664313E+03  0.29603535117E+03  0.00000000000E+00 0.  1.
        -13    1    5    5    0    0 -0.19921090061E+02  0.33471437105E+02 -0.21603727282E+02  0.44541081752E+02  0.00000000000E+00 0. -1.
          3    1    6    6  503    0 -0.27389711942E+03 -0.25813164407E+03 -0.95972587473E+02  0.38840998345E+03  0.00000000000E+00 0. -1.
         -3    1    6    6    0  503 -0.79126541233E+03 -0.55225407825E+03 -0.29068604842E+03  0.10077618262E+04  0.00000000000E+00 0.  1.
<mgrwt>
<rscale>  0 0.15948931E+04</rscale>
<asrwt>0</asrwt>
<pdfrwt beam="1">  1        2 0.32152561E+00 0.15948931E+04</pdfrwt>
<pdfrwt beam="2">  1       -2 0.18846313E+00 0.15948931E+04</pdfrwt>
<totfact> 0.88029541E-01</totfact>
</mgrwt>
</event>
<event>
12    1  0.1335216E-007  0.3504303E+04  0.7818608E-02  0.8112771E-01
         -2   -1    0    0    0  501 -0.00000000000E+00  0.00000000000E+00  0.35562113826E+04  0.35562113826E+04  0.00000000000E+00 0.  1.
          2   -1    0    0  501    0  0.00000000000E+00 -0.00000000000E+00 -0.47186854690E+04  0.47186854690E+04  0.00000000000E+00 0. -1.
         23    2    1    2    0    0  0.29330702147E+04  0.19116102573E+04 -0.26821105081E+04  0.44114182103E+04  0.98687326930E+02 0.  0.
    5000000    2    1    2    0    0 -0.29330702147E+04 -0.19116102573E+04  0.15196364217E+04  0.38634786414E+04  0.60001474817E+03 0.  0.
         23    2    4    4    0    0 -0.26090862727E+04 -0.17276635763E+04  0.15211535396E+04  0.34805500629E+04  0.90377198721E+02 0.  0.
         23    2    4    4    0    0 -0.32398394194E+03 -0.18394668096E+03 -0.15171178128E+01  0.38292857845E+03  0.88487391603E+02 0.  0.
          1    1    3    3  502    0  0.14824632138E+04  0.94246458291E+03 -0.12888079726E+04  0.21787525469E+04  0.00000000000E+00 0. -1.
         -1    1    3    3    0  502  0.14506070008E+04  0.96914567437E+03 -0.13933025355E+04  0.22326656634E+04  0.00000000000E+00 0.  1.
         11    1    5    5    0    0 -0.64567091150E+03 -0.40595293094E+03  0.40918806231E+03  0.86551925364E+03  0.00000000000E+00 0. -1.
        -11    1    5    5    0    0 -0.19634153612E+04 -0.13217106454E+04  0.11119654772E+04  0.26150308093E+04  0.00000000000E+00 0.  1.
          1    1    6    6  503    0 -0.25173736395E+03 -0.11085609687E+03 -0.28881721419E+02  0.27657716546E+03  0.00000000000E+00 0. -1.
         -1    1    6    6    0  503 -0.72246577992E+02 -0.73090584084E+02  0.27364603607E+02  0.10635141298E+03  0.00000000000E+00 0.  1.
<mgrwt>
<rscale>  0 0.35043029E+04</rscale>
<asrwt>0</asrwt>
<pdfrwt beam="1">  1        2 0.72595161E+00 0.35043029E+04</pdfrwt>
<pdfrwt beam="2">  1       -2 0.54710945E+00 0.35043029E+04</pdfrwt>
<totfact> 0.47501494E-05</totfact>
</mgrwt>
</event>
<event>
12    1  0.1335216E-007  0.7149353E+03  0.7818608E-02  0.9692026E-01
          2   -1    0    0  501    0  0.00000000000E+00  0.00000000000E+00  0.10152632572E+04  0.10152632572E+04  0.00000000000E+00 0. -1.
         -2   -1    0    0    0  501 -0.00000000000E+00 -0.00000000000E+00 -0.51085357432E+03  0.51085357432E+03  0.00000000000E+00 0.  1.
         23    2    1    2    0    0 -0.59107394918E+03 -0.31542727823E+01  0.19981755029E+03  0.63048466075E+03  0.90584166384E+02 0.  0.
    5000000    2    1    2    0    0  0.59107394918E+03  0.31542727823E+01  0.30459213256E+03  0.89563217074E+03  0.60000187934E+03 0.  0.
         23    2    4    4    0    0  0.27372430384E+03 -0.27902350786E+03  0.20821163064E+03  0.45162673241E+03  0.88518415260E+02 0.  0.
         23    2    4    4    0    0  0.31734964534E+03  0.28217778064E+03  0.96380501922E+02  0.44400543834E+03  0.86697928678E+02 0.  0.
          2    1    3    3  502    0 -0.15505291310E+03 -0.40514573780E+02  0.58829785971E+02  0.17071549510E+03  0.00000000000E+00 0. -1.
         -2    1    3    3    0  502 -0.43602103608E+03  0.37360300997E+02  0.14098776432E+03  0.45976916565E+03  0.00000000000E+00 0.  1.
         13    1    5    5    0    0  0.27539769927E+03 -0.25246558299E+03  0.18820764744E+03  0.41833584823E+03  0.00000000000E+00 0.  1.
        -13    1    5    5    0    0 -0.16733954296E+01 -0.26557924864E+02  0.20003983203E+02  0.33290884177E+02  0.00000000000E+00 0. -1.
          1    1    6    6  503    0  0.98632652083E+02  0.13871040328E+03  0.56951108078E+02  0.17947814560E+03  0.00000000000E+00 0. -1.
         -1    1    6    6    0  503  0.21871699325E+03  0.14346737736E+03  0.39429393844E+02  0.26452729274E+03  0.00000000000E+00 0.  1.
<mgrwt>
<rscale>  0 0.71493533E+03</rscale>
<asrwt>0</asrwt>
<pdfrwt beam="1">  1        2 0.15619435E+00 0.71493533E+03</pdfrwt>
<pdfrwt beam="2">  1       -2 0.78592857E-01 0.71493533E+03</pdfrwt>
<totfact> 0.36118525E+01</totfact>
</mgrwt>
</event>
<event>
12    1  0.1335216E-007  0.4363354E+03  0.7818608E-02  0.1031877E+00
         -2   -1    0    0    0  501 -0.00000000000E+00  0.00000000000E+00  0.11465691111E+04  0.11465691111E+04  0.00000000000E+00 0.  1.
          2   -1    0    0  501    0  0.00000000000E+00 -0.00000000000E+00 -0.60101469761E+03  0.60101469761E+03  0.00000000000E+00 0. -1.
         23    2    1    2    0    0 -0.27712599866E+03 -0.34411152882E+02 -0.45889763373E+03  0.54459399286E+03  0.89513307634E+02 0.  0.
    5000000    2    1    2    0    0  0.27712599866E+03  0.34411152882E+02  0.10044520472E+04  0.12029898158E+04  0.60023131816E+03 0.  0.
         23    2    4    4    0    0  0.14434875081E+03  0.27333576356E+03  0.75810419649E+03  0.82313012941E+03  0.85277404461E+02 0.  0.
         23    2    4    4    0    0  0.13277724785E+03 -0.23892461068E+03  0.24634785070E+03  0.37985968642E+03  0.94293958890E+02 0.  0.
          1    1    3    3  502    0 -0.74281478950E+02 -0.76876315462E+01 -0.20710004342E+03  0.22015282369E+03  0.00000000000E+00 0. -1.
         -1    1    3    3    0  502 -0.20284451971E+03 -0.26723521336E+02 -0.25179759031E+03  0.32444116917E+03  0.00000000000E+00 0.  1.
         13    1    5    5    0    0  0.24373091293E+02  0.34561876841E+01  0.74225272406E+02  0.78200919919E+02  0.00000000000E+00 0. -1.
        -13    1    5    5    0    0  0.11997565951E+03  0.26987957588E+03  0.68387892408E+03  0.74492920949E+03  0.00000000000E+00 0.  1.
          2    1    6    6  503    0  0.70894480871E+02 -0.12024818134E+03  0.18723934689E+03  0.23354705212E+03  0.00000000000E+00 0. -1.
         -2    1    6    6    0  503  0.61882766979E+02 -0.11867642934E+03  0.59108503817E+02  0.14631263429E+03  0.00000000000E+00 0.  1.
<mgrwt>
<rscale>  0 0.43633542E+03</rscale>
<asrwt>0</asrwt>
<pdfrwt beam="1">  1        2 0.92463800E-01 0.43633542E+03</pdfrwt>
<pdfrwt beam="2">  1       -2 0.17639525E+00 0.43633542E+03</pdfrwt>
<totfact> 0.10106496E+01</totfact>
</mgrwt>
</event>
<event>
12    1  0.1335216E-007  0.1166979E+04  0.7818608E-02  0.9142261E-01
         -2   -1    0    0    0  501 -0.00000000000E+00  0.00000000000E+00  0.89565817633E+03  0.89565817633E+03  0.00000000000E+00 0.  1.
          2   -1    0    0  501    0  0.00000000000E+00 -0.00000000000E+00 -0.16863012844E+04  0.16863012844E+04  0.00000000000E+00 0. -1.
         23    2    1    2    0    0 -0.25150679841E+03  0.10719778176E+04 -0.89553546797E+01  0.11043176505E+04  0.83935473425E+02 0.  0.
    5000000    2    1    2    0    0  0.25150679841E+03 -0.10719778176E+04 -0.78168775337E+03  0.14776418102E+04  0.59999788700E+03 0.  0.
         23    2    4    4    0    0 -0.99557455041E+02 -0.42144453361E+02 -0.13393282982E+02  0.14254193098E+03  0.91929213292E+02 0.  0.
         23    2    4    4    0    0  0.35106425345E+03 -0.10298333643E+04 -0.76829447039E+03  0.13350998792E+04  0.91719278732E+02 0.  0.
          1    1    3    3  502    0 -0.94328944095E+02  0.24570605327E+03 -0.30257167238E+01  0.26320822417E+03  0.00000000000E+00 0. -1.
         -1    1    3    3    0  502 -0.15717785432E+03  0.82627176436E+03 -0.59296379559E+01  0.84110942633E+03  0.00000000000E+00 0.  1.
         11    1    5    5    0    0 -0.99237536883E+01  0.26741014264E+02  0.12559994535E+01  0.28550661389E+02  0.00000000000E+00 0.  1.
        -11    1    5    5    0    0 -0.89633701353E+02 -0.68885467625E+02 -0.14649282435E+02  0.11399126960E+03  0.00000000000E+00 0. -1.
          2    1    6    6  503    0  0.46094032870E+02 -0.12176080035E+03 -0.57765794960E+02  0.14243328065E+03  0.00000000000E+00 0. -1.
         -2    1    6    6    0  503  0.30497022058E+03 -0.90807256391E+03 -0.71052867543E+03  0.11926665986E+04  0.00000000000E+00 0.  1.
<mgrwt>
<rscale>  0 0.11669789E+04</rscale>
<asrwt>0</asrwt>
<pdfrwt beam="1">  1        2 0.25943096E+00 0.11669789E+04</pdfrwt>
<pdfrwt beam="2">  1       -2 0.13779357E+00 0.11669789E+04</pdfrwt>
<totfact> 0.36474537E+00</totfact>
</mgrwt>
</event>
<event>
12    1  0.1335216E-007  0.1505313E+04  0.7818608E-02  0.8880927E-01
         -2   -1    0    0    0  501 -0.00000000000E+00  0.00000000000E+00  0.26258973780E+04  0.26258973780E+04  0.00000000000E+00 0.  1.
          2   -1    0    0  501    0  0.00000000000E+00 -0.00000000000E+00 -0.13351454287E+04  0.13351454287E+04  0.00000000000E+00 0. -1.
         23    2    1    2    0    0 -0.14627677412E+04 -0.12323314168E+03 -0.51454363732E+03  0.15581126133E+04  0.89910449782E+02 0.  0.
    5000000    2    1    2    0    0  0.14627677412E+04  0.12323314168E+03  0.18052955865E+04  0.24029301934E+04  0.60008790003E+03 0.  0.
         23    2    4    4    0    0  0.54092434815E+03 -0.17510640877E+03  0.93347939731E+03  0.10962779911E+04  0.84736318724E+02 0.  0.
         23    2    4    4    0    0  0.92184339308E+03  0.29833955045E+03  0.87181618923E+03  0.13066522024E+04  0.92058575860E+02 0.  0.
          1    1    3    3  502    0 -0.13844349138E+04 -0.12415231227E+03 -0.50635506876E+03  0.14793475869E+04  0.00000000000E+00 0. -1.
         -1    1    3    3    0  502 -0.78332827383E+02  0.91917059194E+00 -0.81885685610E+01  0.78765026347E+02  0.00000000000E+00 0.  1.
         11    1    5    5    0    0  0.40091939424E+03 -0.14720299678E+03  0.75824828623E+03  0.87025602354E+03  0.00000000000E+00 0.  1.
        -11    1    5    5    0    0  0.14000495391E+03 -0.27903411997E+02  0.17523111107E+03  0.22602196753E+03  0.00000000000E+00 0. -1.
          1    1    6    6  503    0  0.58736637321E+03  0.14791634875E+03  0.51667215444E+03  0.79613354267E+03  0.00000000000E+00 0. -1.
         -1    1    6    6    0  503  0.33447701987E+03  0.15042320170E+03  0.35514403479E+03  0.51051865968E+03  0.00000000000E+00 0.  1.
<mgrwt>
<rscale>  0 0.15053133E+04</rscale>
<asrwt>0</asrwt>
<pdfrwt beam="1">  1        2 0.20540699E+00 0.15053133E+04</pdfrwt>
<pdfrwt beam="2">  1       -2 0.40398421E+00 0.15053133E+04</pdfrwt>
<totfact> 0.10404441E-01</totfact>
</mgrwt>
</event>
<event>
12    1  0.1335216E-007  0.2093844E+04  0.7818608E-02  0.8563960E-01
          1   -1    0    0  501    0  0.00000000000E+00  0.00000000000E+00  0.33352285373E+04  0.33352285373E+04  0.00000000000E+00 0. -1.
         -1   -1    0    0    0  501 -0.00000000000E+00 -0.00000000000E+00 -0.14422989931E+04  0.14422989931E+04  0.00000000000E+00 0.  1.
         23    2    1    2    0    0 -0.20583367187E+04 -0.15863213505E+03  0.15881703379E+04  0.26061409984E+04  0.88157131760E+02 0.  0.
    5000000    2    1    2    0    0  0.20583367187E+04  0.15863213505E+03  0.30475920632E+03  0.21713865319E+04  0.60010590363E+03 0.  0.
         23    2    4    4    0    0  0.12894195285E+03  0.13400874667E+03  0.97370431544E+02  0.22863949649E+03  0.90612620697E+02 0.  0.
         23    2    4    4    0    0  0.19293947658E+04  0.24623388385E+02  0.20738877477E+03  0.19427470354E+04  0.89919220549E+02 0.  0.
          2    1    3    3  502    0 -0.22526397212E+03 -0.34167473073E+01  0.14418428594E+03  0.26747829746E+03  0.00000000000E+00 0. -1.
         -2    1    3    3    0  502 -0.18330727465E+04 -0.15521538774E+03  0.14439860519E+04  0.23386627010E+04  0.00000000000E+00 0.  1.
         11    1    5    5    0    0  0.54819205354E+02  0.92593596394E+02  0.12062907802E+02  0.10827849793E+03  0.00000000000E+00 0. -1.
        -11    1    5    5    0    0  0.74122747500E+02  0.41415150271E+02  0.85307523742E+02  0.12036099857E+03  0.00000000000E+00 0.  1.
          3    1    6    6  503    0  0.37438910974E+03 -0.15784098966E+02  0.69548785799E+02  0.38112121022E+03  0.00000000000E+00 0. -1.
         -3    1    6    6    0  503  0.15550056561E+04  0.40407487351E+02  0.13783998897E+03  0.15616258252E+04  0.00000000000E+00 0.  1.
<mgrwt>
<rscale>  0 0.20938436E+04</rscale>
<asrwt>0</asrwt>
<pdfrwt beam="1">  1        1 0.51311208E+00 0.20938436E+04</pdfrwt>
<pdfrwt beam="2">  1       -1 0.22189215E+00 0.20938436E+04</pdfrwt>
<totfact> 0.31680694E-02</totfact>
</mgrwt>
</event>
<event>
12    1  0.1335216E-007  0.6977807E+03  0.7818608E-02  0.9721035E-01
         -1   -1    0    0    0  501 -0.00000000000E+00  0.00000000000E+00  0.52689588125E+03  0.52689588125E+03  0.00000000000E+00 0.  1.
          1   -1    0    0  501    0  0.00000000000E+00 -0.00000000000E+00 -0.13896703899E+04  0.13896703899E+04  0.00000000000E+00 0. -1.
         23    2    1    2    0    0  0.14007650900E+02 -0.58154472008E+03  0.14331847797E+03  0.60865411874E+03  0.10737399309E+03 0.  0.
    5000000    2    1    2    0    0 -0.14007650900E+02  0.58154472008E+03 -0.10060929866E+04  0.13079121524E+04  0.60001718725E+03 0.  0.
         23    2    4    4    0    0 -0.28153005557E+03  0.36502669954E+03 -0.66503739446E+03  0.81441143641E+03  0.92128107286E+02 0.  0.
         23    2    4    4    0    0  0.26752240467E+03  0.21651802054E+03 -0.34105559214E+03  0.49350071600E+03  0.93678970676E+02 0.  0.
          2    1    3    3  502    0  0.49879432578E+02 -0.33010343070E+03  0.47589613128E+02  0.33722544986E+03  0.00000000000E+00 0. -1.
         -2    1    3    3    0  502 -0.35871781678E+02 -0.25144128938E+03  0.95728864838E+02  0.27142866887E+03  0.00000000000E+00 0.  1.
         11    1    5    5    0    0 -0.66591976877E+02  0.59964092663E+02 -0.19210412264E+03  0.21197683300E+03  0.00000000000E+00 0.  1.
        -11    1    5    5    0    0 -0.21493807869E+03  0.30506260688E+03 -0.47293327182E+03  0.60243460341E+03  0.00000000000E+00 0. -1.
          3    1    6    6  503    0  0.19197374630E+03  0.14168185660E+03 -0.29001036408E+03  0.37554451005E+03  0.00000000000E+00 0. -1.
         -3    1    6    6    0  503  0.75548658369E+02  0.74836163938E+02 -0.51045228066E+02  0.11795620595E+03  0.00000000000E+00 0.  1.
<mgrwt>
<rscale>  0 0.69778066E+03</rscale>
<asrwt>0</asrwt>
<pdfrwt beam="1">  1        1 0.21379544E+00 0.69778066E+03</pdfrwt>
<pdfrwt beam="2">  1       -1 0.81060905E-01 0.69778066E+03</pdfrwt>
<totfact> 0.12368781E+01</totfact>
</mgrwt>
</event>
<event>
12    1  0.1335216E-007  0.8748743E+03  0.7818608E-02  0.9457546E-01
          1   -1    0    0  501    0  0.00000000000E+00  0.00000000000E+00  0.18856711255E+04  0.18856711255E+04  0.00000000000E+00 0. -1.
         -1   -1    0    0    0  501 -0.00000000000E+00 -0.00000000000E+00 -0.64902012704E+03  0.64902012704E+03  0.00000000000E+00 0.  1.
         23    2    1    2    0    0  0.30894958407E+03  0.70907948218E+03 -0.19269230906E+03  0.80225731246E+03  0.90790483489E+02 0.  0.
    5000000    2    1    2    0    0 -0.30894958407E+03 -0.70907948218E+03  0.14293433075E+04  0.17324339401E+04  0.60005125483E+03 0.  0.
         23    2    4    4    0    0 -0.23101354543E+03  0.73727668624E+01  0.44272778569E+03  0.50723024600E+03  0.88617235200E+02 0.  0.
         23    2    4    4    0    0 -0.77936038632E+02 -0.71645224904E+03  0.98661552183E+03  0.12252036941E+04  0.91301986654E+02 0.  0.
          1    1    3    3  502    0  0.24648195017E+03  0.63901267477E+03 -0.16913294336E+03  0.70547608238E+03  0.00000000000E+00 0. -1.
         -1    1    3    3    0  502  0.62467633898E+02  0.70066807405E+02 -0.23559365699E+02  0.96781230086E+02  0.00000000000E+00 0.  1.
         11    1    5    5    0    0 -0.33127657301E+02  0.33762371552E+02  0.71567084561E+02  0.85785703958E+02  0.00000000000E+00 0. -1.
        -11    1    5    5    0    0 -0.19788588813E+03 -0.26389604690E+02  0.37116070113E+03  0.42144454205E+03  0.00000000000E+00 0.  1.
          1    1    6    6  503    0 -0.72205210122E+01 -0.38767926586E+03  0.47849694355E+03  0.61587878198E+03  0.00000000000E+00 0. -1.
         -1    1    6    6    0  503 -0.70715517619E+02 -0.32877298318E+03  0.50811857828E+03  0.60932491209E+03  0.00000000000E+00 0.  1.
<mgrwt>
<rscale>  0 0.87487432E+03</rscale>
<asrwt>0</asrwt>
<pdfrwt beam="1">  1        1 0.29010325E+00 0.87487432E+03</pdfrwt>
<pdfrwt beam="2">  1       -1 0.99849252E-01 0.87487432E+03</pdfrwt>
<totfact> 0.35028661E+00</totfact>
</mgrwt>
</event>
<event>
12    1  0.1335216E-007  0.3879474E+03  0.7818608E-02  0.1048035E+00
         -1   -1    0    0    0  501 -0.00000000000E+00  0.00000000000E+00  0.10607003660E+04  0.10607003660E+04  0.00000000000E+00 0.  1.
          1   -1    0    0  501    0  0.00000000000E+00 -0.00000000000E+00 -0.12578581832E+04  0.12578581832E+04  0.00000000000E+00 0. -1.
         23    2    1    2    0    0 -0.34367124837E+03  0.97634141522E+02 -0.11098357729E+04  0.11693801332E+04  0.89844869475E+02 0.  0.
    5000000    2    1    2    0    0  0.34367124837E+03 -0.97634141522E+02  0.91267795565E+03  0.11491784160E+04  0.59998969029E+03 0.  0.
         23    2    4    4    0    0  0.31299442317E+03 -0.66864128178E+02  0.97254995910E+03  0.10278953018E+04  0.90989053829E+02 0.  0.
         23    2    4    4    0    0  0.30676825204E+02 -0.30770013344E+02 -0.59872003452E+02  0.12128311418E+03  0.96109706393E+02 0.  0.
          2    1    3    3  502    0 -0.32061525586E+03  0.68365834441E+02 -0.10367560694E+04  0.10873505309E+04  0.00000000000E+00 0.  1.
         -2    1    3    3    0  502 -0.23055992509E+02  0.29268307081E+02 -0.73079703478E+02  0.82029602281E+02  0.00000000000E+00 0. -1.
         13    1    5    5    0    0  0.87299716831E+02  0.16411924517E+02  0.33141098334E+03  0.34310906678E+03  0.00000000000E+00 0.  1.
        -13    1    5    5    0    0  0.22569470634E+03 -0.83276052695E+02  0.64113897575E+03  0.68478623501E+03  0.00000000000E+00 0. -1.
          1    1    6    6  503    0  0.52573847787E+02 -0.27320716424E+02 -0.74151370545E+02  0.94914997607E+02  0.00000000000E+00 0. -1.
         -1    1    6    6    0  503 -0.21897022583E+02 -0.34492969202E+01  0.14279367093E+02  0.26368116577E+02  0.00000000000E+00 0.  1.
<mgrwt>
<rscale>  0 0.38794745E+03</rscale>
<asrwt>0</asrwt>
<pdfrwt beam="1">  1        1 0.19351664E+00 0.38794745E+03</pdfrwt>
<pdfrwt beam="2">  1       -1 0.16318467E+00 0.38794745E+03</pdfrwt>
<totfact> 0.30563112E+00</totfact>
</mgrwt>
</event>
<event>
12    1  0.1335216E-007  0.4217247E+03  0.7818608E-02  0.1036506E+00
         -2   -1    0    0    0  501 -0.00000000000E+00  0.00000000000E+00  0.48283791950E+03  0.48283791950E+03  0.00000000000E+00 0.  1.
          2   -1    0    0  501    0  0.00000000000E+00 -0.00000000000E+00 -0.53708889619E+03  0.53708889619E+03  0.00000000000E+00 0. -1.
         23    2    1    2    0    0  0.19723547080E+03 -0.21509371000E+03 -0.15864310075E+03  0.34453529685E+03  0.91486623824E+02 0.  0.
    5000000    2    1    2    0    0 -0.19723547080E+03  0.21509371000E+03  0.10439212405E+03  0.67539151884E+03  0.60007403970E+03 0.  0.
         23    2    4    4    0    0  0.14511616764E+03  0.26294633604E+02 -0.12556361542E+03  0.21461773040E+03  0.92436133730E+02 0.  0.
         23    2    4    4    0    0 -0.34235163844E+03  0.18879907639E+03  0.22995573947E+03  0.46077378844E+03  0.81136344539E+02 0.  0.
          3    1    3    3  502    0  0.17139586418E+03 -0.13222578565E+03 -0.92515061120E+02  0.23541290785E+03  0.00000000000E+00 0. -1.
         -3    1    3    3    0  502  0.25839606621E+02 -0.82867924349E+02 -0.66128039625E+02  0.10912238900E+03  0.00000000000E+00 0.  1.
         11    1    5    5    0    0  0.44877443410E+02  0.17734787639E+02 -0.99667903679E+02  0.11073481225E+03  0.00000000000E+00 0.  1.
        -11    1    5    5    0    0  0.10023872423E+03  0.85598459654E+01 -0.25895711741E+02  0.10388291815E+03  0.00000000000E+00 0. -1.
          1    1    6    6  503    0 -0.79511468225E+02  0.52016948935E+02  0.18607094743E+02  0.96819732134E+02  0.00000000000E+00 0. -1.
         -1    1    6    6    0  503 -0.26284017022E+03  0.13678212746E+03  0.21134864473E+03  0.36395405630E+03  0.00000000000E+00 0.  1.
<mgrwt>
<rscale>  0 0.42172470E+03</rscale>
<asrwt>0</asrwt>
<pdfrwt beam="1">  1        2 0.82629061E-01 0.42172470E+03</pdfrwt>
<pdfrwt beam="2">  1       -2 0.74282756E-01 0.42172470E+03</pdfrwt>
<totfact> 0.95648364E+01</totfact>
</mgrwt>
</event>
<event>
12    1  0.1335216E-007  0.9742065E+03  0.7818608E-02  0.9337296E-01
         -2   -1    0    0    0  501 -0.00000000000E+00  0.00000000000E+00  0.10651630223E+04  0.10651630223E+04  0.00000000000E+00 0.  1.
          2   -1    0    0  501    0  0.00000000000E+00 -0.00000000000E+00 -0.95544609879E+03  0.95544609879E+03  0.00000000000E+00 0. -1.
         23    2    1    2    0    0 -0.16035432882E+03 -0.90287616276E+03  0.39830833530E+02  0.92244623385E+03  0.91769728052E+02 0.  0.
    5000000    2    1    2    0    0  0.16035432882E+03  0.90287616276E+03  0.69886090025E+02  0.10981628873E+04  0.60014896933E+03 0.  0.
         23    2    4    4    0    0 -0.88120440621E-01  0.82710937386E+03 -0.95628603561E+02  0.83761350780E+03  0.91332549120E+02 0.  0.
         23    2    4    4    0    0  0.16044244926E+03  0.75766788899E+02  0.16551469359E+03  0.26054937949E+03  0.94913010363E+02 0.  0.
          1    1    3    3  502    0 -0.10793812562E+03 -0.74211430059E+03  0.59165733152E+02  0.75225318748E+03  0.00000000000E+00 0. -1.
         -1    1    3    3    0  502 -0.52416203202E+02 -0.16076186217E+03 -0.19334899622E+02  0.17019304636E+03  0.00000000000E+00 0.  1.
         11    1    5    5    0    0 -0.30845693385E+02  0.67037773789E+03 -0.95813285136E+02  0.67789228781E+03  0.00000000000E+00 0.  1.
        -11    1    5    5    0    0  0.30757572944E+02  0.15673163597E+03  0.18468157481E+00  0.15972121999E+03  0.00000000000E+00 0. -1.
          4    1    6    6  503    0  0.16754927223E+03  0.54534703806E+02  0.13164533973E+03  0.21994837580E+03  0.00000000000E+00 0. -1.
         -4    1    6    6    0  503 -0.71068229706E+01  0.21232085092E+02  0.33869353858E+02  0.40601003693E+02  0.00000000000E+00 0.  1.
<mgrwt>
<rscale>  0 0.97420654E+03</rscale>
<asrwt>0</asrwt>
<pdfrwt beam="1">  1        2 0.14699171E+00 0.97420654E+03</pdfrwt>
<pdfrwt beam="2">  1       -2 0.16387123E+00 0.97420654E+03</pdfrwt>
<totfact> 0.63130360E+00</totfact>
</mgrwt>
</event>
<event>
12    1  0.1335216E-007  0.6658884E+03  0.7818608E-02  0.9777414E-01
         -1   -1    0    0    0  501 -0.00000000000E+00  0.00000000000E+00  0.49870022793E+03  0.49870022793E+03  0.00000000000E+00 0.  1.
          1   -1    0    0  501    0  0.00000000000E+00 -0.00000000000E+00 -0.11651166957E+04  0.11651166957E+04  0.00000000000E+00 0. -1.
         23    2    1    2    0    0 -0.96153329685E+02  0.62400298496E+03 -0.40026051731E+03  0.75304513073E+03  0.90792616134E+02 0.  0.
    5000000    2    1    2    0    0  0.96153329685E+02 -0.62400298496E+03 -0.26615595047E+03  0.91077179292E+03  0.60003423299E+03 0.  0.
         23    2    4    4    0    0  0.60112280280E+02 -0.61351712466E+03  0.40844297508E+01  0.62291552215E+03  0.89388571267E+02 0.  0.
         23    2    4    4    0    0  0.36041049405E+02 -0.10485860297E+02 -0.27024038022E+03  0.28785627077E+03  0.91773956051E+02 0.  0.
          2    1    3    3  502    0  0.15933613434E+02  0.11188783526E+03 -0.58669360820E+02  0.12733758917E+03  0.00000000000E+00 0. -1.
         -2    1    3    3    0  502 -0.11208694312E+03  0.51211514970E+03 -0.34159115649E+03  0.62570754156E+03  0.00000000000E+00 0.  1.
         13    1    5    5    0    0  0.45448590842E+02 -0.56549119954E+03  0.26481669602E+02  0.56793234631E+03  0.00000000000E+00 0. -1.
        -13    1    5    5    0    0  0.14663689438E+02 -0.48025925125E+02 -0.22397239851E+02  0.54983175836E+02  0.00000000000E+00 0.  1.
          2    1    6    6  503    0  0.55497145955E+02 -0.13967095905E+02 -0.90793386894E+02  0.10732405174E+03  0.00000000000E+00 0. -1.
         -2    1    6    6    0  503 -0.19456096550E+02  0.34812356076E+01 -0.17944699333E+03  0.18053221903E+03  0.00000000000E+00 0.  1.
<mgrwt>
<rscale>  0 0.66588835E+03</rscale>
<asrwt>0</asrwt>
<pdfrwt beam="1">  1        1 0.17924872E+00 0.66588835E+03</pdfrwt>
<pdfrwt beam="2">  1       -1 0.76723112E-01 0.66588835E+03</pdfrwt>
<totfact> 0.20141981E+01</totfact>
</mgrwt>
</event>
<event>
12    1  0.1335216E-007  0.9152741E+03  0.7818608E-02  0.9406687E-01
          2   -1    0    0  501    0  0.00000000000E+00  0.00000000000E+00  0.24030936210E+04  0.24030936210E+04  0.00000000000E+00 0. -1.
         -2   -1    0    0    0  501 -0.00000000000E+00 -0.00000000000E+00 -0.56532417835E+03  0.56532417835E+03  0.00000000000E+00 0.  1.
         23    2    1    2    0    0 -0.33755771108E+03 -0.75946555535E+03 -0.31341459039E+02  0.83669593523E+03  0.91349126417E+02 0.  0.
    5000000    2    1    2    0    0  0.33755771108E+03  0.75946555535E+03  0.18691109017E+04  0.21317218642E+04  0.59994116805E+03 0.  0.
         23    2    4    4    0    0  0.14389251847E+03 -0.53936102814E+02  0.41248404985E+03  0.44966188490E+03  0.91861631229E+02 0.  0.
         23    2    4    4    0    0  0.19366519261E+03  0.81340165817E+03  0.14566268519E+04  0.16820599793E+04  0.91845108152E+02 0.  0.
          3    1    3    3  502    0 -0.21544458909E+03 -0.58232150432E+03 -0.27490320525E+02  0.62150657526E+03  0.00000000000E+00 0. -1.
         -3    1    3    3    0  502 -0.12211312199E+03 -0.17714405103E+03 -0.38511385142E+01  0.21518935997E+03  0.00000000000E+00 0.  1.
         13    1    5    5    0    0  0.12207139518E+03 -0.34812457259E+02  0.21206614737E+03  0.24715457423E+03  0.00000000000E+00 0. -1.
        -13    1    5    5    0    0  0.21821123294E+02 -0.19123645555E+02  0.20041790248E+03  0.20250731067E+03  0.00000000000E+00 0.  1.
          4    1    6    6  503    0  0.16240638372E+03  0.55554037384E+03  0.10651387114E+04  0.12122381841E+04  0.00000000000E+00 0. -1.
         -4    1    6    6    0  503  0.31258808890E+02  0.25786128433E+03  0.39148814051E+03  0.46982179521E+03  0.00000000000E+00 0.  1.
<mgrwt>
<rscale>  0 0.91527414E+03</rscale>
<asrwt>0</asrwt>
<pdfrwt beam="1">  1        2 0.36970671E+00 0.91527414E+03</pdfrwt>
<pdfrwt beam="2">  1       -2 0.86972952E-01 0.91527414E+03</pdfrwt>
<totfact> 0.46160487E+00</totfact>
</mgrwt>
</event>
<event>
12    1  0.1335216E-007  0.4982782E+03  0.7818608E-02  0.1014229E+00
         -1   -1    0    0    0  501 -0.00000000000E+00  0.00000000000E+00  0.45512072150E+03  0.45512072150E+03  0.00000000000E+00 0.  1.
          1   -1    0    0  501    0  0.00000000000E+00 -0.00000000000E+00 -0.10882260246E+04  0.10882260246E+04  0.00000000000E+00 0. -1.
         23    2    1    2    0    0  0.42523522543E+03 -0.33701559639E+02  0.15682098927E+03  0.46357118323E+03  0.91348930913E+02 0.  0.
    5000000    2    1    2    0    0 -0.42523522543E+03  0.33701559639E+02 -0.78992629239E+03  0.10797755629E+04  0.59997577178E+03 0.  0.
         23    2    4    4    0    0 -0.78848297678E+02  0.15020313793E+03  0.12069271477E+02  0.19389197013E+03  0.93114940130E+02 0.  0.
         23    2    4    4    0    0 -0.34638692775E+03 -0.11650157829E+03 -0.80199556387E+03  0.88588359275E+03  0.89645602144E+02 0.  0.
          1    1    3    3  502    0  0.25450792719E+03  0.22233740239E+02  0.75760225862E+02  0.26647370607E+03  0.00000000000E+00 0. -1.
         -1    1    3    3    0  502  0.17072729824E+03 -0.55935299878E+02  0.81060763410E+02  0.19709747716E+03  0.00000000000E+00 0.  1.
         11    1    5    5    0    0 -0.86723472026E+02  0.15883306234E+03  0.68502535904E+01  0.18109618512E+03  0.00000000000E+00 0. -1.
        -11    1    5    5    0    0  0.78751743481E+01 -0.86299244052E+01  0.52190178863E+01  0.12795785007E+02  0.00000000000E+00 0.  1.
          1    1    6    6  503    0 -0.25858749421E+03 -0.63695805457E+02 -0.65142635516E+03  0.70376199386E+03  0.00000000000E+00 0. -1.
         -1    1    6    6    0  503 -0.87799433539E+02 -0.52805772835E+02 -0.15056920870E+03  0.18212159889E+03  0.00000000000E+00 0.  1.
<mgrwt>
<rscale>  0 0.49827816E+03</rscale>
<asrwt>0</asrwt>
<pdfrwt beam="1">  1        1 0.16741939E+00 0.49827816E+03</pdfrwt>
<pdfrwt beam="2">  1       -1 0.70018573E-01 0.49827816E+03</pdfrwt>
<totfact> 0.28434116E+01</totfact>
</mgrwt>
</event>
<event>
12    1  0.1335216E-007  0.5657034E+03  0.7818608E-02  0.9979232E-01
          1   -1    0    0  501    0  0.00000000000E+00  0.00000000000E+00  0.34851352198E+03  0.34851352198E+03  0.00000000000E+00 0. -1.
         -1   -1    0    0    0  501 -0.00000000000E+00 -0.00000000000E+00 -0.13624260817E+04  0.13624260817E+04  0.00000000000E+00 0.  1.
         23    2    1    2    0    0  0.26998734447E+03  0.47227404557E+03 -0.28272433999E+03  0.61983703172E+03  0.91263098647E+02 0.  0.
    5000000    2    1    2    0    0 -0.26998734447E+03 -0.47227404557E+03 -0.73118821970E+03  0.10911025719E+04  0.59994388867E+03 0.  0.
         23    2    4    4    0    0 -0.21389227325E+03 -0.19618179081E+03 -0.18337203029E+01  0.30467931937E+03  0.92676456103E+02 0.  0.
         23    2    4    4    0    0 -0.56095071215E+02 -0.27609225476E+03 -0.72935449940E+03  0.78642325257E+03  0.84439068148E+02 0.  0.
          3    1    3    3  502    0  0.14523164896E+02  0.34676301800E+02 -0.49163687025E+02  0.61890519040E+02  0.00000000000E+00 0. -1.
         -3    1    3    3    0  502  0.25546417957E+03  0.43759774377E+03 -0.23356065297E+03  0.55794651268E+03  0.00000000000E+00 0.  1.
         11    1    5    5    0    0 -0.15509440339E+03 -0.16602995863E+03  0.33645676363E+02  0.22967858556E+03  0.00000000000E+00 0.  1.
        -11    1    5    5    0    0 -0.58797869857E+02 -0.30151832185E+02 -0.35479396666E+02  0.75000733807E+02  0.00000000000E+00 0. -1.
          1    1    6    6  503    0 -0.50811843284E+02 -0.64239919128E+02 -0.18795903956E+03  0.20502978120E+03  0.00000000000E+00 0. -1.
         -1    1    6    6    0  503 -0.52832279307E+01 -0.21185233563E+03 -0.54139545984E+03  0.58139347137E+03  0.00000000000E+00 0.  1.
<mgrwt>
<rscale>  0 0.56570341E+03</rscale>
<asrwt>0</asrwt>
<pdfrwt beam="1">  1        1 0.53617466E-01 0.56570341E+03</pdfrwt>
<pdfrwt beam="2">  1       -1 0.20960401E+00 0.56570341E+03</pdfrwt>
<totfact> 0.98685614E+00</totfact>
</mgrwt>
</event>
<event>
12    1  0.1335216E-007  0.1343177E+04  0.7818608E-02  0.8996009E-01
         -2   -1    0    0    0  501 -0.00000000000E+00  0.00000000000E+00  0.11014779287E+04  0.11014779287E+04  0.00000000000E+00 0.  1.
          2   -1    0    0  501    0  0.00000000000E+00 -0.00000000000E+00 -0.19834302730E+04  0.19834302730E+04  0.00000000000E+00 0. -1.
         23    2    1    2    0    0 -0.10928196784E+04 -0.73451694229E+03 -0.96594010107E+03  0.16355713772E+04  0.91013533431E+02 0.  0.
    5000000    2    1    2    0    0  0.10928196784E+04  0.73451694229E+03  0.83987756747E+02  0.14493368245E+04  0.59979438114E+03 0.  0.
         23    2    4    4    0    0  0.43327808946E+03  0.51211345078E+03  0.26083153156E+03  0.72557103583E+03  0.91815853246E+02 0.  0.
         23    2    4    4    0    0  0.65954158891E+03  0.22240349151E+03 -0.17684377481E+03  0.72376578868E+03  0.90026527381E+02 0.  0.
          3    1    3    3  502    0 -0.84390248157E+03 -0.53054271561E+03 -0.76012831717E+03  0.12535717092E+04  0.00000000000E+00 0. -1.
         -3    1    3    3    0  502 -0.24891719680E+03 -0.20397422668E+03 -0.20581178390E+03  0.38199966807E+03  0.00000000000E+00 0.  1.
         11    1    5    5    0    0  0.69325177764E+02  0.64356562246E+02  0.70498348677E+02  0.11797357561E+03  0.00000000000E+00 0.  1.
        -11    1    5    5    0    0  0.36395291169E+03  0.44775688853E+03  0.19033318288E+03  0.60759746022E+03  0.00000000000E+00 0. -1.
          2    1    6    6  503    0  0.92257470142E+02  0.35014035493E+02 -0.58528025620E+02  0.11472991441E+03  0.00000000000E+00 0. -1.
         -2    1    6    6    0  503  0.56728411877E+03  0.18738945602E+03 -0.11831574919E+03  0.60903587426E+03  0.00000000000E+00 0.  1.
<mgrwt>
<rscale>  0 0.13431771E+04</rscale>
<asrwt>0</asrwt>
<pdfrwt beam="1">  1        2 0.30514312E+00 0.13431771E+04</pdfrwt>
<pdfrwt beam="2">  1       -2 0.16945814E+00 0.13431771E+04</pdfrwt>
<totfact> 0.14041677E+00</totfact>
</mgrwt>
</event>
<event>
12    1  0.1335216E-007  0.9013084E+03  0.7818608E-02  0.9423947E-01
         -2   -1    0    0    0  501 -0.00000000000E+00  0.00000000000E+00  0.86386097886E+03  0.86386097886E+03  0.00000000000E+00 0.  1.
          2   -1    0    0  501    0  0.00000000000E+00 -0.00000000000E+00 -0.17384594664E+04  0.17384594664E+04  0.00000000000E+00 0. -1.
         23    2    1    2    0    0 -0.69904660445E+03  0.46214046731E+03  0.42463783182E+03  0.94393840643E+03  0.91991631139E+02 0.  0.
    5000000    2    1    2    0    0  0.69904660445E+03 -0.46214046731E+03 -0.12992363193E+04  0.16583820388E+04  0.59998000503E+03 0.  0.
         23    2    4    4    0    0  0.25778561334E+03  0.55362177495E+02 -0.67675324832E+03  0.73210885325E+03  0.92032715649E+02 0.  0.
         23    2    4    4    0    0  0.44126099110E+03 -0.51750264481E+03 -0.62248307099E+03  0.92627318554E+03  0.89311762524E+02 0.  0.
          3    1    3    3  502    0 -0.59953168804E+03  0.40995615529E+03  0.39902994264E+03  0.82869004419E+03  0.00000000000E+00 0. -1.
         -3    1    3    3    0  502 -0.99514916410E+02  0.52184312024E+02  0.25607889175E+02  0.11524836223E+03  0.00000000000E+00 0.  1.
         11    1    5    5    0    0  0.13459365830E+03 -0.16408168155E+02 -0.29749591140E+03  0.32693806468E+03  0.00000000000E+00 0.  1.
        -11    1    5    5    0    0  0.12319195504E+03  0.71770345650E+02 -0.37925733692E+03  0.40517078857E+03  0.00000000000E+00 0. -1.
          1    1    6    6  503    0  0.64355201291E+01 -0.37804743300E+02 -0.30684599145E+02  0.49113736979E+02  0.00000000000E+00 0. -1.
         -1    1    6    6    0  503  0.43482547098E+03 -0.47969790151E+03 -0.59179847185E+03  0.87715944856E+03  0.00000000000E+00 0.  1.
<mgrwt>
<rscale>  0 0.90130843E+03</rscale>
<asrwt>0</asrwt>
<pdfrwt beam="1">  1        2 0.26745530E+00 0.90130843E+03</pdfrwt>
<pdfrwt beam="2">  1       -2 0.13290169E+00 0.90130843E+03</pdfrwt>
<totfact> 0.38633326E+00</totfact>
</mgrwt>
</event>
<event>
12    1  0.1335216E-007  0.4823696E+03  0.7818608E-02  0.1018486E+00
         -2   -1    0    0    0  501 -0.00000000000E+00  0.00000000000E+00  0.47332052314E+03  0.47332052314E+03  0.00000000000E+00 0. -1.
          2   -1    0    0  501    0  0.00000000000E+00 -0.00000000000E+00 -0.98927799764E+03  0.98927799764E+03  0.00000000000E+00 0.  1.
         23    2    1    2    0    0 -0.36662281937E+03 -0.24287954918E+03 -0.55958853951E+03  0.71729807979E+03  0.89299689898E+02 0.  0.
    5000000    2    1    2    0    0  0.36662281937E+03  0.24287954918E+03  0.43631065007E+02  0.74530044099E+03  0.60013857601E+03 0.  0.
         23    2    4    4    0    0  0.12034706667E+03 -0.26313190889E+02 -0.23330582279E+03  0.27835091380E+03  0.88723299045E+02 0.  0.
         23    2    4    4    0    0  0.24627575270E+03  0.26919274007E+03  0.27693688779E+03  0.46694952719E+03  0.90726751577E+02 0.  0.
          1    1    3    3  502    0 -0.62789296908E+02 -0.84636344946E+02 -0.11406230273E+03  0.15529332116E+03  0.00000000000E+00 0. -1.
         -1    1    3    3    0  502 -0.30383352247E+03 -0.15824320423E+03 -0.44552623678E+03  0.56200475863E+03  0.00000000000E+00 0.  1.
         11    1    5    5    0    0  0.65801326664E+02  0.30878284104E+02 -0.10683648843E+03  0.12921810353E+03  0.00000000000E+00 0.  1.
        -11    1    5    5    0    0  0.54545740007E+02 -0.57191474993E+02 -0.12646933436E+03  0.14913281027E+03  0.00000000000E+00 0. -1.
          3    1    6    6  503    0  0.14046284838E+03  0.16262558380E+03  0.21658517431E+03  0.30510003280E+03  0.00000000000E+00 0. -1.
         -3    1    6    6    0  503  0.10581290432E+03  0.10656715627E+03  0.60351713480E+02  0.16184949440E+03  0.00000000000E+00 0.  1.
<mgrwt>
<rscale>  0 0.48236960E+03</rscale>
<asrwt>0</asrwt>
<pdfrwt beam="1">  1        2 0.15219661E+00 0.48236960E+03</pdfrwt>
<pdfrwt beam="2">  1       -2 0.72818542E-01 0.48236960E+03</pdfrwt>
<totfact> 0.45624478E+01</totfact>
</mgrwt>
</event>
<event>
12    1  0.1335216E-007  0.6634593E+03  0.7818608E-02  0.9781847E-01
         -2   -1    0    0    0  501 -0.00000000000E+00  0.00000000000E+00  0.20268579910E+03  0.20268579910E+03  0.00000000000E+00 0.  1.
          2   -1    0    0  501    0  0.00000000000E+00 -0.00000000000E+00 -0.25914373373E+04  0.25914373373E+04  0.00000000000E+00 0. -1.
         23    2    1    2    0    0 -0.56584313143E+03  0.10183995636E+03 -0.68858506702E+03  0.90167083330E+03  0.91165075580E+02 0.  0.
    5000000    2    1    2    0    0  0.56584313143E+03 -0.10183995636E+03 -0.17001664711E+04  0.18924523031E+04  0.60021651399E+03 0.  0.
         23    2    4    4    0    0  0.43439477019E+03  0.14916965778E+03 -0.65050150986E+03  0.80149586858E+03  0.91065964299E+02 0.  0.
         23    2    4    4    0    0  0.13144836124E+03 -0.25100961415E+03 -0.10496649613E+04  0.10909564345E+04  0.90027289864E+02 0.  0.
          3    1    3    3  502    0 -0.47266588720E+03  0.10075685734E+03 -0.61928142804E+03  0.78554087884E+03  0.00000000000E+00 0. -1.
         -3    1    3    3    0  502 -0.93177244235E+02  0.10830990262E+01 -0.69303638980E+02  0.11612995446E+03  0.00000000000E+00 0.  1.
         13    1    5    5    0    0  0.37059995106E+03  0.12452363900E+03 -0.48875351740E+03  0.62588374414E+03  0.00000000000E+00 0.  1.
        -13    1    5    5    0    0  0.63794819124E+02  0.24646018779E+02 -0.16174799245E+03  0.17561212444E+03  0.00000000000E+00 0. -1.
          4    1    6    6  503    0  0.59761444472E+02 -0.50778200113E+02 -0.39169249264E+03  0.39946572399E+03  0.00000000000E+00 0. -1.
         -4    1    6    6    0  503  0.71686916772E+02 -0.20023141403E+03 -0.65797246865E+03  0.69149071049E+03  0.00000000000E+00 0.  1.
<mgrwt>
<rscale>  0 0.66345925E+03</rscale>
<asrwt>0</asrwt>
<pdfrwt beam="1">  1        2 0.39868262E+00 0.66345925E+03</pdfrwt>
<pdfrwt beam="2">  1       -2 0.31182434E-01 0.66345925E+03</pdfrwt>
<totfact> 0.31113313E+01</totfact>
</mgrwt>
</event>
<event>
12    1  0.1335216E-007  0.4929417E+03  0.7818608E-02  0.1015638E+00
         -1   -1    0    0    0  501 -0.00000000000E+00  0.00000000000E+00  0.35568530371E+03  0.35568530371E+03  0.00000000000E+00 0.  1.
          1   -1    0    0  501    0  0.00000000000E+00 -0.00000000000E+00 -0.12408141119E+04  0.12408141119E+04  0.00000000000E+00 0. -1.
         23    2    1    2    0    0  0.15761921743E+03  0.39131783513E+03 -0.72806438317E+03  0.84634050823E+03  0.90780196274E+02 0.  0.
    5000000    2    1    2    0    0 -0.15761921743E+03 -0.39131783513E+03 -0.15706442498E+03  0.75015890734E+03  0.60007973376E+03 0.  0.
         23    2    4    4    0    0  0.12018331980E+02 -0.36968536761E+03  0.13172069860E+03  0.40298128492E+03  0.90729610530E+02 0.  0.
         23    2    4    4    0    0 -0.16963754941E+03 -0.21632467519E+02 -0.28878512358E+03  0.34717762242E+03  0.88829004779E+02 0.  0.
          3    1    3    3  502    0  0.85211579551E+02  0.15696043563E+03 -0.38708677481E+03  0.42630243123E+03  0.00000000000E+00 0. -1.
         -3    1    3    3    0  502  0.72407637877E+02  0.23435739950E+03 -0.34097760837E+03  0.42003807700E+03  0.00000000000E+00 0.  1.
         13    1    5    5    0    0 -0.27678831275E+02 -0.41491585838E+02  0.23474630789E+02  0.55124655888E+02  0.00000000000E+00 0. -1.
        -13    1    5    5    0    0  0.39697163255E+02 -0.32819378178E+03  0.10824606781E+03  0.34785662903E+03  0.00000000000E+00 0.  1.
          4    1    6    6  503    0 -0.10122277121E+03 -0.42829036980E+02 -0.11433375317E+03  0.15859565863E+03  0.00000000000E+00 0. -1.
         -4    1    6    6    0  503 -0.68414778196E+02  0.21196569461E+02 -0.17445137040E+03  0.18858196379E+03  0.00000000000E+00 0.  1.
<mgrwt>
<rscale>  0 0.49294171E+03</rscale>
<asrwt>0</asrwt>
<pdfrwt beam="1">  1        1 0.19089448E+00 0.49294171E+03</pdfrwt>
<pdfrwt beam="2">  1       -1 0.54720817E-01 0.49294171E+03</pdfrwt>
<totfact> 0.35884149E+01</totfact>
</mgrwt>
</event>
<event>
12    1  0.1335216E-007  0.7199569E+03  0.7818608E-02  0.9683699E-01
          2   -1    0    0  501    0  0.00000000000E+00  0.00000000000E+00  0.19589535197E+04  0.19589535197E+04  0.00000000000E+00 0. -1.
         -2   -1    0    0    0  501 -0.00000000000E+00 -0.00000000000E+00 -0.48680436960E+03  0.48680436960E+03  0.00000000000E+00 0.  1.
         23    2    1    2    0    0  0.56883962445E+03 -0.39150179682E+03 -0.18641834563E+02  0.69666467112E+03  0.90232869469E+02 0.  0.
    5000000    2    1    2    0    0 -0.56883962445E+03  0.39150179682E+03  0.14907909846E+04  0.17490932181E+04  0.60001429206E+03 0.  0.
         23    2    4    4    0    0 -0.86258717283E+01  0.31485128536E+02  0.71691833499E+03  0.72415783231E+03  0.96782994760E+02 0.  0.
         23    2    4    4    0    0 -0.56021375272E+03  0.36001666828E+03  0.77387264963E+03  0.10249353858E+04  0.90344989351E+02 0.  0.
          2    1    3    3  502    0  0.30021314936E+03 -0.21503243214E+03 -0.54445399379E+02  0.37327092498E+03  0.00000000000E+00 0. -1.
         -2    1    3    3    0  502  0.26862647508E+03 -0.17646936468E+03  0.35803564816E+02  0.32339374614E+03  0.00000000000E+00 0.  1.
         13    1    5    5    0    0  0.28725456306E+02  0.35540913438E+02  0.17268755867E+03  0.17863174770E+03  0.00000000000E+00 0.  1.
        -13    1    5    5    0    0 -0.37351328034E+02 -0.40557849019E+01  0.54423077632E+03  0.54552608461E+03  0.00000000000E+00 0. -1.
          4    1    6    6  503    0 -0.19517568672E+03  0.12136790895E+03  0.33458995592E+03  0.40592383105E+03  0.00000000000E+00 0.  1.
         -4    1    6    6    0  503 -0.36503806600E+03  0.23864875933E+03  0.43928269371E+03  0.61901155478E+03  0.00000000000E+00 0. -1.
<mgrwt>
<rscale>  0 0.71995686E+03</rscale>
<asrwt>0</asrwt>
<pdfrwt beam="1">  1        2 0.30137746E+00 0.71995686E+03</pdfrwt>
<pdfrwt beam="2">  1       -2 0.74892981E-01 0.71995686E+03</pdfrwt>
<totfact> 0.11718632E+01</totfact>
</mgrwt>
</event>
<event>
12    1  0.1335216E-007  0.5528759E+03  0.7818608E-02  0.1000830E+00
          2   -1    0    0  501    0  0.00000000000E+00  0.00000000000E+00  0.14932713901E+04  0.14932713901E+04  0.00000000000E+00 0.  1.
         -2   -1    0    0    0  501 -0.00000000000E+00 -0.00000000000E+00 -0.27369387803E+03  0.27369387803E+03  0.00000000000E+00 0. -1.
         23    2    1    2    0    0  0.22437626229E+03  0.32980912915E+03  0.76942650263E+02  0.41606795397E+03  0.89853225542E+02 0.  0.
    5000000    2    1    2    0    0 -0.22437626229E+03 -0.32980912915E+03  0.11426348618E+04  0.13508973142E+04  0.60015861007E+03 0.  0.
         23    2    4    4    0    0  0.18332388983E+03 -0.70178197025E+02  0.47090920628E+03  0.51832206716E+03  0.91485828590E+02 0.  0.
         23    2    4    4    0    0 -0.40770015212E+03 -0.25963093212E+03  0.67172565553E+03  0.83257524699E+03  0.91315664877E+02 0.  0.
          4    1    3    3  502    0  0.12416988263E+03  0.25212566343E+03  0.39104708778E+02  0.28375110248E+03  0.00000000000E+00 0. -1.
         -4    1    3    3    0  502  0.10020637966E+03  0.77683465720E+02  0.37837941485E+02  0.13231685149E+03  0.00000000000E+00 0.  1.
         11    1    5    5    0    0  0.98714210695E+02  0.81704231953E+01  0.25472669318E+03  0.27330740829E+03  0.00000000000E+00 0. -1.
        -11    1    5    5    0    0  0.84609679139E+02 -0.78348620220E+02  0.21618251309E+03  0.24501465887E+03  0.00000000000E+00 0.  1.
          4    1    6    6  503    0 -0.32173798383E+03 -0.19806101794E+03  0.58210742442E+03  0.69396869571E+03  0.00000000000E+00 0. -1.
         -4    1    6    6    0  503 -0.85962168291E+02 -0.61569914186E+02  0.89618231111E+02  0.13860655128E+03  0.00000000000E+00 0.  1.
<mgrwt>
<rscale>  0 0.55287595E+03</rscale>
<asrwt>0</asrwt>
<pdfrwt beam="1">  1        2 0.22973406E+00 0.55287595E+03</pdfrwt>
<pdfrwt beam="2">  1       -2 0.42106751E-01 0.55287595E+03</pdfrwt>
<totfact> 0.71408863E+01</totfact>
</mgrwt>
</event>
<event>
12    1  0.1335216E-007  0.1213794E+04  0.7818608E-02  0.9100868E-01
          1   -1    0    0  501    0  0.00000000000E+00  0.00000000000E+00  0.90102229700E+03  0.90102229700E+03  0.00000000000E+00 0. -1.
         -1   -1    0    0    0  501 -0.00000000000E+00 -0.00000000000E+00 -0.17863304708E+04  0.17863304708E+04  0.00000000000E+00 0.  1.
         23    2    1    2    0    0  0.60888612172E+03 -0.99504152231E+03 -0.69693848961E+03  0.13620773945E+04  0.93175264795E+02 0.  0.
    5000000    2    1    2    0    0 -0.60888612172E+03  0.99504152231E+03 -0.18836968421E+03  0.13252753733E+04  0.60001811378E+03 0.  0.
         23    2    4    4    0    0 -0.98047375762E+02  0.58854365663E+03 -0.26977799868E+03  0.66111359881E+03  0.91071940289E+02 0.  0.
         23    2    4    4    0    0 -0.51083874596E+03  0.40649786568E+03  0.81408314471E+02  0.66416177452E+03  0.91031916840E+02 0.  0.
          1    1    3    3  502    0  0.45991093623E+03 -0.67004825450E+03 -0.47776674592E+03  0.94273209139E+03  0.00000000000E+00 0. -1.
         -1    1    3    3    0  502  0.14897518549E+03 -0.32499326780E+03 -0.21917174369E+03  0.41934530311E+03  0.00000000000E+00 0.  1.
         13    1    5    5    0    0  0.26222013133E+01  0.88893240914E+02 -0.11358092810E+02  0.89654283178E+02  0.00000000000E+00 0.  1.
        -13    1    5    5    0    0 -0.10066957707E+03  0.49965041571E+03 -0.25841990587E+03  0.57145931563E+03  0.00000000000E+00 0. -1.
          3    1    6    6  503    0 -0.44481538167E+03  0.31140196139E+03  0.75889771990E+02  0.54826194726E+03  0.00000000000E+00 0. -1.
         -3    1    6    6    0  503 -0.66023364296E+02  0.95095904294E+02  0.55185424810E+01  0.11589982725E+03  0.00000000000E+00 0.  1.
<mgrwt>
<rscale>  0 0.12137938E+04</rscale>
<asrwt>0</asrwt>
<pdfrwt beam="1">  1        1 0.13861881E+00 0.12137938E+04</pdfrwt>
<pdfrwt beam="2">  1       -1 0.27482007E+00 0.12137938E+04</pdfrwt>
<totfact> 0.85808305E-01</totfact>
</mgrwt>
</event>
<event>
12    1  0.1335216E-007  0.7131344E+03  0.7818608E-02  0.9695031E-01
          1   -1    0    0  501    0  0.00000000000E+00  0.00000000000E+00  0.17477292675E+04  0.17477292675E+04  0.00000000000E+00 0. -1.
         -1   -1    0    0    0  501 -0.00000000000E+00 -0.00000000000E+00 -0.77062171248E+03  0.77062171248E+03  0.00000000000E+00 0.  1.
         23    2    1    2    0    0  0.31038104944E+03  0.52412360825E+03 -0.51215027334E+03  0.80112264193E+03  0.91965386646E+02 0.  0.
    5000000    2    1    2    0    0 -0.31038104944E+03 -0.52412360825E+03  0.14892578284E+04  0.17172283381E+04  0.59995194233E+03 0.  0.
         23    2    4    4    0    0 -0.45381333025E+03 -0.36825901196E+03  0.12593947915E+04  0.13914442833E+04  0.92090793299E+02 0.  0.
         23    2    4    4    0    0  0.14343228081E+03 -0.15586459630E+03  0.22986303692E+03  0.32578405476E+03  0.91823978537E+02 0.  0.
          2    1    3    3  502    0  0.26327598103E+03  0.45522934843E+03 -0.39698801895E+03  0.65889869407E+03  0.00000000000E+00 0. -1.
         -2    1    3    3    0  502  0.47105068411E+02  0.68894259823E+02 -0.11516225439E+03  0.14222394785E+03  0.00000000000E+00 0.  1.
         13    1    5    5    0    0 -0.26732489515E+03 -0.18554230443E+03  0.78867812686E+03  0.85317157365E+03  0.00000000000E+00 0. -1.
        -13    1    5    5    0    0 -0.18648843511E+03 -0.18271670752E+03  0.47071666460E+03  0.53827270967E+03  0.00000000000E+00 0.  1.
          1    1    6    6  503    0  0.13785543583E+03 -0.90642020416E+02  0.15554343702E+03  0.22674624110E+03  0.00000000000E+00 0. -1.
         -1    1    6    6    0  503  0.55768449798E+01 -0.65222575883E+02  0.74319599894E+02  0.99037813653E+02  0.00000000000E+00 0.  1.
<mgrwt>
<rscale>  0 0.71313436E+03</rscale>
<asrwt>0</asrwt>
<pdfrwt beam="1">  1        1 0.26888142E+00 0.71313436E+03</pdfrwt>
<pdfrwt beam="2">  1       -1 0.11855719E+00 0.71313436E+03</pdfrwt>
<totfact> 0.29765406E+00</totfact>
</mgrwt>
</event>
<event>
12    1  0.1335216E-007  0.1396126E+04  0.7818608E-02  0.8956627E-01
         -1   -1    0    0    0  501 -0.00000000000E+00  0.00000000000E+00  0.91659751194E+03  0.91659751194E+03  0.00000000000E+00 0.  1.
          1   -1    0    0  501    0  0.00000000000E+00 -0.00000000000E+00 -0.23066834361E+04  0.23066834361E+04  0.00000000000E+00 0. -1.
         23    2    1    2    0    0 -0.11589505351E+04  0.76798864345E+03 -0.66855923668E+03  0.15459235404E+04  0.99675677456E+02 0.  0.
    5000000    2    1    2    0    0  0.11589505351E+04 -0.76798864345E+03 -0.72152668750E+03  0.16773574076E+04  0.59996184278E+03 0.  0.
         23    2    4    4    0    0  0.80134143581E+03 -0.53344723862E+03 -0.77203163888E+03  0.12374738045E+04  0.92706592633E+02 0.  0.
         23    2    4    4    0    0  0.35760909929E+03 -0.23454140483E+03  0.50504951381E+02  0.43988360308E+03  0.89737927703E+02 0.  0.
          2    1    3    3  502    0 -0.81352929460E+03  0.57859138995E+03 -0.51289415302E+03  0.11223450102E+04  0.00000000000E+00 0. -1.
         -2    1    3    3    0  502 -0.34542124051E+03  0.18939725350E+03 -0.15566508366E+03  0.42357853026E+03  0.00000000000E+00 0.  1.
         13    1    5    5    0    0  0.11048115008E+03 -0.45807781969E+02 -0.12232552284E+03  0.17107884425E+03  0.00000000000E+00 0. -1.
        -13    1    5    5    0    0  0.69086028574E+03 -0.48763945665E+03 -0.64970611604E+03  0.10663949603E+04  0.00000000000E+00 0.  1.
          1    1    6    6  503    0  0.21601339118E+03 -0.94959152374E+02  0.49263981052E+02  0.24105179033E+03  0.00000000000E+00 0. -1.
         -1    1    6    6    0  503  0.14159570811E+03 -0.13958225246E+03  0.12409703292E+01  0.19883181275E+03  0.00000000000E+00 0.  1.
<mgrwt>
<rscale>  0 0.13961264E+04</rscale>
<asrwt>0</asrwt>
<pdfrwt beam="1">  1        1 0.35487437E+00 0.13961264E+04</pdfrwt>
<pdfrwt beam="2">  1       -1 0.14101500E+00 0.13961264E+04</pdfrwt>
<totfact> 0.72848499E-01</totfact>
</mgrwt>
</event>
<event>
12    1  0.1335216E-007  0.4842812E+03  0.7818608E-02  0.1017965E+00
         -2   -1    0    0    0  501 -0.00000000000E+00  0.00000000000E+00  0.42194598898E+03  0.42194598898E+03  0.00000000000E+00 0.  1.
          2   -1    0    0  501    0  0.00000000000E+00 -0.00000000000E+00 -0.25819437245E+04  0.25819437245E+04  0.00000000000E+00 0. -1.
         23    2    1    2    0    0 -0.37984640678E+03 -0.28442550409E+03  0.19646394674E+03  0.52641293455E+03  0.11546140122E+03 0.  0.
    5000000    2    1    2    0    0  0.37984640678E+03  0.28442550409E+03 -0.23564616823E+04  0.24774767790E+04  0.59983195152E+03 0.  0.
         23    2    4    4    0    0  0.25495890597E+03  0.12996949990E+03 -0.35903117480E+03  0.46811618814E+03  0.91286726742E+02 0.  0.
         23    2    4    4    0    0  0.12488750081E+03  0.15445600419E+03 -0.19974305075E+04  0.20093605908E+04  0.91366331950E+02 0.  0.
          4    1    3    3  502    0 -0.23806216892E+03 -0.12735810282E+03  0.15324665261E+03  0.31044841626E+03  0.00000000000E+00 0. -1.
         -4    1    3    3    0  502 -0.14178423787E+03 -0.15706740127E+03  0.43217294132E+02  0.21596451829E+03  0.00000000000E+00 0.  1.
         13    1    5    5    0    0  0.54521223204E+02  0.44302467305E+02 -0.15218620680E+03  0.16761835797E+03  0.00000000000E+00 0.  1.
        -13    1    5    5    0    0  0.20043768277E+03  0.85667032599E+02 -0.20684496800E+03  0.30049783017E+03  0.00000000000E+00 0. -1.
          1    1    6    6  503    0  0.75755975707E+02  0.88281219057E+02 -0.15531075028E+04  0.15574580112E+04  0.00000000000E+00 0. -1.
         -1    1    6    6    0  503  0.49131525106E+02  0.66174785129E+02 -0.44432300473E+03  0.45190257963E+03  0.00000000000E+00 0.  1.
<mgrwt>
<rscale>  0 0.48428122E+03</rscale>
<asrwt>0</asrwt>
<pdfrwt beam="1">  1        2 0.39722211E+00 0.48428122E+03</pdfrwt>
<pdfrwt beam="2">  1       -2 0.64914768E-01 0.48428122E+03</pdfrwt>
<totfact> 0.76102542E+00</totfact>
</mgrwt>
</event>
<event>
12    1  0.1335216E-007  0.1005356E+04  0.7818608E-02  0.9302690E-01
         -2   -1    0    0    0  501 -0.00000000000E+00  0.00000000000E+00  0.60723973821E+03  0.60723973821E+03  0.00000000000E+00 0.  1.
          2   -1    0    0  501    0  0.00000000000E+00 -0.00000000000E+00 -0.22083979497E+04  0.22083979497E+04  0.00000000000E+00 0. -1.
         23    2    1    2    0    0  0.89059980299E+03  0.31460505040E+03 -0.11553630697E+03  0.95579518443E+03  0.89729869703E+02 0.  0.
    5000000    2    1    2    0    0 -0.89059980299E+03 -0.31460505040E+03 -0.14856219045E+04  0.18598425035E+04  0.59983109936E+03 0.  0.
         23    2    4    4    0    0 -0.33435180141E+03 -0.36543206523E+03 -0.97834300903E+03  0.11001371774E+04  0.88402739967E+02 0.  0.
         23    2    4    4    0    0 -0.55624800158E+03  0.50827014825E+02 -0.50727889549E+03  0.75970532606E+03  0.88459481895E+02 0.  0.
          3    1    3    3  502    0  0.11183740397E+03  0.13975581910E+02  0.23862982165E+01  0.11273249858E+03  0.00000000000E+00 0. -1.
         -3    1    3    3    0  502  0.77876239902E+03  0.30062946849E+03 -0.11792260519E+03  0.84306268585E+03  0.00000000000E+00 0.  1.
         11    1    5    5    0    0 -0.15155976555E+03 -0.22601298285E+03 -0.56667603610E+03  0.62862863508E+03  0.00000000000E+00 0.  1.
        -11    1    5    5    0    0 -0.18279203586E+03 -0.13941908238E+03 -0.41166697293E+03  0.47150854235E+03  0.00000000000E+00 0. -1.
          1    1    6    6  503    0 -0.44789550158E+03  0.19066441991E+02 -0.44061936967E+03  0.62858518792E+03  0.00000000000E+00 0. -1.
         -1    1    6    6    0  503 -0.10835250001E+03  0.31760572835E+02 -0.66659525824E+02  0.13112013815E+03  0.00000000000E+00 0.  1.
<mgrwt>
<rscale>  0 0.10053563E+04</rscale>
<asrwt>0</asrwt>
<pdfrwt beam="1">  1        2 0.33975353E+00 0.10053563E+04</pdfrwt>
<pdfrwt beam="2">  1       -2 0.93421499E-01 0.10053563E+04</pdfrwt>
<totfact> 0.49672135E+00</totfact>
</mgrwt>
</event>
<event>
12    1  0.1335216E-007  0.9116603E+03  0.7818608E-02  0.9411122E-01
          1   -1    0    0  501    0  0.00000000000E+00  0.00000000000E+00  0.98106168351E+03  0.98106168351E+03  0.00000000000E+00 0. -1.
         -1   -1    0    0    0  501 -0.00000000000E+00 -0.00000000000E+00 -0.94385637489E+03  0.94385637489E+03  0.00000000000E+00 0.  1.
         23    2    1    2    0    0 -0.76914732567E+03 -0.26808394651E+03 -0.27758067070E+03  0.86561812035E+03  0.93739482399E+02 0.  0.
    5000000    2    1    2    0    0  0.76914732567E+03  0.26808394651E+03  0.31478597931E+03  0.10592999381E+04  0.59964117189E+03 0.  0.
         23    2    4    4    0    0  0.66655064966E+03  0.42932132433E+03  0.22512944372E+03  0.82922283645E+03  0.91217750350E+02 0.  0.
         23    2    4    4    0    0  0.10259667602E+03 -0.16123737782E+03  0.89656535589E+02  0.23007710160E+03  0.91507422504E+02 0.  0.
          2    1    3    3  502    0 -0.34837241978E+03 -0.91895150725E+02 -0.83279187570E+02  0.36978843231E+03  0.00000000000E+00 0. -1.
         -2    1    3    3    0  502 -0.42077490589E+03 -0.17618879579E+03 -0.19430148313E+03  0.49582968804E+03  0.00000000000E+00 0.  1.
         13    1    5    5    0    0  0.37606011215E+03  0.27669222881E+03  0.96412169718E+02  0.47673378725E+03  0.00000000000E+00 0.  1.
        -13    1    5    5    0    0  0.29049053751E+03  0.15262909551E+03  0.12871727401E+03  0.35248904920E+03  0.00000000000E+00 0. -1.
          3    1    6    6  503    0  0.10470681980E+03 -0.83133706315E+02  0.59242941588E+02  0.14623425510E+03  0.00000000000E+00 0. -1.
         -3    1    6    6    0  503 -0.21101437825E+01 -0.78103671502E+02  0.30413594002E+02  0.83842846499E+02  0.00000000000E+00 0.  1.
<mgrwt>
<rscale>  0 0.91166032E+03</rscale>
<asrwt>0</asrwt>
<pdfrwt beam="1">  1        1 0.15093257E+00 0.91166032E+03</pdfrwt>
<pdfrwt beam="2">  1       -1 0.14520867E+00 0.91166032E+03</pdfrwt>
<totfact> 0.60364976E+00</totfact>
</mgrwt>
</event>
<event>
12    1  0.1335216E-007  0.6233658E+03  0.7818608E-02  0.9858081E-01
          2   -1    0    0  501    0  0.00000000000E+00  0.00000000000E+00  0.68460853870E+03  0.68460853870E+03  0.00000000000E+00 0. -1.
         -2   -1    0    0    0  501 -0.00000000000E+00 -0.00000000000E+00 -0.71084431735E+03  0.71084431735E+03  0.00000000000E+00 0.  1.
         23    2    1    2    0    0  0.50434807264E+03  0.14055482593E+03  0.19907226329E+03  0.56752460886E+03  0.91278574643E+02 0.  0.
    5000000    2    1    2    0    0 -0.50434807264E+03 -0.14055482593E+03 -0.22530804195E+03  0.82792824718E+03  0.60048216564E+03 0.  0.
         23    2    4    4    0    0 -0.19691076761E+03  0.16743349630E+03 -0.26515244034E+03  0.38088324863E+03  0.89209900730E+02 0.  0.
         23    2    4    4    0    0 -0.30743730503E+03 -0.30798832223E+03  0.39844398396E+02  0.44704499855E+03  0.94271689766E+02 0.  0.
          2    1    3    3  502    0  0.25595970063E+03  0.30873185958E+02  0.12230574793E+03  0.28535454777E+03  0.00000000000E+00 0. -1.
         -2    1    3    3    0  502  0.24838837201E+03  0.10968163998E+03  0.76766515364E+02  0.28217006109E+03  0.00000000000E+00 0.  1.
         13    1    5    5    0    0 -0.73939880980E+02  0.12042159177E+03 -0.12605643140E+03  0.18936390802E+03  0.00000000000E+00 0. -1.
        -13    1    5    5    0    0 -0.12297088663E+03  0.47011904528E+02 -0.13909600894E+03  0.19151934061E+03  0.00000000000E+00 0.  1.
          3    1    6    6  503    0 -0.10838918426E+03 -0.52160094019E+02 -0.13591200911E+01  0.12029438008E+03  0.00000000000E+00 0. -1.
         -3    1    6    6    0  503 -0.19904812077E+03 -0.25582822821E+03  0.41203518487E+02  0.32675061847E+03  0.00000000000E+00 0.  1.
<mgrwt>
<rscale>  0 0.62336575E+03</rscale>
<asrwt>0</asrwt>
<pdfrwt beam="1">  1        2 0.10532439E+00 0.62336575E+03</pdfrwt>
<pdfrwt beam="2">  1       -2 0.10936066E+00 0.62336575E+03</pdfrwt>
<totfact> 0.28796599E+01</totfact>
</mgrwt>
</event>
<event>
12    1  0.1335216E-007  0.1670333E+04  0.7818608E-02  0.8778468E-01
         -2   -1    0    0    0  501 -0.00000000000E+00  0.00000000000E+00  0.20263195828E+04  0.20263195828E+04  0.00000000000E+00 0.  1.
          2   -1    0    0  501    0  0.00000000000E+00 -0.00000000000E+00 -0.16940646152E+04  0.16940646152E+04  0.00000000000E+00 0. -1.
         23    2    1    2    0    0 -0.10518664728E+03 -0.16176773049E+04 -0.63059180893E+03  0.17417664873E+04  0.90334784338E+02 0.  0.
    5000000    2    1    2    0    0  0.10518664728E+03  0.16176773049E+04  0.96284677659E+03  0.19786177107E+04  0.59992502549E+03 0.  0.
         23    2    4    4    0    0  0.15278160305E+02 -0.21749881793E+02  0.53638065944E+02  0.99514165257E+02  0.79495581187E+02 0.  0.
         23    2    4    4    0    0  0.89908486974E+02  0.16394271867E+04  0.90920871065E+03  0.18791035454E+04  0.92545223272E+02 0.  0.
          3    1    3    3  502    0  0.12603216112E+02 -0.32328558617E+03 -0.13994250339E+03  0.35250009296E+03  0.00000000000E+00 0. -1.
         -3    1    3    3    0  502 -0.11778986339E+03 -0.12943917187E+04 -0.49064930554E+03  0.13892663943E+04  0.00000000000E+00 0.  1.
         13    1    5    5    0    0  0.28312290992E+02 -0.42014892283E+02  0.13057670577E+02  0.52319592464E+02  0.00000000000E+00 0.  1.
        -13    1    5    5    0    0 -0.13034130687E+02  0.20265010489E+02  0.40580395368E+02  0.47194572793E+02  0.00000000000E+00 0. -1.
          1    1    6    6  503    0  0.47620449200E+02  0.12524785183E+04  0.65519756778E+03  0.14143033617E+04  0.00000000000E+00 0. -1.
         -1    1    6    6    0  503  0.42288037774E+02  0.38694866840E+03  0.25401114287E+03  0.46480018376E+03  0.00000000000E+00 0.  1.
<mgrwt>
<rscale>  0 0.16703330E+04</rscale>
<asrwt>0</asrwt>
<pdfrwt beam="1">  1        2 0.26062533E+00 0.16703330E+04</pdfrwt>
<pdfrwt beam="2">  1       -2 0.31174147E+00 0.16703330E+04</pdfrwt>
<totfact> 0.24543219E-01</totfact>
</mgrwt>
</event>
<event>
12    1  0.1335216E-007  0.5131786E+03  0.7818608E-02  0.1010395E+00
          2   -1    0    0  501    0  0.00000000000E+00  0.00000000000E+00  0.18076187654E+04  0.18076187654E+04  0.00000000000E+00 0.  1.
         -2   -1    0    0    0  501 -0.00000000000E+00 -0.00000000000E+00 -0.17413455960E+03  0.17413455960E+03  0.00000000000E+00 0. -1.
         23    2    1    2    0    0  0.95276110217E+02  0.38237956585E+03  0.59840648000E+03  0.72206269611E+03  0.89401075171E+02 0.  0.
    5000000    2    1    2    0    0 -0.95276110217E+02 -0.38237956585E+03  0.10350777258E+04  0.12596906289E+04  0.60011908196E+03 0.  0.
         23    2    4    4    0    0 -0.27100422846E+03 -0.10874155036E+03  0.77858108041E+03  0.83650062406E+03  0.90976802864E+02 0.  0.
         23    2    4    4    0    0  0.17572811824E+03 -0.27363801549E+03  0.25649664541E+03  0.42319000486E+03  0.86839599521E+02 0.  0.
          3    1    3    3  502    0  0.46146656267E+02  0.20330140289E+03  0.39501972257E+03  0.44665596998E+03  0.00000000000E+00 0. -1.
         -3    1    3    3    0  502  0.49129453950E+02  0.17907816297E+03  0.20338675743E+03  0.27540672612E+03  0.00000000000E+00 0.  1.
         11    1    5    5    0    0 -0.17582556889E+03 -0.10032662405E+03  0.61013860469E+03  0.64284459950E+03  0.00000000000E+00 0. -1.
        -11    1    5    5    0    0 -0.95178659569E+02 -0.84149263102E+01  0.16844247572E+03  0.19365602456E+03  0.00000000000E+00 0.  1.
          2    1    6    6  503    0  0.13770732604E+03 -0.14459952317E+03  0.12817370969E+03  0.23727795853E+03  0.00000000000E+00 0. -1.
         -2    1    6    6    0  503  0.38020792195E+02 -0.12903849232E+03  0.12832293572E+03  0.18591204633E+03  0.00000000000E+00 0.  1.
<mgrwt>
<rscale>  0 0.51317861E+03</rscale>
<asrwt>0</asrwt>
<pdfrwt beam="1">  1        2 0.27809518E+00 0.51317861E+03</pdfrwt>
<pdfrwt beam="2">  1       -2 0.26789933E-01 0.51317861E+03</pdfrwt>
<totfact> 0.11349432E+02</totfact>
</mgrwt>
</event>
<event>
12    1  0.1335216E-007  0.8054720E+03  0.7818608E-02  0.9552130E-01
          2   -1    0    0  501    0  0.00000000000E+00  0.00000000000E+00  0.16039376105E+04  0.16039376105E+04  0.00000000000E+00 0.  1.
         -2   -1    0    0    0  501 -0.00000000000E+00 -0.00000000000E+00 -0.50530263974E+03  0.50530263974E+03  0.00000000000E+00 0. -1.
         23    2    1    2    0    0  0.34687393596E+03 -0.60761321449E+03  0.41804974781E+02  0.70686572100E+03  0.91630484803E+02 0.  0.
    5000000    2    1    2    0    0 -0.34687393596E+03  0.60761321449E+03  0.10568299960E+04  0.14023745292E+04  0.60020774236E+03 0.  0.
         23    2    4    4    0    0 -0.32110838730E+02 -0.99141691065E+02  0.16042816266E+03  0.21457882550E+03  0.97194115598E+02 0.  0.
         23    2    4    4    0    0 -0.31476309723E+03  0.70675490555E+03  0.89640183333E+03  0.11877957037E+04  0.93509802399E+02 0.  0.
          3    1    3    3  502    0  0.17440408615E+03 -0.21659427298E+03  0.86795393753E+01  0.27821789798E+03  0.00000000000E+00 0. -1.
         -3    1    3    3    0  502  0.17246984981E+03 -0.39101894151E+03  0.33125435406E+02  0.42864782302E+03  0.00000000000E+00 0.  1.
         13    1    5    5    0    0  0.22721344537E+02 -0.39030991025E+02  0.10986319154E+03  0.11878383144E+03  0.00000000000E+00 0. -1.
        -13    1    5    5    0    0 -0.54832183267E+02 -0.60110700040E+02  0.50564971120E+02  0.95794994052E+02  0.00000000000E+00 0.  1.
          4    1    6    6  503    0 -0.25600926763E+03  0.47182602546E+03  0.63379051793E+03  0.83057267234E+03  0.00000000000E+00 0. -1.
         -4    1    6    6    0  503 -0.58753829593E+02  0.23492888010E+03  0.26261131540E+03  0.35722303141E+03  0.00000000000E+00 0.  1.
<mgrwt>
<rscale>  0 0.80547202E+03</rscale>
<asrwt>0</asrwt>
<pdfrwt beam="1">  1        2 0.24675963E+00 0.80547202E+03</pdfrwt>
<pdfrwt beam="2">  1       -2 0.77738868E-01 0.80547202E+03</pdfrwt>
<totfact> 0.16668519E+01</totfact>
</mgrwt>
</event>
<event>
12    1  0.1335216E-007  0.6484448E+03  0.7818608E-02  0.9809702E-01
         -2   -1    0    0    0  501 -0.00000000000E+00  0.00000000000E+00  0.43512657443E+03  0.43512657443E+03  0.00000000000E+00 0.  1.
          2   -1    0    0  501    0  0.00000000000E+00 -0.00000000000E+00 -0.23930744405E+04  0.23930744405E+04  0.00000000000E+00 0. -1.
         23    2    1    2    0    0 -0.43104976978E+03  0.31097281124E+03 -0.19533477254E+04  0.20263366670E+04  0.89246615371E+02 0.  0.
    5000000    2    1    2    0    0  0.43104976978E+03 -0.31097281124E+03 -0.46001406717E+01  0.80186434793E+03  0.60038094392E+03 0.  0.
         23    2    4    4    0    0 -0.12721968015E+03 -0.97179831144E+02 -0.62914478214E+02  0.19448879567E+03  0.90768350615E+02 0.  0.
         23    2    4    4    0    0  0.55826944994E+03 -0.21379298010E+03  0.58314337542E+02  0.60737555225E+03  0.90179168563E+02 0.  0.
          2    1    3    3  502    0 -0.23304208259E+03  0.22094667169E+03 -0.11980779648E+04  0.12403696440E+04  0.00000000000E+00 0. -1.
         -2    1    3    3    0  502 -0.19800768719E+03  0.90026139552E+02 -0.75526976057E+03  0.78596702299E+03  0.00000000000E+00 0.  1.
         11    1    5    5    0    0 -0.33340334768E+02 -0.31471441851E+02 -0.65402106096E+02  0.79871553487E+02  0.00000000000E+00 0. -1.
        -11    1    5    5    0    0 -0.93879345386E+02 -0.65708389293E+02  0.24876278824E+01  0.11461724218E+03  0.00000000000E+00 0.  1.
          1    1    6    6  503    0  0.28749651230E+03 -0.11040924886E+03 -0.15255775715E+02  0.30834588616E+03  0.00000000000E+00 0. -1.
         -1    1    6    6    0  503  0.27077293764E+03 -0.10338373123E+03  0.73570113257E+02  0.29902966610E+03  0.00000000000E+00 0.  1.
<mgrwt>
<rscale>  0 0.64844484E+03</rscale>
<asrwt>0</asrwt>
<pdfrwt beam="1">  1        2 0.36816530E+00 0.64844484E+03</pdfrwt>
<pdfrwt beam="2">  1       -2 0.66942550E-01 0.64844484E+03</pdfrwt>
<totfact> 0.87547730E+00</totfact>
</mgrwt>
</event>
<event>
12    1  0.1335216E-007  0.4534824E+03  0.7818608E-02  0.1026689E+00
          1   -1    0    0  501    0  0.00000000000E+00  0.00000000000E+00  0.17482078676E+03  0.17482078676E+03  0.00000000000E+00 0. -1.
         -1   -1    0    0    0  501 -0.00000000000E+00 -0.00000000000E+00 -0.15233484226E+04  0.15233484226E+04  0.00000000000E+00 0.  1.
         23    2    1    2    0    0  0.30294806323E+03 -0.89701131450E+02 -0.62854340615E+03  0.70940312329E+03  0.91444824494E+02 0.  0.
    5000000    2    1    2    0    0 -0.30294806323E+03  0.89701131450E+02 -0.71998422969E+03  0.98876608606E+03  0.59954754602E+03 0.  0.
         23    2    4    4    0    0 -0.14520350610E+03  0.29156008962E+03 -0.17104702377E+03  0.37727724802E+03  0.83604386794E+02 0.  0.
         23    2    4    4    0    0 -0.15774455713E+03 -0.20185895817E+03 -0.54893720591E+03  0.61148883803E+03  0.83403589263E+02 0.  0.
          2    1    3    3  502    0  0.16831625065E+03 -0.76240956420E+02 -0.27954479439E+03  0.33509451762E+03  0.00000000000E+00 0. -1.
         -2    1    3    3    0  502  0.13463181258E+03 -0.13460175030E+02 -0.34899861176E+03  0.37430860568E+03  0.00000000000E+00 0.  1.
         11    1    5    5    0    0 -0.60258336062E+02  0.13753954187E+03 -0.12520165895E+03  0.19550869046E+03  0.00000000000E+00 0. -1.
        -11    1    5    5    0    0 -0.84945170033E+02  0.15402054776E+03 -0.45845364827E+02  0.18176855757E+03  0.00000000000E+00 0.  1.
          2    1    6    6  503    0 -0.21208850032E+01 -0.25654891718E+02 -0.11620157219E+03  0.11901880944E+03  0.00000000000E+00 0. -1.
         -2    1    6    6    0  503 -0.15562367213E+03 -0.17620406646E+03 -0.43273563372E+03  0.49247002859E+03  0.00000000000E+00 0.  1.
<mgrwt>
<rscale>  0 0.45348243E+03</rscale>
<asrwt>0</asrwt>
<pdfrwt beam="1">  1        1 0.26895506E-01 0.45348243E+03</pdfrwt>
<pdfrwt beam="2">  1       -1 0.23436129E+00 0.45348243E+03</pdfrwt>
<totfact> 0.16800241E+01</totfact>
</mgrwt>
</event>
<event>
12    1  0.1335216E-007  0.1248973E+04  0.7818608E-02  0.9071039E-01
         -2   -1    0    0    0  501 -0.00000000000E+00  0.00000000000E+00  0.11432764620E+04  0.11432764620E+04  0.00000000000E+00 0.  1.
          2   -1    0    0  501    0  0.00000000000E+00 -0.00000000000E+00 -0.14838800771E+04  0.14838800771E+04  0.00000000000E+00 0. -1.
         23    2    1    2    0    0  0.73834590427E+03  0.93360065687E+03 -0.48021155789E+03  0.12866856097E+04  0.90508878738E+02 0.  0.
    5000000    2    1    2    0    0 -0.73834590427E+03 -0.93360065687E+03  0.13960794285E+03  0.13404709294E+04  0.60050568190E+03 0.  0.
         23    2    4    4    0    0  0.68829322714E+02 -0.99839196060E+02  0.88986681363E+02  0.17495830008E+03  0.89366865066E+02 0.  0.
         23    2    4    4    0    0 -0.80717522698E+03 -0.83376146081E+03  0.50621261490E+02  0.11655126293E+04  0.95745268285E+02 0.  0.
          4    1    3    3  502    0  0.29727383072E+03  0.43612454428E+03 -0.23950401902E+03  0.57960203906E+03  0.00000000000E+00 0. -1.
         -4    1    3    3    0  502  0.44107207355E+03  0.49747611258E+03 -0.24070753887E+03  0.70708357068E+03  0.00000000000E+00 0.  1.
         11    1    5    5    0    0  0.47494463026E+02 -0.10980980983E+03  0.92393086547E+02  0.15116349029E+03  0.00000000000E+00 0.  1.
        -11    1    5    5    0    0  0.21334859688E+02  0.99706137723E+01 -0.34064051836E+01  0.23794809795E+02  0.00000000000E+00 0. -1.
          4    1    6    6  503    0 -0.68156073155E+03 -0.67023882576E+03  0.13488400112E+02  0.95599531970E+03  0.00000000000E+00 0. -1.
         -4    1    6    6    0  503 -0.12561449543E+03 -0.16352263505E+03  0.37132861377E+02  0.20951730962E+03  0.00000000000E+00 0.  1.
<mgrwt>
<rscale>  0 0.12489728E+04</rscale>
<asrwt>0</asrwt>
<pdfrwt beam="1">  1        2 0.22828924E+00 0.12489728E+04</pdfrwt>
<pdfrwt beam="2">  1       -2 0.17588869E+00 0.12489728E+04</pdfrwt>
<totfact> 0.24248237E+00</totfact>
</mgrwt>
</event>
<event>
12    1  0.1335216E-007  0.5734321E+03  0.7818608E-02  0.9962112E-01
          1   -1    0    0  501    0  0.00000000000E+00  0.00000000000E+00  0.57825111269E+03  0.57825111269E+03  0.00000000000E+00 0. -1.
         -1   -1    0    0    0  501 -0.00000000000E+00 -0.00000000000E+00 -0.68021746703E+03  0.68021746703E+03  0.00000000000E+00 0.  1.
         23    2    1    2    0    0 -0.17528908428E+03  0.44300982416E+03 -0.82625834217E+02  0.49209811304E+03  0.91375910445E+02 0.  0.
    5000000    2    1    2    0    0  0.17528908428E+03 -0.44300982416E+03 -0.19340520116E+02  0.76637046668E+03  0.59997139024E+03 0.  0.
         23    2    4    4    0    0 -0.21868478331E+02 -0.46431784512E+03 -0.16955227811E+03  0.50234670705E+03  0.86804074939E+02 0.  0.
         23    2    4    4    0    0  0.19715756261E+03  0.21308020965E+02  0.15021175799E+03  0.26402375963E+03  0.88429843130E+02 0.  0.
          1    1    3    3  502    0 -0.87121600448E+02  0.24088609159E+03 -0.89865429492E+02  0.27146284792E+03  0.00000000000E+00 0. -1.
         -1    1    3    3    0  502 -0.88167483834E+02  0.20212373257E+03  0.72395952743E+01  0.22063526512E+03  0.00000000000E+00 0.  1.
         11    1    5    5    0    0 -0.46359442652E+01 -0.19076963146E+03 -0.11525123849E+03  0.22292911932E+03  0.00000000000E+00 0. -1.
        -11    1    5    5    0    0 -0.17232534066E+02 -0.27354821366E+03 -0.54301039614E+02  0.27941758773E+03  0.00000000000E+00 0.  1.
          3    1    6    6  503    0  0.10425540556E+03 -0.15393320308E+02  0.33894561689E+02  0.11070223671E+03  0.00000000000E+00 0. -1.
         -3    1    6    6    0  503  0.92902157049E+02  0.36701341273E+02  0.11631719630E+03  0.15332152292E+03  0.00000000000E+00 0.  1.
<mgrwt>
<rscale>  0 0.57343213E+03</rscale>
<asrwt>0</asrwt>
<pdfrwt beam="1">  1        1 0.88961710E-01 0.57343213E+03</pdfrwt>
<pdfrwt beam="2">  1       -1 0.10464884E+00 0.57343213E+03</pdfrwt>
<totfact> 0.32366583E+01</totfact>
</mgrwt>
</event>
<event>
12    1  0.1335216E-007  0.5519126E+03  0.7818608E-02  0.1001052E+00
         -2   -1    0    0    0  501 -0.00000000000E+00  0.00000000000E+00  0.32001175054E+03  0.32001175054E+03  0.00000000000E+00 0.  1.
          2   -1    0    0  501    0  0.00000000000E+00 -0.00000000000E+00 -0.99367314234E+03  0.99367314234E+03  0.00000000000E+00 0. -1.
         23    2    1    2    0    0 -0.34917326439E+03 -0.18974578262E+03 -0.22601446861E+03  0.46625936401E+03  0.91595982025E+02 0.  0.
    5000000    2    1    2    0    0  0.34917326439E+03  0.18974578262E+03 -0.44764692319E+03  0.84742552887E+03  0.59984733770E+03 0.  0.
         23    2    4    4    0    0  0.49956626290E+03  0.17991115395E+03 -0.37382048406E+03  0.65611713047E+03  0.93880031138E+02 0.  0.
         23    2    4    4    0    0 -0.15039299851E+03  0.98346286643E+01 -0.73826439133E+02  0.19130839840E+03  0.91835648095E+02 0.  0.
          2    1    3    3  502    0 -0.23238323639E+03 -0.14557071858E+03 -0.19817434593E+03  0.33832805684E+03  0.00000000000E+00 0. -1.
         -2    1    3    3    0  502 -0.11679002800E+03 -0.44175064040E+02 -0.27840122678E+02  0.12793130717E+03  0.00000000000E+00 0.  1.
         11    1    5    5    0    0  0.19446350227E+03  0.41806529240E+02 -0.18505562631E+03  0.27167889950E+03  0.00000000000E+00 0. -1.
        -11    1    5    5    0    0  0.30510276063E+03  0.13810462471E+03 -0.18876485774E+03  0.38443823097E+03  0.00000000000E+00 0.  1.
          2    1    6    6  503    0 -0.99470904929E+02 -0.32572935616E+02 -0.67927615901E+02  0.12477827561E+03  0.00000000000E+00 0. -1.
         -2    1    6    6    0  503 -0.50922093583E+02  0.42407564280E+02 -0.58988232319E+01  0.66530122791E+02  0.00000000000E+00 0.  1.
<mgrwt>
<rscale>  0 0.55191262E+03</rscale>
<asrwt>0</asrwt>
<pdfrwt beam="1">  1        2 0.15287279E+00 0.55191262E+03</pdfrwt>
<pdfrwt beam="2">  1       -2 0.49232578E-01 0.55191262E+03</pdfrwt>
<totfact> 0.10233813E+02</totfact>
</mgrwt>
</event>
<event>
12    1  0.1335216E-007  0.7413430E+03  0.7818608E-02  0.9649031E-01
          1   -1    0    0  501    0  0.00000000000E+00  0.00000000000E+00  0.20628403546E+04  0.20628403546E+04  0.00000000000E+00 0. -1.
         -1   -1    0    0    0  501 -0.00000000000E+00 -0.00000000000E+00 -0.29052244017E+03  0.29052244017E+03  0.00000000000E+00 0.  1.
         23    2    1    2    0    0 -0.55877668072E+03  0.28844671328E+03  0.10360790644E+04  0.12142684719E+04  0.74533272256E+02 0.  0.
    5000000    2    1    2    0    0  0.55877668072E+03 -0.28844671328E+03  0.73623885002E+03  0.11390943229E+04  0.60004612068E+03 0.  0.
         23    2    4    4    0    0  0.63286001746E+03 -0.34979574994E+03  0.65706390745E+03  0.98121877200E+03  0.90489953455E+02 0.  0.
         23    2    4    4    0    0 -0.74083336734E+02  0.61349036666E+02  0.79174942564E+02  0.15787555093E+03  0.96974084017E+02 0.  0.
          3    1    3    3  502    0 -0.24639953413E+03  0.16819867300E+03  0.47385901516E+03  0.55995168565E+03  0.00000000000E+00 0. -1.
         -3    1    3    3    0  502 -0.31237714660E+03  0.12024804028E+03  0.56222004929E+03  0.65431678622E+03  0.00000000000E+00 0.  1.
         11    1    5    5    0    0  0.26503125415E+03 -0.19762496717E+03  0.29121779808E+03  0.44057348904E+03  0.00000000000E+00 0. -1.
        -11    1    5    5    0    0  0.36782876331E+03 -0.15217078277E+03  0.36584610937E+03  0.54064528296E+03  0.00000000000E+00 0.  1.
          2    1    6    6  503    0  0.11036074652E+02 -0.58738795137E+01  0.41042894136E+02  0.42904738239E+02  0.00000000000E+00 0. -1.
         -2    1    6    6    0  503 -0.85119411386E+02  0.67222916180E+02  0.38132048428E+02  0.11497081269E+03  0.00000000000E+00 0.  1.
<mgrwt>
<rscale>  0 0.74134296E+03</rscale>
<asrwt>0</asrwt>
<pdfrwt beam="1">  1        1 0.31736005E+00 0.74134296E+03</pdfrwt>
<pdfrwt beam="2">  1       -1 0.44695761E-01 0.74134296E+03</pdfrwt>
<totfact> 0.14010885E+01</totfact>
</mgrwt>
</event>
<event>
12    1  0.1335216E-007  0.1690749E+04  0.7818608E-02  0.8766658E-01
         -1   -1    0    0    0  501 -0.00000000000E+00  0.00000000000E+00  0.12828815133E+04  0.12828815133E+04  0.00000000000E+00 0. -1.
          1   -1    0    0  501    0  0.00000000000E+00 -0.00000000000E+00 -0.23360563753E+04  0.23360563753E+04  0.00000000000E+00 0.  1.
         23    2    1    2    0    0 -0.16245778581E+03 -0.16690851597E+04 -0.44867618802E+03  0.17382292255E+04  0.88840961003E+02 0.  0.
    5000000    2    1    2    0    0  0.16245778581E+03  0.16690851597E+04 -0.60449867398E+03  0.18807086631E+04  0.59950698586E+03 0.  0.
         23    2    4    4    0    0  0.15181695234E+03  0.39548479442E+03  0.66921343672E+02  0.43810805189E+03  0.89462781427E+02 0.  0.
         23    2    4    4    0    0  0.10640833471E+02  0.12736003653E+04 -0.67142001765E+03  0.14426006112E+04  0.90114180664E+02 0.  0.
          3    1    3    3  502    0 -0.18292616976E+02 -0.51789808362E+03 -0.11198380270E+03  0.53018243739E+03  0.00000000000E+00 0. -1.
         -3    1    3    3    0  502 -0.14416516883E+03 -0.11511870761E+04 -0.33669238532E+03  0.12080467881E+04  0.00000000000E+00 0.  1.
         13    1    5    5    0    0  0.14808460100E+03  0.31474214073E+03  0.78131445237E+02  0.35650552162E+03  0.00000000000E+00 0. -1.
        -13    1    5    5    0    0  0.37323513367E+01  0.80742653683E+02 -0.11210101565E+02  0.81602530276E+02  0.00000000000E+00 0.  1.
          3    1    6    6  503    0 -0.15465120783E+02  0.76882392490E+03 -0.44810495975E+03  0.89001542257E+03  0.00000000000E+00 0. -1.
         -3    1    6    6    0  503  0.26105954254E+02  0.50477644036E+03 -0.22331505790E+03  0.55258518862E+03  0.00000000000E+00 0.  1.
<mgrwt>
<rscale>  0 0.16907490E+04</rscale>
<asrwt>0</asrwt>
<pdfrwt beam="1">  1        1 0.35939329E+00 0.16907490E+04</pdfrwt>
<pdfrwt beam="2">  1       -1 0.19736639E+00 0.16907490E+04</pdfrwt>
<totfact> 0.25543230E-01</totfact>
</mgrwt>
</event>
<event>
12    1  0.1335216E-007  0.7154042E+03  0.7818608E-02  0.9691246E-01
          1   -1    0    0  501    0  0.00000000000E+00  0.00000000000E+00  0.30720973656E+03  0.30720973656E+03  0.00000000000E+00 0. -1.
         -1   -1    0    0    0  501 -0.00000000000E+00 -0.00000000000E+00 -0.21407272697E+04  0.21407272697E+04  0.00000000000E+00 0.  1.
         23    2    1    2    0    0 -0.61904271601E+03  0.30983343901E+03 -0.66917593541E+03  0.96641319350E+03  0.83350967902E+02 0.  0.
    5000000    2    1    2    0    0  0.61904271601E+03 -0.30983343901E+03 -0.11643415977E+04  0.14815238128E+04  0.60000900614E+03 0.  0.
         23    2    4    4    0    0  0.17463217117E+03  0.84423401111E+01 -0.62025156651E+01  0.19753226493E+03  0.91721623262E+02 0.  0.
         23    2    4    4    0    0  0.44441054484E+03 -0.31827577912E+03 -0.11581390821E+04  0.12839915479E+04  0.92455165299E+02 0.  0.
          1    1    3    3  502    0 -0.11744630467E+03  0.75114650725E+02 -0.17866395487E+03  0.22662006531E+03  0.00000000000E+00 0. -1.
         -1    1    3    3    0  502 -0.50159641134E+03  0.23471878829E+03 -0.49051198055E+03  0.73979312818E+03  0.00000000000E+00 0.  1.
         11    1    5    5    0    0  0.78938799801E+02  0.38212163470E+02  0.27318727127E+02  0.91857587618E+02  0.00000000000E+00 0. -1.
        -11    1    5    5    0    0  0.95693371371E+02 -0.29769823359E+02 -0.33521242792E+02  0.10567467731E+03  0.00000000000E+00 0.  1.
          3    1    6    6  503    0  0.44144359101E+03 -0.32087055839E+03 -0.11578752511E+04  0.12800411933E+04  0.00000000000E+00 0. -1.
         -3    1    6    6    0  503  0.29669538335E+01  0.25947792629E+01 -0.26383092540E+00  0.39503545702E+01  0.00000000000E+00 0.  1.
<mgrwt>
<rscale>  0 0.71540419E+03</rscale>
<asrwt>0</asrwt>
<pdfrwt beam="1">  1        1 0.47263037E-01 0.71540419E+03</pdfrwt>
<pdfrwt beam="2">  1       -1 0.32934265E+00 0.71540419E+03</pdfrwt>
<totfact> 0.19181548E+00</totfact>
</mgrwt>
</event>
<event>
12    1  0.1335216E-007  0.9219998E+03  0.7818608E-02  0.9398491E-01
          2   -1    0    0  501    0  0.00000000000E+00  0.00000000000E+00  0.18794151223E+04  0.18794151223E+04  0.00000000000E+00 0.  1.
         -2   -1    0    0    0  501 -0.00000000000E+00 -0.00000000000E+00 -0.51637549335E+03  0.51637549335E+03  0.00000000000E+00 0. -1.
         23    2    1    2    0    0  0.49516656541E+03 -0.66312459966E+03  0.21751755764E+03  0.86046738212E+03  0.90366285936E+02 0.  0.
    5000000    2    1    2    0    0 -0.49516656541E+03  0.66312459966E+03  0.11455220713E+04  0.15353232335E+04  0.60006037477E+03 0.  0.
         23    2    4    4    0    0 -0.61809574038E+03  0.54499337525E+03  0.94064883659E+03  0.12539479397E+04  0.92222981928E+02 0.  0.
         23    2    4    4    0    0  0.12292917496E+03  0.11813122441E+03  0.20487323469E+03  0.28137529379E+03  0.90180072219E+02 0.  0.
          1    1    3    3  502    0  0.71284621016E+02 -0.14434580682E+03  0.63506981805E+02  0.17306168229E+03  0.00000000000E+00 0. -1.
         -1    1    3    3    0  502  0.42388194440E+03 -0.51877879283E+03  0.15401057584E+03  0.68740569982E+03  0.00000000000E+00 0.  1.
         13    1    5    5    0    0 -0.33075840378E+03  0.35185478064E+03  0.53987383468E+03  0.72433877827E+03  0.00000000000E+00 0. -1.
        -13    1    5    5    0    0 -0.28733733660E+03  0.19313859460E+03  0.40077500191E+03  0.52960916145E+03  0.00000000000E+00 0.  1.
          1    1    6    6  503    0 -0.57779247647E+01  0.23506569339E+02  0.63856983810E+02  0.68290977428E+02  0.00000000000E+00 0. -1.
         -1    1    6    6    0  503  0.12870709973E+03  0.94624655070E+02  0.14101625088E+03  0.21308431636E+03  0.00000000000E+00 0.  1.
<mgrwt>
<rscale>  0 0.92199979E+03</rscale>
<asrwt>0</asrwt>
<pdfrwt beam="1">  1        2 0.28914079E+00 0.92199979E+03</pdfrwt>
<pdfrwt beam="2">  1       -2 0.79442384E-01 0.92199979E+03</pdfrwt>
<totfact> 0.11051330E+01</totfact>
</mgrwt>
</event>
<event>
12    1  0.1335216E-007  0.6886750E+03  0.7818608E-02  0.9736798E-01
         -1   -1    0    0    0  501 -0.00000000000E+00  0.00000000000E+00  0.41828500702E+03  0.41828500702E+03  0.00000000000E+00 0.  1.
          1   -1    0    0  501    0  0.00000000000E+00 -0.00000000000E+00 -0.12834924311E+04  0.12834924311E+04  0.00000000000E+00 0. -1.
         23    2    1    2    0    0 -0.39281224615E+03 -0.45131535676E+03 -0.25052698347E+03  0.65502768684E+03  0.91161884077E+02 0.  0.
    5000000    2    1    2    0    0  0.39281224615E+03  0.45131535676E+03 -0.61468044061E+03  0.10467497513E+04  0.59988831108E+03 0.  0.
         23    2    4    4    0    0  0.20678603418E+03  0.51654062167E+03 -0.60679162663E+03  0.82856640107E+03  0.93549586120E+02 0.  0.
         23    2    4    4    0    0  0.18602621196E+03 -0.65225264913E+02 -0.78888139825E+01  0.21818335021E+03  0.93175394837E+02 0.  0.
          4    1    3    3  502    0 -0.28768886665E+03 -0.27120085191E+03 -0.14335424118E+03  0.42055347405E+03  0.00000000000E+00 0. -1.
         -4    1    3    3    0  502 -0.10512337950E+03 -0.18011450484E+03 -0.10717274228E+03  0.23447421278E+03  0.00000000000E+00 0.  1.
         13    1    5    5    0    0  0.10316322170E+03  0.26083099814E+03 -0.23715863335E+03  0.36731413977E+03  0.00000000000E+00 0. -1.
        -13    1    5    5    0    0  0.10362281248E+03  0.25570962353E+03 -0.36963299328E+03  0.46125226130E+03  0.00000000000E+00 0.  1.
          2    1    6    6  503    0  0.73357170154E+02  0.19687482435E+02 -0.12752792140E+02  0.77016265068E+02  0.00000000000E+00 0. -1.
         -2    1    6    6    0  503  0.11266904181E+03 -0.84912747348E+02  0.48639781576E+01  0.14116708514E+03  0.00000000000E+00 0.  1.
<mgrwt>
<rscale>  0 0.68867499E+03</rscale>
<asrwt>0</asrwt>
<pdfrwt beam="1">  1        1 0.19746037E+00 0.68867499E+03</pdfrwt>
<pdfrwt beam="2">  1       -1 0.64351540E-01 0.68867499E+03</pdfrwt>
<totfact> 0.23657483E+01</totfact>
</mgrwt>
</event>
<event>
12    1  0.1335216E-007  0.4984183E+03  0.7818608E-02  0.1014193E+00
         -2   -1    0    0    0  501 -0.00000000000E+00  0.00000000000E+00  0.46022219258E+03  0.46022219258E+03  0.00000000000E+00 0.  1.
          2   -1    0    0  501    0  0.00000000000E+00 -0.00000000000E+00 -0.14548281260E+04  0.14548281260E+04  0.00000000000E+00 0. -1.
         23    2    1    2    0    0  0.35891575083E+03  0.23276167635E+03  0.22381818843E+03  0.49113525230E+03  0.90115150829E+02 0.  0.
    5000000    2    1    2    0    0 -0.35891575083E+03 -0.23276167635E+03 -0.12184241218E+04  0.14239150662E+04  0.59998188398E+03 0.  0.
         23    2    4    4    0    0  0.10770270000E+02  0.77053473018E+02 -0.11835370930E+02  0.12137510440E+03  0.92404564519E+02 0.  0.
         23    2    4    4    0    0 -0.36968602083E+03 -0.30981514937E+03 -0.12065887509E+04  0.13025399618E+04  0.90004209179E+02 0.  0.
          1    1    3    3  502    0  0.14064621179E+03  0.10443888665E+03  0.14055907492E+03  0.22460118316E+03  0.00000000000E+00 0. -1.
         -1    1    3    3    0  502  0.21826953904E+03  0.12832278970E+03  0.83259113511E+02  0.26653406914E+03  0.00000000000E+00 0.  1.
         11    1    5    5    0    0  0.13988474074E+02  0.49065979671E+02 -0.51650506076E+02  0.72601119453E+02  0.00000000000E+00 0. -1.
        -11    1    5    5    0    0 -0.32182040743E+01  0.27987493347E+02  0.39815135145E+02  0.48773984950E+02  0.00000000000E+00 0.  1.
          3    1    6    6  503    0 -0.25805361519E+03 -0.16451807179E+03 -0.70623219446E+03  0.76968940278E+03  0.00000000000E+00 0. -1.
         -3    1    6    6    0  503 -0.11163240564E+03 -0.14529707757E+03 -0.50035655642E+03  0.53285055906E+03  0.00000000000E+00 0.  1.
<mgrwt>
<rscale>  0 0.49841834E+03</rscale>
<asrwt>0</asrwt>
<pdfrwt beam="1">  1        2 0.22381971E+00 0.49841834E+03</pdfrwt>
<pdfrwt beam="2">  1       -2 0.70803416E-01 0.49841834E+03</pdfrwt>
<totfact> 0.25882719E+01</totfact>
</mgrwt>
</event>
<event>
12    1  0.1335216E-007  0.3988075E+03  0.7818608E-02  0.1044193E+00
         -1   -1    0    0    0  501 -0.00000000000E+00  0.00000000000E+00  0.27942030546E+03  0.27942030546E+03  0.00000000000E+00 0.  1.
          1   -1    0    0  501    0  0.00000000000E+00 -0.00000000000E+00 -0.17590764277E+04  0.17590764277E+04  0.00000000000E+00 0. -1.
         23    2    1    2    0    0 -0.34215962494E+03  0.17327551300E+03  0.32975881649E+01  0.39343441199E+03  0.87647875649E+02 0.  0.
    5000000    2    1    2    0    0  0.34215962494E+03 -0.17327551300E+03 -0.14829537104E+04  0.16450623212E+04  0.59998393394E+03 0.  0.
         23    2    4    4    0    0  0.77237062985E+02 -0.23532026573E+02  0.77490008102E+01  0.12086633363E+03  0.89606380461E+02 0.  0.
         23    2    4    4    0    0  0.26492256195E+03 -0.14974348643E+03 -0.14907027113E+04  0.15241959876E+04  0.91497320321E+02 0.  0.
          2    1    3    3  502    0 -0.22587793075E+03  0.13302752427E+03  0.39662900194E+02  0.26512319300E+03  0.00000000000E+00 0. -1.
         -2    1    3    3    0  502 -0.11628169418E+03  0.40247988730E+02 -0.36365312029E+02  0.12831121898E+03  0.00000000000E+00 0.  1.
         13    1    5    5    0    0  0.83954499203E+02 -0.33686337546E+02 -0.18136213850E+02  0.92260769163E+02  0.00000000000E+00 0. -1.
        -13    1    5    5    0    0 -0.67174362180E+01  0.10154310972E+02  0.25885214660E+02  0.28605564471E+02  0.00000000000E+00 0.  1.
          1    1    6    6  503    0  0.25702962852E+03 -0.15514655736E+03 -0.14785892630E+04  0.15087613770E+04  0.00000000000E+00 0. -1.
         -1    1    6    6    0  503  0.78929334338E+01  0.54030709290E+01 -0.12113448273E+02  0.15434610546E+02  0.00000000000E+00 0.  1.
<mgrwt>
<rscale>  0 0.39880750E+03</rscale>
<asrwt>0</asrwt>
<pdfrwt beam="1">  1        1 0.27062715E+00 0.39880750E+03</pdfrwt>
<pdfrwt beam="2">  1       -1 0.42987739E-01 0.39880750E+03</pdfrwt>
<totfact> 0.25581437E+01</totfact>
</mgrwt>
</event>
<event>
12    1  0.1335216E-007  0.1011666E+04  0.7818608E-02  0.9295842E-01
         -2   -1    0    0    0  501 -0.00000000000E+00  0.00000000000E+00  0.10525298244E+04  0.10525298244E+04  0.00000000000E+00 0.  1.
          2   -1    0    0  501    0  0.00000000000E+00 -0.00000000000E+00 -0.14897545308E+04  0.14897545308E+04  0.00000000000E+00 0. -1.
         23    2    1    2    0    0 -0.80768242071E+03 -0.48619816686E+03 -0.92439899571E+03  0.13230759213E+04  0.85304396099E+02 0.  0.
    5000000    2    1    2    0    0  0.80768242071E+03  0.48619816686E+03  0.48717428935E+03  0.12192084339E+04  0.60032563405E+03 0.  0.
         23    2    4    4    0    0  0.38282293915E+03 -0.50418164594E+02  0.31886150471E+03  0.50911861102E+03  0.91835215688E+02 0.  0.
         23    2    4    4    0    0  0.42485948156E+03  0.53661633145E+03  0.16831278464E+03  0.71008982288E+03  0.86230486633E+02 0.  0.
          2    1    3    3  502    0 -0.40578851296E+03 -0.28293829615E+03 -0.52125198282E+03  0.71862509438E+03  0.00000000000E+00 0. -1.
         -2    1    3    3    0  502 -0.40189390774E+03 -0.20325987071E+03 -0.40314701289E+03  0.60445082688E+03  0.00000000000E+00 0.  1.
         13    1    5    5    0    0  0.14374540634E+03 -0.55411471183E+02  0.91641978127E+02  0.17925240623E+03  0.00000000000E+00 0. -1.
        -13    1    5    5    0    0  0.23907753281E+03  0.49933065884E+01  0.22721952658E+03  0.32986620479E+03  0.00000000000E+00 0.  1.
          1    1    6    6  503    0  0.38242298086E+03  0.46760565034E+03  0.17469376312E+03  0.62882453148E+03  0.00000000000E+00 0. -1.
         -1    1    6    6    0  503  0.42436500696E+02  0.69010681111E+02 -0.63809784746E+01  0.81265291391E+02  0.00000000000E+00 0.  1.
<mgrwt>
<rscale>  0 0.10116658E+04</rscale>
<asrwt>0</asrwt>
<pdfrwt beam="1">  1        2 0.22919300E+00 0.10116658E+04</pdfrwt>
<pdfrwt beam="2">  1       -2 0.16192767E+00 0.10116658E+04</pdfrwt>
<totfact> 0.31082731E+00</totfact>
</mgrwt>
</event>
<event>
12    1  0.1335216E-007  0.1586367E+04  0.7818608E-02  0.8828967E-01
         -1   -1    0    0    0  501 -0.00000000000E+00  0.00000000000E+00  0.10057699728E+04  0.10057699728E+04  0.00000000000E+00 0.  1.
          1   -1    0    0  501    0  0.00000000000E+00 -0.00000000000E+00 -0.27808523152E+04  0.27808523152E+04  0.00000000000E+00 0. -1.
         23    2    1    2    0    0  0.13747273086E+04 -0.72605568859E+03 -0.13636013657E+04  0.20701296553E+04  0.94847609417E+02 0.  0.
    5000000    2    1    2    0    0 -0.13747273086E+04  0.72605568859E+03 -0.41148097667E+03  0.17164926326E+04  0.59999860639E+03 0.  0.
         23    2    4    4    0    0  0.25204692191E+02  0.64889464727E+02 -0.19173428781E+02  0.11674549944E+03  0.91738607616E+02 0.  0.
         23    2    4    4    0    0 -0.13999320008E+04  0.66116622386E+03 -0.39230754789E+03  0.15997471332E+04  0.91297839519E+02 0.  0.
          1    1    3    3  502    0  0.67107310940E+03 -0.35955962208E+03 -0.60507091796E+03  0.97248807486E+03  0.00000000000E+00 0. -1.
         -1    1    3    3    0  502  0.70365419924E+03 -0.36649606651E+03 -0.75853044777E+03  0.10976415804E+04  0.00000000000E+00 0.  1.
         11    1    5    5    0    0  0.37611104190E+01  0.96759563803E+01  0.34981227041E+02  0.36489126171E+02  0.00000000000E+00 0.  1.
        -11    1    5    5    0    0  0.21443581772E+02  0.55213508347E+02 -0.54154655822E+02  0.80256373269E+02  0.00000000000E+00 0. -1.
          2    1    6    6  503    0 -0.11654383662E+04  0.56075478487E+03 -0.36087751860E+03  0.13427304635E+04  0.00000000000E+00 0. -1.
         -2    1    6    6    0  503 -0.23449363458E+03  0.10041143898E+03 -0.31430029293E+02  0.25701666965E+03  0.00000000000E+00 0.  1.
<mgrwt>
<rscale>  0 0.15863668E+04</rscale>
<asrwt>0</asrwt>
<pdfrwt beam="1">  1        1 0.42782342E+00 0.15863668E+04</pdfrwt>
<pdfrwt beam="2">  1       -1 0.15473385E+00 0.15863668E+04</pdfrwt>
<totfact> 0.25943669E-01</totfact>
</mgrwt>
</event>
<event>
12    1  0.1335216E-007  0.6242148E+03  0.7818608E-02  0.9856404E-01
          2   -1    0    0  501    0  0.00000000000E+00  0.00000000000E+00  0.15870451007E+04  0.15870451007E+04  0.00000000000E+00 0. -1.
         -2   -1    0    0    0  501 -0.00000000000E+00 -0.00000000000E+00 -0.29375958076E+03  0.29375958076E+03  0.00000000000E+00 0.  1.
         23    2    1    2    0    0 -0.26697317565E+03  0.40805490751E+03  0.86457002105E+03  0.99665656741E+03  0.89774762595E+02 0.  0.
    5000000    2    1    2    0    0  0.26697317565E+03 -0.40805490751E+03  0.42871549892E+03  0.88414811407E+03  0.60011450953E+03 0.  0.
         23    2    4    4    0    0  0.38387137910E+03 -0.46669258574E+03  0.37314051350E+03  0.71589208997E+03  0.90046856583E+02 0.  0.
         23    2    4    4    0    0 -0.11689820345E+03  0.58637678233E+02  0.55574985413E+02  0.16825602410E+03  0.90099630210E+02 0.  0.
          1    1    3    3  502    0 -0.12777533294E+03  0.27074194646E+03  0.49299919045E+03  0.57678066808E+03  0.00000000000E+00 0. -1.
         -1    1    3    3    0  502 -0.13919784270E+03  0.13731296104E+03  0.37157083060E+03  0.41987589933E+03  0.00000000000E+00 0.  1.
         13    1    5    5    0    0  0.28647874063E+03 -0.28350698375E+03  0.23332997255E+03  0.46571359736E+03  0.00000000000E+00 0.  1.
        -13    1    5    5    0    0  0.97392638467E+02 -0.18318560199E+03  0.13981054095E+03  0.25017849261E+03  0.00000000000E+00 0. -1.
          3    1    6    6  503    0 -0.92263135297E+02  0.70067723218E+02  0.72108997839E+02  0.13646127488E+03  0.00000000000E+00 0. -1.
         -3    1    6    6    0  503 -0.24635068157E+02 -0.11430044985E+02 -0.16534012426E+02  0.31794749226E+02  0.00000000000E+00 0.  1.
<mgrwt>
<rscale>  0 0.62421476E+03</rscale>
<asrwt>0</asrwt>
<pdfrwt beam="1">  1        2 0.24416078E+00 0.62421476E+03</pdfrwt>
<pdfrwt beam="2">  1       -2 0.45193783E-01 0.62421476E+03</pdfrwt>
<totfact> 0.54637104E+01</totfact>
</mgrwt>
</event>
<event>
12    1  0.1335216E-007  0.7608543E+03  0.7818608E-02  0.9618474E-01
         -2   -1    0    0    0  501 -0.00000000000E+00  0.00000000000E+00  0.32859597556E+03  0.32859597556E+03  0.00000000000E+00 0.  1.
          2   -1    0    0  501    0  0.00000000000E+00 -0.00000000000E+00 -0.21963651574E+04  0.21963651574E+04  0.00000000000E+00 0. -1.
         23    2    1    2    0    0  0.44215278688E+02 -0.73735105299E+03 -0.89600304150E+03  0.11648348091E+04  0.91526585648E+02 0.  0.
    5000000    2    1    2    0    0 -0.44215278688E+02  0.73735105299E+03 -0.97176614038E+03  0.13601263239E+04  0.59997718223E+03 0.  0.
         23    2    4    4    0    0 -0.69433273357E+02  0.67168833346E+03 -0.10292488636E+04  0.12343230877E+04  0.90631478165E+02 0.  0.
         23    2    4    4    0    0  0.25217994668E+02  0.65662719531E+02  0.57482723258E+02  0.12580323619E+03  0.87032469639E+02 0.  0.
          3    1    3    3  502    0  0.50263301326E+02 -0.72046429240E+03 -0.88944933127E+03  0.11457378884E+04  0.00000000000E+00 0. -1.
         -3    1    3    3    0  502 -0.60480226379E+01 -0.16886760597E+02 -0.65537102336E+01  0.19096920671E+02  0.00000000000E+00 0.  1.
         13    1    5    5    0    0 -0.70560829753E+02  0.26477365903E+03 -0.43482079266E+03  0.51395821128E+03  0.00000000000E+00 0. -1.
        -13    1    5    5    0    0  0.11275563963E+01  0.40691467443E+03 -0.59442807097E+03  0.72036487644E+03  0.00000000000E+00 0.  1.
          3    1    6    6  503    0 -0.17644111819E+02  0.53108090285E+02  0.39727307948E+01  0.56103177500E+02  0.00000000000E+00 0. -1.
         -3    1    6    6    0  503  0.42862106487E+02  0.12554629245E+02  0.53509992463E+02  0.69700058690E+02  0.00000000000E+00 0.  1.
<mgrwt>
<rscale>  0 0.76085430E+03</rscale>
<asrwt>0</asrwt>
<pdfrwt beam="1">  1        2 0.33790232E+00 0.76085430E+03</pdfrwt>
<pdfrwt beam="2">  1       -2 0.50553229E-01 0.76085430E+03</pdfrwt>
<totfact> 0.19904144E+01</totfact>
</mgrwt>
</event>
<event>
12    1  0.1335216E-007  0.8280567E+03  0.7818608E-02  0.9520271E-01
         -2   -1    0    0    0  501 -0.00000000000E+00  0.00000000000E+00  0.70872244412E+03  0.70872244412E+03  0.00000000000E+00 0.  1.
          2   -1    0    0  501    0  0.00000000000E+00 -0.00000000000E+00 -0.10855514328E+04  0.10855514328E+04  0.00000000000E+00 0. -1.
         23    2    1    2    0    0  0.33505468477E+03  0.65929216711E+03  0.58690456526E+02  0.74709873831E+03  0.88227839666E+02 0.  0.
    5000000    2    1    2    0    0 -0.33505468477E+03 -0.65929216711E+03 -0.43551944523E+03  0.10471751386E+04  0.59997564984E+03 0.  0.
         23    2    4    4    0    0 -0.31477170368E+03 -0.87166569741E+02 -0.29912310556E+03  0.45223379165E+03  0.91441422317E+02 0.  0.
         23    2    4    4    0    0 -0.20282981091E+02 -0.57212559737E+03 -0.13639633967E+03  0.59494134699E+03  0.87247615383E+02 0.  0.
          2    1    3    3  502    0  0.19655167596E+03  0.39348010785E+03 -0.85261697682E+01  0.43992255247E+03  0.00000000000E+00 0. -1.
         -2    1    3    3    0  502  0.13850300880E+03  0.26581205926E+03  0.67216626295E+02  0.30717618584E+03  0.00000000000E+00 0.  1.
         13    1    5    5    0    0 -0.15983105040E+03  0.53175583214E+00 -0.16136313913E+03  0.22712179575E+03  0.00000000000E+00 0. -1.
        -13    1    5    5    0    0 -0.15494065328E+03 -0.87698325574E+02 -0.13775996643E+03  0.22511199590E+03  0.00000000000E+00 0.  1.
          1    1    6    6  503    0 -0.52025587998E+02 -0.42421113170E+03 -0.90690971053E+02  0.43690570870E+03  0.00000000000E+00 0. -1.
         -1    1    6    6    0  503  0.31742606907E+02 -0.14791446567E+03 -0.45705368621E+02  0.15803563829E+03  0.00000000000E+00 0.  1.
<mgrwt>
<rscale>  0 0.82805671E+03</rscale>
<asrwt>0</asrwt>
<pdfrwt beam="1">  1        2 0.16700791E+00 0.82805671E+03</pdfrwt>
<pdfrwt beam="2">  1       -2 0.10903422E+00 0.82805671E+03</pdfrwt>
<totfact> 0.15066548E+01</totfact>
</mgrwt>
</event>
<event>
12    1  0.1335216E-007  0.1094551E+04  0.7818608E-02  0.9210519E-01
         -2   -1    0    0    0  501 -0.00000000000E+00  0.00000000000E+00  0.51067226460E+03  0.51067226460E+03  0.00000000000E+00 0.  1.
          2   -1    0    0  501    0  0.00000000000E+00 -0.00000000000E+00 -0.27677886355E+04  0.27677886355E+04  0.00000000000E+00 0. -1.
         23    2    1    2    0    0  0.11118905021E+03  0.10132522032E+04 -0.16678254255E+04  0.19567534273E+04  0.90549948935E+02 0.  0.
    5000000    2    1    2    0    0 -0.11118905021E+03 -0.10132522032E+04 -0.58929094537E+03  0.13217074728E+04  0.60050295014E+03 0.  0.
         23    2    4    4    0    0  0.21399087469E+03 -0.62382545826E+03 -0.36383946850E+03  0.75908500146E+03  0.94236849318E+02 0.  0.
         23    2    4    4    0    0 -0.32517992491E+03 -0.38942674490E+03 -0.22545147686E+03  0.56262247130E+03  0.91216794377E+02 0.  0.
          1    1    3    3  502    0  0.11306301730E+03  0.86133181848E+03 -0.13658229500E+04  0.16186871465E+04  0.00000000000E+00 0. -1.
         -1    1    3    3    0  502 -0.18739670808E+01  0.15192038469E+03 -0.30200247546E+03  0.33806628081E+03  0.00000000000E+00 0.  1.
         11    1    5    5    0    0  0.15780761286E+03 -0.51492904045E+03 -0.33127510121E+03  0.63229609524E+03  0.00000000000E+00 0.  1.
        -11    1    5    5    0    0  0.56183261831E+02 -0.10889641781E+03 -0.32564367294E+02  0.12678890622E+03  0.00000000000E+00 0. -1.
          3    1    6    6  503    0 -0.18855196470E+03 -0.22753496530E+03 -0.17983838721E+03  0.34592752036E+03  0.00000000000E+00 0. -1.
         -3    1    6    6    0  503 -0.13662796021E+03 -0.16189177961E+03 -0.45613089652E+02  0.21669495094E+03  0.00000000000E+00 0.  1.
<mgrwt>
<rscale>  0 0.10945512E+04</rscale>
<asrwt>0</asrwt>
<pdfrwt beam="1">  1        2 0.42581364E+00 0.10945512E+04</pdfrwt>
<pdfrwt beam="2">  1       -2 0.78564964E-01 0.10945512E+04</pdfrwt>
<totfact> 0.34919897E+00</totfact>
</mgrwt>
</event>
<event>
12    1  0.1335216E-007  0.2998086E+03  0.7818608E-02  0.1085336E+00
          2   -1    0    0  501    0  0.00000000000E+00  0.00000000000E+00  0.18238791976E+04  0.18238791976E+04  0.00000000000E+00 0. -1.
         -2   -1    0    0    0  501 -0.00000000000E+00 -0.00000000000E+00 -0.10247142157E+03  0.10247142157E+03  0.00000000000E+00 0.  1.
         23    2    1    2    0    0 -0.18389849825E+03  0.67960098118E+02  0.28807152942E+03  0.36018295561E+03  0.91155487258E+02 0.  0.
    5000000    2    1    2    0    0  0.18389849825E+03 -0.67960098118E+02  0.14333362467E+04  0.15661676636E+04  0.59999260158E+03 0.  0.
         23    2    4    4    0    0 -0.21547824659E+02 -0.13892164024E+03  0.66350234107E+02  0.17892945116E+03  0.88599458530E+02 0.  0.
         23    2    4    4    0    0  0.20544632291E+03  0.70961542119E+02  0.13669860125E+04  0.13872382124E+04  0.92387052732E+02 0.  0.
          2    1    3    3  502    0 -0.93159117790E+02  0.10057580582E+02  0.20088375305E+03  0.22166203643E+03  0.00000000000E+00 0.  1.
         -2    1    3    3    0  502 -0.90739380462E+02  0.57902517536E+02  0.87187776371E+02  0.13852091919E+03  0.00000000000E+00 0. -1.
         11    1    5    5    0    0  0.31897506198E+02 -0.53601975271E+02  0.88789861365E+01  0.63003643144E+02  0.00000000000E+00 0. -1.
        -11    1    5    5    0    0 -0.53445330857E+02 -0.85319664967E+02  0.57471247971E+02  0.11592580801E+03  0.00000000000E+00 0.  1.
          4    1    6    6  503    0  0.99308828754E+02 -0.12648402929E+02  0.52110838279E+03  0.53063751486E+03  0.00000000000E+00 0. -1.
         -4    1    6    6    0  503  0.10613749416E+03  0.83609945049E+02  0.84587762976E+03  0.85660069758E+03  0.00000000000E+00 0.  1.
<mgrwt>
<rscale>  0 0.29980859E+03</rscale>
<asrwt>0</asrwt>
<pdfrwt beam="1">  1        2 0.28059678E+00 0.29980859E+03</pdfrwt>
<pdfrwt beam="2">  1       -2 0.15764835E-01 0.29980859E+03</pdfrwt>
<totfact> 0.28945456E+02</totfact>
</mgrwt>
</event>
<event>
12    1  0.1335216E-007  0.4438791E+03  0.7818608E-02  0.1029563E+00
         -2   -1    0    0    0  501 -0.00000000000E+00  0.00000000000E+00  0.84879107829E+03  0.84879107829E+03  0.00000000000E+00 0.  1.
          2   -1    0    0  501    0  0.00000000000E+00 -0.00000000000E+00 -0.60361795214E+03  0.60361795214E+03  0.00000000000E+00 0. -1.
         23    2    1    2    0    0  0.24809417529E+03  0.25641854361E+03 -0.36998949601E+03  0.52196561158E+03  0.90855287081E+02 0.  0.
    5000000    2    1    2    0    0 -0.24809417529E+03 -0.25641854361E+03  0.61516262216E+03  0.93044341886E+03  0.59999892889E+03 0.  0.
         23    2    4    4    0    0  0.71658872991E+02 -0.15485667612E+03 -0.31445437166E+02  0.19625943018E+03  0.91724392594E+02 0.  0.
         23    2    4    4    0    0 -0.31975304828E+03 -0.10156186748E+03  0.64660805933E+03  0.73418398868E+03  0.91473067275E+02 0.  0.
          1    1    3    3  502    0 -0.29074930036E+01  0.25708840594E+02 -0.38983855848E+02  0.46788235883E+02  0.00000000000E+00 0. -1.
         -1    1    3    3    0  502  0.25100166829E+03  0.23070970301E+03 -0.33100564017E+03  0.47517737569E+03  0.00000000000E+00 0.  1.
         13    1    5    5    0    0  0.47379022781E+02 -0.65404815598E+02  0.28764256299E+02  0.85731815236E+02  0.00000000000E+00 0.  1.
        -13    1    5    5    0    0  0.24279850209E+02 -0.89451860526E+02 -0.60209693465E+02  0.11052761494E+03  0.00000000000E+00 0. -1.
          3    1    6    6  503    0 -0.29418172043E+03 -0.11816060560E+03  0.59709847097E+03  0.67604097316E+03  0.00000000000E+00 0. -1.
         -3    1    6    6    0  503 -0.25571327846E+02  0.16598738115E+02  0.49509588358E+02  0.58143015524E+02  0.00000000000E+00 0.  1.
<mgrwt>
<rscale>  0 0.44387909E+03</rscale>
<asrwt>0</asrwt>
<pdfrwt beam="1">  1        2 0.92864300E-01 0.44387909E+03</pdfrwt>
<pdfrwt beam="2">  1       -2 0.13058324E+00 0.44387909E+03</pdfrwt>
<totfact> 0.22183806E+01</totfact>
</mgrwt>
</event>
<event>
12    1  0.1335216E-007  0.8930289E+03  0.7818608E-02  0.9434338E-01
          2   -1    0    0  501    0  0.00000000000E+00  0.00000000000E+00  0.63979260127E+03  0.63979260127E+03  0.00000000000E+00 0. -1.
         -2   -1    0    0    0  501 -0.00000000000E+00 -0.00000000000E+00 -0.13709706451E+04  0.13709706451E+04  0.00000000000E+00 0.  1.
         23    2    1    2    0    0  0.76915053931E+03  0.23175562002E+03 -0.74086843936E+02  0.81193148632E+03  0.91873056423E+02 0.  0.
    5000000    2    1    2    0    0 -0.76915053931E+03 -0.23175562002E+03 -0.65709119985E+03  0.11988317600E+04  0.60010459453E+03 0.  0.
         23    2    4    4    0    0 -0.42781319175E+03  0.15817641498E+03 -0.39932348031E+03  0.61296984975E+03  0.90713226644E+02 0.  0.
         23    2    4    4    0    0 -0.34133734756E+03 -0.38993203500E+03 -0.25776771955E+03  0.58586191027E+03  0.90729289105E+02 0.  0.
          3    1    3    3  502    0  0.57645525912E+03  0.19118118275E+03 -0.91741512217E+02  0.61422098260E+03  0.00000000000E+00 0. -1.
         -3    1    3    3    0  502  0.19269528018E+03  0.40574437275E+02  0.17654668281E+02  0.19771050371E+03  0.00000000000E+00 0.  1.
         13    1    5    5    0    0 -0.25879098209E+03  0.91574643522E+02 -0.18040443258E+03  0.32848812314E+03  0.00000000000E+00 0.  1.
        -13    1    5    5    0    0 -0.16902220966E+03  0.66601771458E+02 -0.21891904773E+03  0.28448172662E+03  0.00000000000E+00 0. -1.
          1    1    6    6  503    0 -0.22791082756E+02 -0.72163825490E+02 -0.28413898183E+02  0.80835640485E+02  0.00000000000E+00 0. -1.
         -1    1    6    6    0  503 -0.31854626480E+03 -0.31776820951E+03 -0.22935382136E+03  0.50502626978E+03  0.00000000000E+00 0.  1.
<mgrwt>
<rscale>  0 0.89302890E+03</rscale>
<asrwt>0</asrwt>
<pdfrwt beam="1">  1        2 0.98429633E-01 0.89302890E+03</pdfrwt>
<pdfrwt beam="2">  1       -2 0.21091856E+00 0.89302890E+03</pdfrwt>
<totfact> 0.52074692E+00</totfact>
</mgrwt>
</event>
<event>
12    1  0.1335216E-007  0.5606374E+03  0.7818608E-02  0.9990613E-01
         -2   -1    0    0    0  501 -0.00000000000E+00  0.00000000000E+00  0.41379428912E+03  0.41379428912E+03  0.00000000000E+00 0.  1.
          2   -1    0    0  501    0  0.00000000000E+00 -0.00000000000E+00 -0.80399205773E+03  0.80399205773E+03  0.00000000000E+00 0. -1.
         23    2    1    2    0    0  0.33017453499E+03 -0.24832214358E+03 -0.10141111763E+03  0.43411124291E+03  0.86540429220E+02 0.  0.
    5000000    2    1    2    0    0 -0.33017453499E+03  0.24832214358E+03 -0.28878665098E+03  0.78367510394E+03  0.60005818734E+03 0.  0.
         23    2    4    4    0    0 -0.47930070655E+03  0.17097409817E+03 -0.12208388420E+03  0.53144902261E+03  0.92586604358E+02 0.  0.
         23    2    4    4    0    0  0.14912617156E+03  0.77348045414E+02 -0.16670276679E+03  0.25222608133E+03  0.87217248710E+02 0.  0.
          1    1    3    3  502    0  0.12793502883E+03 -0.57269039249E+02 -0.61439148414E+02  0.15304209688E+03  0.00000000000E+00 0. -1.
         -1    1    3    3    0  502  0.20223950616E+03 -0.19105310434E+03 -0.39971969215E+02  0.28106914603E+03  0.00000000000E+00 0.  1.
         13    1    5    5    0    0 -0.33787964079E+03  0.75154694967E+02 -0.73582362997E+02  0.35387179031E+03  0.00000000000E+00 0.  1.
        -13    1    5    5    0    0 -0.14142106577E+03  0.95819403204E+02 -0.48501521201E+02  0.17757723230E+03  0.00000000000E+00 0. -1.
          1    1    6    6  503    0  0.88388159335E+01  0.39712041720E+02 -0.57815935841E+02  0.70695497466E+02  0.00000000000E+00 0. -1.
         -1    1    6    6    0  503  0.14028735563E+03  0.37636003693E+02 -0.10888683095E+03  0.18153058386E+03  0.00000000000E+00 0.  1.
<mgrwt>
<rscale>  0 0.56063738E+03</rscale>
<asrwt>0</asrwt>
<pdfrwt beam="1">  1        2 0.12369108E+00 0.56063738E+03</pdfrwt>
<pdfrwt beam="2">  1       -2 0.63660661E-01 0.56063738E+03</pdfrwt>
<totfact> 0.80351802E+01</totfact>
</mgrwt>
</event>
<event>
12    1  0.1335216E-007  0.7672480E+03  0.7818608E-02  0.9608673E-01
          1   -1    0    0  501    0  0.00000000000E+00  0.00000000000E+00  0.98182227406E+03  0.98182227406E+03  0.00000000000E+00 0. -1.
         -1   -1    0    0    0  501 -0.00000000000E+00 -0.00000000000E+00 -0.86139198879E+03  0.86139198879E+03  0.00000000000E+00 0.  1.
         23    2    1    2    0    0 -0.70132933465E+03 -0.29490570597E+03 -0.24997794469E+03  0.80589994937E+03  0.90296979513E+02 0.  0.
    5000000    2    1    2    0    0  0.70132933465E+03  0.29490570597E+03  0.37040822996E+03  0.10373143135E+04  0.59998876411E+03 0.  0.
         23    2    4    4    0    0  0.40364562300E+03  0.19105916810E+03  0.50688379819E+03  0.68184533097E+03  0.92457967850E+02 0.  0.
         23    2    4    4    0    0  0.29768371166E+03  0.10384653787E+03 -0.13647556823E+03  0.35546898251E+03  0.91284835477E+02 0.  0.
          1    1    3    3  502    0 -0.51054223156E+03 -0.22301412219E+03 -0.14087295118E+03  0.57465977524E+03  0.00000000000E+00 0. -1.
         -1    1    3    3    0  502 -0.19078710309E+03 -0.71891583782E+02 -0.10910499351E+03  0.23124017413E+03  0.00000000000E+00 0.  1.
         11    1    5    5    0    0  0.21401025162E+03  0.13806995921E+03  0.33245722396E+03  0.41879769245E+03  0.00000000000E+00 0.  1.
        -11    1    5    5    0    0  0.18963537137E+03  0.52989208886E+02  0.17442657423E+03  0.26304763852E+03  0.00000000000E+00 0. -1.
          4    1    6    6  503    0  0.12857243544E+03  0.11151162781E+02 -0.89282826082E+02  0.15692878200E+03  0.00000000000E+00 0. -1.
         -4    1    6    6    0  503  0.16911127622E+03  0.92695375091E+02 -0.47192742146E+02  0.19854020051E+03  0.00000000000E+00 0.  1.
<mgrwt>
<rscale>  0 0.76724799E+03</rscale>
<asrwt>0</asrwt>
<pdfrwt beam="1">  1        1 0.15104958E+00 0.76724799E+03</pdfrwt>
<pdfrwt beam="2">  1       -1 0.13252184E+00 0.76724799E+03</pdfrwt>
<totfact> 0.77886764E+00</totfact>
</mgrwt>
</event>
<event>
12    1  0.1335216E-007  0.3817882E+03  0.7818608E-02  0.1050275E+00
         -1   -1    0    0    0  501 -0.00000000000E+00  0.00000000000E+00  0.51497643437E+03  0.51497643437E+03  0.00000000000E+00 0.  1.
          1   -1    0    0  501    0  0.00000000000E+00 -0.00000000000E+00 -0.31363305992E+03  0.31363305992E+03  0.00000000000E+00 0. -1.
         23    2    1    2    0    0  0.23518355770E+02 -0.15496781402E+03  0.30237213036E+02  0.18540455495E+03  0.94299647425E+02 0.  0.
    5000000    2    1    2    0    0 -0.23518355770E+02  0.15496781402E+03  0.17110616141E+03  0.64320493933E+03  0.59988927234E+03 0.  0.
         23    2    4    4    0    0  0.11101218809E+03 -0.17110604506E+03 -0.22294072832E+02  0.22966579941E+03  0.10319093553E+03 0.  0.
         23    2    4    4    0    0 -0.13453054386E+03  0.32607385908E+03  0.19340023424E+03  0.41353913992E+03  0.95855833591E+02 0.  0.
          2    1    3    3  502    0 -0.32810062331E+02 -0.37905964938E+02  0.23373194517E+02  0.55314271124E+02  0.00000000000E+00 0.  1.
         -2    1    3    3    0  502  0.56328418101E+02 -0.11706184908E+03  0.68640185192E+01  0.13009028383E+03  0.00000000000E+00 0. -1.
         13    1    5    5    0    0  0.98504794904E+02 -0.18474352633E+03 -0.25410983971E+02  0.21090064781E+03  0.00000000000E+00 0.  1.
        -13    1    5    5    0    0  0.12507393187E+02  0.13637481269E+02  0.31169111390E+01  0.18765151605E+02  0.00000000000E+00 0. -1.
          1    1    6    6  503    0 -0.10440038764E+02  0.73681274464E+02  0.82796157355E+02  0.11132442809E+03  0.00000000000E+00 0. -1.
         -1    1    6    6    0  503 -0.12409050510E+03  0.25239258461E+03  0.11060407689E+03  0.30221471183E+03  0.00000000000E+00 0.  1.
<mgrwt>
<rscale>  0 0.38178824E+03</rscale>
<asrwt>0</asrwt>
<pdfrwt beam="1">  1        1 0.48251240E-01 0.38178824E+03</pdfrwt>
<pdfrwt beam="2">  1       -1 0.79227144E-01 0.38178824E+03</pdfrwt>
<totfact> 0.13735768E+02</totfact>
</mgrwt>
</event>
<event>
12    1  0.1335216E-007  0.4419955E+03  0.7818608E-02  0.1030136E+00
         -2   -1    0    0    0  501 -0.00000000000E+00  0.00000000000E+00  0.11806010634E+03  0.11806010634E+03  0.00000000000E+00 0.  1.
          2   -1    0    0  501    0  0.00000000000E+00 -0.00000000000E+00 -0.39347027161E+04  0.39347027161E+04  0.00000000000E+00 0. -1.
         23    2    1    2    0    0  0.22857844589E+03 -0.35025724488E+03 -0.50240948168E+03  0.65878725586E+03  0.81591161800E+02 0.  0.
    5000000    2    1    2    0    0 -0.22857844589E+03  0.35025724488E+03 -0.33142331281E+04  0.33939755666E+04  0.60000056313E+03 0.  0.
         23    2    4    4    0    0 -0.67188580241E+02  0.23932658931E+03 -0.45488258036E+03  0.52650831909E+03  0.92202638171E+02 0.  0.
         23    2    4    4    0    0 -0.16138986565E+03  0.11093065557E+03 -0.28593505477E+04  0.28674672475E+04  0.90169626902E+02 0.  0.
          2    1    3    3  502    0  0.96775947793E+02 -0.12945469084E+03 -0.13650313850E+03  0.21155899384E+03  0.00000000000E+00 0. -1.
         -2    1    3    3    0  502  0.13180249810E+03 -0.22080255404E+03 -0.36590634318E+03  0.44722826202E+03  0.00000000000E+00 0.  1.
         11    1    5    5    0    0 -0.46113946436E+02  0.10624546923E+03 -0.29794445386E+03  0.31966465768E+03  0.00000000000E+00 0. -1.
        -11    1    5    5    0    0 -0.21074633804E+02  0.13308112008E+03 -0.15693812650E+03  0.20684366140E+03  0.00000000000E+00 0.  1.
          2    1    6    6  503    0 -0.58080114389E+02  0.93222509606E+02 -0.13285856129E+04  0.13331179494E+04  0.00000000000E+00 0. -1.
         -2    1    6    6    0  503 -0.10330975126E+03  0.17708145964E+02 -0.15307649348E+04  0.15343492982E+04  0.00000000000E+00 0.  1.
<mgrwt>
<rscale>  0 0.44199548E+03</rscale>
<asrwt>0</asrwt>
<pdfrwt beam="1">  1        2 0.60533891E+00 0.44199548E+03</pdfrwt>
<pdfrwt beam="2">  1       -2 0.18163092E-01 0.44199548E+03</pdfrwt>
<totfact> 0.11595908E+01</totfact>
</mgrwt>
</event>
<event>
12    1  0.1335216E-007  0.1597039E+04  0.7818608E-02  0.8822369E-01
         -2   -1    0    0    0  501 -0.00000000000E+00  0.00000000000E+00  0.16384998331E+04  0.16384998331E+04  0.00000000000E+00 0.  1.
          2   -1    0    0  501    0  0.00000000000E+00 -0.00000000000E+00 -0.19167560804E+04  0.19167560804E+04  0.00000000000E+00 0. -1.
         23    2    1    2    0    0  0.15134862285E+04 -0.46879052719E+03 -0.80701638919E+03  0.17804099050E+04  0.90437022764E+02 0.  0.
    5000000    2    1    2    0    0 -0.15134862285E+04  0.46879052719E+03  0.52876014182E+03  0.17748460085E+04  0.60007161586E+03 0.  0.
         23    2    4    4    0    0 -0.23794300058E+03  0.17263473936E+01  0.30135756969E+03  0.39450931908E+03  0.90561394797E+02 0.  0.
         23    2    4    4    0    0 -0.12755432279E+04  0.46706417980E+03  0.22740257213E+03  0.13803366894E+04  0.91967233767E+02 0.  0.
          1    1    3    3  502    0  0.79805588847E+02 -0.33220287673E+02 -0.23733005448E+02  0.89642484749E+02  0.00000000000E+00 0. -1.
         -1    1    3    3    0  502  0.14336806396E+04 -0.43557023952E+03 -0.78328338374E+03  0.16907674202E+04  0.00000000000E+00 0.  1.
         13    1    5    5    0    0 -0.42845565456E+02  0.31960637255E+02  0.39005058079E+02  0.66171136976E+02  0.00000000000E+00 0. -1.
        -13    1    5    5    0    0 -0.19509743512E+03 -0.30234289862E+02  0.26235251161E+03  0.32833818210E+03  0.00000000000E+00 0.  1.
          3    1    6    6  503    0 -0.69708736372E+03  0.25627760964E+03  0.17069351860E+03  0.76206645586E+03  0.00000000000E+00 0. -1.
         -3    1    6    6    0  503 -0.57845586419E+03  0.21078657016E+03  0.56709053529E+02  0.61827023357E+03  0.00000000000E+00 0.  1.
<mgrwt>
<rscale>  0 0.15970386E+04</rscale>
<asrwt>0</asrwt>
<pdfrwt beam="1">  1        2 0.29488555E+00 0.15970386E+04</pdfrwt>
<pdfrwt beam="2">  1       -2 0.25207690E+00 0.15970386E+04</pdfrwt>
<totfact> 0.43054761E-01</totfact>
</mgrwt>
</event>
<event>
12    1  0.1335216E-007  0.2794320E+03  0.7818608E-02  0.1096000E+00
          2   -1    0    0  501    0  0.00000000000E+00  0.00000000000E+00  0.49501097627E+03  0.49501097627E+03  0.00000000000E+00 0. -1.
         -2   -1    0    0    0  501 -0.00000000000E+00 -0.00000000000E+00 -0.57650217075E+03  0.57650217075E+03  0.00000000000E+00 0.  1.
         23    2    1    2    0    0 -0.52996012681E+02 -0.17724963590E+03 -0.33569449872E+03  0.39412231164E+03  0.91736520959E+02 0.  0.
    5000000    2    1    2    0    0  0.52996012681E+02  0.17724963590E+03  0.25420330424E+03  0.67739083538E+03  0.60001084422E+03 0.  0.
         23    2    4    4    0    0  0.13987154811E+03  0.21877825405E+03  0.39645290650E+03  0.48276283782E+03  0.91962362359E+02 0.  0.
         23    2    4    4    0    0 -0.86875535432E+02 -0.41528618151E+02 -0.14224960227E+03  0.19462799756E+03  0.91504772037E+02 0.  0.
          3    1    3    3  502    0 -0.51274601760E+02 -0.10244870194E+03 -0.27455514857E+03  0.29749848894E+03  0.00000000000E+00 0. -1.
         -3    1    3    3    0  502 -0.17214109206E+01 -0.74800933962E+02 -0.61139350146E+02  0.96623822701E+02  0.00000000000E+00 0.  1.
         13    1    5    5    0    0  0.11985054047E+03  0.11115723438E+03  0.26880489537E+03  0.31460475931E+03  0.00000000000E+00 0.  1.
        -13    1    5    5    0    0  0.20021007640E+02  0.10762101967E+03  0.12764801113E+03  0.16815807851E+03  0.00000000000E+00 0. -1.
          1    1    6    6  503    0 -0.52630886197E+02 -0.28950203759E+02 -0.14607809693E+03  0.15794598723E+03  0.00000000000E+00 0. -1.
         -1    1    6    6    0  503 -0.34244649235E+02 -0.12578414392E+02  0.38284946675E+01  0.36682010322E+02  0.00000000000E+00 0.  1.
<mgrwt>
<rscale>  0 0.27943197E+03</rscale>
<asrwt>0</asrwt>
<pdfrwt beam="1">  1        2 0.76155535E-01 0.27943197E+03</pdfrwt>
<pdfrwt beam="2">  1       -2 0.88692641E-01 0.27943197E+03</pdfrwt>
<totfact> 0.71911662E+01</totfact>
</mgrwt>
</event>
<event>
12    1  0.1335216E-007  0.1308706E+04  0.7818608E-02  0.9022690E-01
         -2   -1    0    0    0  501 -0.00000000000E+00  0.00000000000E+00  0.84076847184E+03  0.84076847184E+03  0.00000000000E+00 0.  1.
          2   -1    0    0  501    0  0.00000000000E+00 -0.00000000000E+00 -0.27116847092E+04  0.27116847092E+04  0.00000000000E+00 0. -1.
         23    2    1    2    0    0 -0.11867307777E+04  0.43471716565E+03 -0.66069275531E+02  0.12688610132E+04  0.91291669069E+02 0.  0.
    5000000    2    1    2    0    0  0.11867307777E+04 -0.43471716565E+03 -0.18048469618E+04  0.22835921678E+04  0.60000973356E+03 0.  0.
         23    2    4    4    0    0  0.11315150488E+04 -0.27952729898E+03 -0.17142222381E+04  0.20749111010E+04  0.90754500427E+02 0.  0.
         23    2    4    4    0    0  0.55215728974E+02 -0.15518986667E+03 -0.90624723783E+02  0.20868106678E+03  0.90566415566E+02 0.  0.
          2    1    3    3  502    0 -0.31649431707E+03  0.14481073749E+03 -0.48705902874E+02  0.35144141390E+03  0.00000000000E+00 0.  1.
         -2    1    3    3    0  502 -0.87023646066E+03  0.28990642816E+03 -0.17363372657E+02  0.91741959934E+03  0.00000000000E+00 0. -1.
         11    1    5    5    0    0  0.40871090691E+03 -0.12777013458E+03 -0.56760654779E+03  0.71101828795E+03  0.00000000000E+00 0.  1.
        -11    1    5    5    0    0  0.72280414185E+03 -0.15175716439E+03 -0.11466156903E+04  0.13638928131E+04  0.00000000000E+00 0. -1.
          1    1    6    6  503    0 -0.20966881929E+02 -0.15023362918E+02 -0.25797917835E+02  0.36480736503E+02  0.00000000000E+00 0. -1.
         -1    1    6    6    0  503  0.76182610902E+02 -0.14016650376E+03 -0.64826805948E+02  0.17220033028E+03  0.00000000000E+00 0.  1.
<mgrwt>
<rscale>  0 0.13087057E+04</rscale>
<asrwt>0</asrwt>
<pdfrwt beam="1">  1        2 0.41718226E+00 0.13087057E+04</pdfrwt>
<pdfrwt beam="2">  1       -2 0.12934900E+00 0.13087057E+04</pdfrwt>
<totfact> 0.11140791E+00</totfact>
</mgrwt>
</event>
<event>
12    1  0.1335216E-007  0.1220879E+04  0.7818608E-02  0.9094775E-01
          1   -1    0    0  501    0  0.00000000000E+00  0.00000000000E+00  0.13445538645E+04  0.13445538645E+04  0.00000000000E+00 0. -1.
         -1   -1    0    0    0  501 -0.00000000000E+00 -0.00000000000E+00 -0.12475543851E+04  0.12475543851E+04  0.00000000000E+00 0.  1.
         23    2    1    2    0    0  0.12099745082E+04  0.35156908195E+02 -0.13327420348E+03  0.12213838777E+04  0.93499972118E+02 0.  0.
    5000000    2    1    2    0    0 -0.12099745082E+04 -0.35156908195E+02  0.23027368291E+03  0.13707243719E+04  0.60048731540E+03 0.  0.
         23    2    4    4    0    0 -0.73890876739E+03  0.66115404346E+02 -0.13373676802E+03  0.75986418488E+03  0.95658993959E+02 0.  0.
         23    2    4    4    0    0 -0.47106574082E+03 -0.10127231254E+03  0.36401045093E+03  0.61086018701E+03  0.92127879770E+02 0.  0.
          1    1    3    3  502    0  0.46958383507E+03  0.40735725656E+02 -0.88787367792E+02  0.47963691912E+03  0.00000000000E+00 0. -1.
         -1    1    3    3    0  502  0.74039067314E+03 -0.55788174611E+01 -0.44486835689E+02  0.74174695862E+03  0.00000000000E+00 0.  1.
         13    1    5    5    0    0 -0.24796451436E+03  0.41238805110E+02 -0.37667590616E+01  0.25139854396E+03  0.00000000000E+00 0.  1.
        -13    1    5    5    0    0 -0.49094425303E+03  0.24876599235E+02 -0.12997000896E+03  0.50846564092E+03  0.00000000000E+00 0. -1.
          1    1    6    6  503    0 -0.22148485566E+03 -0.83989112972E+02  0.14067767554E+03  0.27549940251E+03  0.00000000000E+00 0. -1.
         -1    1    6    6    0  503 -0.24958088516E+03 -0.17283199569E+02  0.22333277538E+03  0.33536078451E+03  0.00000000000E+00 0.  1.
<mgrwt>
<rscale>  0 0.12208785E+04</rscale>
<asrwt>0</asrwt>
<pdfrwt beam="1">  1        1 0.20685444E+00 0.12208785E+04</pdfrwt>
<pdfrwt beam="2">  1       -1 0.19193144E+00 0.12208785E+04</pdfrwt>
<totfact> 0.14076523E+00</totfact>
</mgrwt>
</event>
<event>
12    1  0.1453045E-007  0.1757001E+04  0.7818608E-02  0.8729506E-01
         -1   -1    0    0    0  501 -0.00000000000E+00  0.00000000000E+00  0.17700397310E+04  0.17700397310E+04  0.00000000000E+00 0.  1.
          1   -1    0    0  501    0  0.00000000000E+00 -0.00000000000E+00 -0.17657608376E+04  0.17657608376E+04  0.00000000000E+00 0. -1.
         23    2    1    2    0    0  0.15900022241E+04  0.62255413900E+03  0.16914286525E+03  0.17184098996E+04  0.92965292022E+02 0.  0.
    5000000    2    1    2    0    0 -0.15900022241E+04 -0.62255413900E+03 -0.16486397191E+03  0.18173906690E+04  0.60003998704E+03 0.  0.
         23    2    4    4    0    0 -0.11882574697E+04 -0.18727544015E+03 -0.16695833456E+03  0.12178503509E+04  0.90865212827E+02 0.  0.
         23    2    4    4    0    0 -0.40174475435E+03 -0.43527869885E+03  0.20943626452E+01  0.59954031810E+03  0.92616485326E+02 0.  0.
          4    1    3    3  502    0  0.74286660656E+03  0.24637597671E+03  0.56623629387E+02  0.78470258853E+03  0.00000000000E+00 0. -1.
         -4    1    3    3    0  502  0.84713561752E+03  0.37617816229E+03  0.11251923587E+03  0.93370731104E+03  0.00000000000E+00 0.  1.
         13    1    5    5    0    0 -0.87443283449E+03 -0.17779611613E+03 -0.11822638028E+03  0.90012316821E+03  0.00000000000E+00 0.  1.
        -13    1    5    5    0    0 -0.31382463523E+03 -0.94793240171E+01 -0.48731954277E+02  0.31772718271E+03  0.00000000000E+00 0. -1.
          3    1    6    6  503    0 -0.48276454310E+02 -0.99617491430E+02  0.16242568337E+02  0.11188423332E+03  0.00000000000E+00 0. -1.
         -3    1    6    6    0  503 -0.35346830004E+03 -0.33566120742E+03 -0.14148205692E+02  0.48765608478E+03  0.00000000000E+00 0.  1.
<mgrwt>
<rscale>  0 0.17570012E+04</rscale>
<asrwt>0</asrwt>
<pdfrwt beam="1">  1        1 0.27165551E+00 0.17570012E+04</pdfrwt>
<pdfrwt beam="2">  1       -1 0.27231380E+00 0.17570012E+04</pdfrwt>
<totfact> 0.19691225E-01</totfact>
</mgrwt>
</event>
<event>
12    1  0.1335216E-007  0.1024939E+04  0.7818608E-02  0.9281607E-01
          2   -1    0    0  501    0  0.00000000000E+00  0.00000000000E+00  0.21523743835E+04  0.21523743835E+04  0.00000000000E+00 0. -1.
         -2   -1    0    0    0  501 -0.00000000000E+00 -0.00000000000E+00 -0.50369519816E+03  0.50369519816E+03  0.00000000000E+00 0.  1.
         23    2    1    2    0    0 -0.38528059902E+03 -0.85965156160E+03  0.93112356307E+03  0.13285386445E+04  0.10286832830E+03 0.  0.
    5000000    2    1    2    0    0  0.38528059902E+03  0.85965156160E+03  0.71755562232E+03  0.13275309372E+04  0.60000864217E+03 0.  0.
         23    2    4    4    0    0 -0.44015564268E+02  0.59155539097E+03  0.35151661170E+03  0.69620551304E+03  0.96244675664E+02 0.  0.
         23    2    4    4    0    0  0.42929616329E+03  0.26809617062E+03  0.36603901061E+03  0.63132542413E+03  0.91741382926E+02 0.  0.
          4    1    3    3  502    0 -0.35110459473E+03 -0.70151956695E+03  0.79806153955E+03  0.11190649490E+04  0.00000000000E+00 0.  1.
         -4    1    3    3    0  502 -0.34176004296E+02 -0.15813199465E+03  0.13306202352E+03  0.20947369550E+03  0.00000000000E+00 0. -1.
         13    1    5    5    0    0 -0.53821396946E+01  0.14096267934E+03  0.13322840895E+03  0.19403415510E+03  0.00000000000E+00 0. -1.
        -13    1    5    5    0    0 -0.38633424573E+02  0.45059271163E+03  0.21828820275E+03  0.50217135794E+03  0.00000000000E+00 0.  1.
          3    1    6    6  503    0  0.39137516220E+03  0.26416368585E+03  0.35750993230E+03  0.59225866156E+03  0.00000000000E+00 0. -1.
         -3    1    6    6    0  503  0.37921001094E+02  0.39324847798E+01  0.85290783144E+01  0.39066762566E+02  0.00000000000E+00 0.  1.
<mgrwt>
<rscale>  0 0.10249394E+04</rscale>
<asrwt>0</asrwt>
<pdfrwt beam="1">  1        2 0.33113452E+00 0.10249394E+04</pdfrwt>
<pdfrwt beam="2">  1       -2 0.77491570E-01 0.10249394E+04</pdfrwt>
<totfact> 0.81670300E+00</totfact>
</mgrwt>
</event>
<event>
12    1  0.1335216E-007  0.4507236E+03  0.7818608E-02  0.1027506E+00
         -2   -1    0    0    0  501 -0.00000000000E+00  0.00000000000E+00  0.23296752216E+03  0.23296752216E+03  0.00000000000E+00 0.  1.
          2   -1    0    0  501    0  0.00000000000E+00 -0.00000000000E+00 -0.15266872456E+04  0.15266872456E+04  0.00000000000E+00 0. -1.
         23    2    1    2    0    0  0.16298421401E+03  0.34140318299E+03 -0.16323499116E+03  0.42500257281E+03  0.10421869884E+03 0.  0.
    5000000    2    1    2    0    0 -0.16298421401E+03 -0.34140318299E+03 -0.11304847323E+04  0.13346521949E+04  0.60015061789E+03 0.  0.
         23    2    4    4    0    0  0.25116804813E+02  0.36427713347E+02 -0.75670861238E+03  0.76316651280E+03  0.88641807497E+02 0.  0.
         23    2    4    4    0    0 -0.18810101882E+03 -0.37783089633E+03 -0.37377611988E+03  0.57148568211E+03  0.93536717700E+02 0.  0.
          3    1    3    3  502    0  0.11979655000E+02  0.32632464109E+02 -0.54229046459E+02  0.64414123666E+02  0.00000000000E+00 0. -1.
         -3    1    3    3    0  502  0.15100455901E+03  0.30877071888E+03 -0.10900594470E+03  0.36058844914E+03  0.00000000000E+00 0.  1.
         13    1    5    5    0    0  0.34388773657E+02 -0.21388178247E+02 -0.31687488662E+03  0.31945224321E+03  0.00000000000E+00 0. -1.
        -13    1    5    5    0    0 -0.92719688434E+01  0.57815891593E+02 -0.43983372576E+03  0.44371426959E+03  0.00000000000E+00 0.  1.
          1    1    6    6  503    0 -0.92783744160E+02 -0.14284205081E+03 -0.20656551179E+03  0.26773491614E+03  0.00000000000E+00 0. -1.
         -1    1    6    6    0  503 -0.95317274664E+02 -0.23498884552E+03 -0.16721060810E+03  0.30375076597E+03  0.00000000000E+00 0.  1.
<mgrwt>
<rscale>  0 0.45072358E+03</rscale>
<asrwt>0</asrwt>
<pdfrwt beam="1">  1        2 0.23487497E+00 0.45072358E+03</pdfrwt>
<pdfrwt beam="2">  1       -2 0.35841156E-01 0.45072358E+03</pdfrwt>
<totfact> 0.94764905E+01</totfact>
</mgrwt>
</event>
<event>
12    1  0.1335216E-007  0.8512646E+03  0.7818608E-02  0.9488641E-01
          2   -1    0    0  501    0  0.00000000000E+00  0.00000000000E+00  0.20807152221E+04  0.20807152221E+04  0.00000000000E+00 0. -1.
         -2   -1    0    0    0  501 -0.00000000000E+00 -0.00000000000E+00 -0.37169482505E+03  0.37169482505E+03  0.00000000000E+00 0.  1.
         23    2    1    2    0    0  0.74450809702E+03 -0.20828426058E+03  0.80959618452E+03  0.11232412351E+04  0.92467564965E+02 0.  0.
    5000000    2    1    2    0    0 -0.74450809702E+03  0.20828426058E+03  0.89942421250E+03  0.13291688120E+04  0.60004264600E+03 0.  0.
         23    2    4    4    0    0 -0.27578490890E+03 -0.15968380345E+03  0.14483062742E+03  0.36331867220E+03  0.97305261247E+02 0.  0.
         23    2    4    4    0    0 -0.46872318812E+03  0.36796806404E+03  0.75459358508E+03  0.96585013979E+03  0.91395244244E+02 0.  0.
          3    1    3    3  502    0  0.30785661971E+03 -0.45841213611E+02  0.29080402101E+03  0.42596254976E+03  0.00000000000E+00 0. -1.
         -3    1    3    3    0  502  0.43665147731E+03 -0.16244304697E+03  0.51879216352E+03  0.69727868537E+03  0.00000000000E+00 0.  1.
         11    1    5    5    0    0 -0.21204661075E+03 -0.89225702818E+02  0.13752911802E+03  0.26802844901E+03  0.00000000000E+00 0. -1.
        -11    1    5    5    0    0 -0.63738298157E+02 -0.70458100633E+02  0.73015093962E+01  0.95290223193E+02  0.00000000000E+00 0.  1.
          1    1    6    6  503    0 -0.71764438563E+02  0.92839885407E+02  0.11417632400E+03  0.16372419469E+03  0.00000000000E+00 0. -1.
         -1    1    6    6    0  503 -0.39695874955E+03  0.27512817863E+03  0.64041726108E+03  0.80212594510E+03  0.00000000000E+00 0.  1.
<mgrwt>
<rscale>  0 0.85126456E+03</rscale>
<asrwt>0</asrwt>
<pdfrwt beam="1">  1        2 0.32011003E+00 0.85126456E+03</pdfrwt>
<pdfrwt beam="2">  1       -2 0.57183820E-01 0.85126456E+03</pdfrwt>
<totfact> 0.17646909E+01</totfact>
</mgrwt>
</event>
<event>
12    1  0.1335216E-007  0.4693963E+03  0.7818608E-02  0.1022091E+00
         -2   -1    0    0    0  501 -0.00000000000E+00  0.00000000000E+00  0.25442218579E+03  0.25442218579E+03  0.00000000000E+00 0.  1.
          2   -1    0    0  501    0  0.00000000000E+00 -0.00000000000E+00 -0.13056792582E+04  0.13056792582E+04  0.00000000000E+00 0. -1.
         23    2    1    2    0    0 -0.32789922081E+03 -0.22155407492E+03 -0.54839045928E+03  0.68246955952E+03  0.91806844573E+02 0.  0.
    5000000    2    1    2    0    0  0.32789922081E+03  0.22155407492E+03 -0.50286661318E+03  0.87763188452E+03  0.60063198961E+03 0.  0.
         23    2    4    4    0    0  0.24981904862E+03  0.29178452290E+03 -0.59205240759E+03  0.71150614323E+03  0.90372416507E+02 0.  0.
         23    2    4    4    0    0  0.78080172196E+02 -0.70230447984E+02  0.89185794408E+02  0.16612574129E+03  0.92816091704E+02 0.  0.
          3    1    3    3  502    0 -0.54546281530E+02 -0.82843412203E+02 -0.14927883447E+03  0.17922750401E+03  0.00000000000E+00 0. -1.
         -3    1    3    3    0  502 -0.27335293928E+03 -0.13871066272E+03 -0.39911162481E+03  0.50324205550E+03  0.00000000000E+00 0.  1.
         11    1    5    5    0    0  0.77911637274E+02  0.15407730784E+03 -0.29310828271E+03  0.34018010731E+03  0.00000000000E+00 0.  1.
        -11    1    5    5    0    0  0.17190741134E+03  0.13770721506E+03 -0.29894412488E+03  0.37132603592E+03  0.00000000000E+00 0. -1.
          2    1    6    6  503    0  0.45624285163E+02  0.15737824536E+02  0.30228853391E+02  0.56947678575E+02  0.00000000000E+00 0. -1.
         -2    1    6    6    0  503  0.32455887033E+02 -0.85968272519E+02  0.58956941017E+02  0.10917806271E+03  0.00000000000E+00 0.  1.
<mgrwt>
<rscale>  0 0.46939629E+03</rscale>
<asrwt>0</asrwt>
<pdfrwt beam="1">  1        2 0.20087373E+00 0.46939629E+03</pdfrwt>
<pdfrwt beam="2">  1       -2 0.39141875E-01 0.46939629E+03</pdfrwt>
<totfact> 0.10590403E+02</totfact>
</mgrwt>
</event>
<event>
12    1  0.1335216E-007  0.4795131E+03  0.7818608E-02  0.1019269E+00
         -2   -1    0    0    0  501 -0.00000000000E+00  0.00000000000E+00  0.12326492329E+03  0.12326492329E+03  0.00000000000E+00 0. -1.
          2   -1    0    0  501    0  0.00000000000E+00 -0.00000000000E+00 -0.26135236125E+04  0.26135236125E+04  0.00000000000E+00 0.  1.
         23    2    1    2    0    0  0.50142235865E+02 -0.39153990561E+03 -0.11002722843E+04  0.11722435699E+04  0.87966733668E+02 0.  0.
    5000000    2    1    2    0    0 -0.50142235865E+02  0.39153990561E+03 -0.13899864049E+04  0.15645449659E+04  0.59993416535E+03 0.  0.
         23    2    4    4    0    0 -0.20237245776E+03  0.15516640307E+03 -0.18699764681E+03  0.32589538747E+03  0.78793777417E+02 0.  0.
         23    2    4    4    0    0  0.15223022190E+03  0.23637350253E+03 -0.12029887581E+04  0.12386495784E+04  0.89578751231E+02 0.  0.
          4    1    3    3  502    0  0.75092516615E+02 -0.27085835035E+03 -0.77747384274E+03  0.82672166304E+03  0.00000000000E+00 0. -1.
         -4    1    3    3    0  502 -0.24950280750E+02 -0.12068155526E+03 -0.32279844152E+03  0.34552190688E+03  0.00000000000E+00 0.  1.
         13    1    5    5    0    0 -0.18659861411E+03  0.15795329460E+03 -0.15324523982E+03  0.28853490186E+03  0.00000000000E+00 0. -1.
        -13    1    5    5    0    0 -0.15773843649E+02 -0.27868915228E+01 -0.33752406985E+02  0.37360485611E+02  0.00000000000E+00 0.  1.
          1    1    6    6  503    0  0.13888140224E+03  0.24256426005E+03 -0.11604727005E+04  0.11936592281E+04  0.00000000000E+00 0. -1.
         -1    1    6    6    0  503  0.13348819658E+02 -0.61907575141E+01 -0.42516057610E+02  0.44990350294E+02  0.00000000000E+00 0.  1.
<mgrwt>
<rscale>  0 0.47951310E+03</rscale>
<asrwt>0</asrwt>
<pdfrwt beam="1">  1        2 0.40208053E+00 0.47951310E+03</pdfrwt>
<pdfrwt beam="2">  1       -2 0.18963835E-01 0.47951310E+03</pdfrwt>
<totfact> 0.76151876E+01</totfact>
</mgrwt>
</event>
<event>
12    1  0.1335216E-007  0.7011512E+03  0.7818608E-02  0.9715265E-01
          1   -1    0    0  501    0  0.00000000000E+00  0.00000000000E+00  0.87872866629E+03  0.87872866629E+03  0.00000000000E+00 0. -1.
         -1   -1    0    0    0  501 -0.00000000000E+00 -0.00000000000E+00 -0.79501730252E+03  0.79501730252E+03  0.00000000000E+00 0.  1.
         23    2    1    2    0    0 -0.41205248554E+03  0.42556105920E+03 -0.38190897756E+03  0.71067503031E+03  0.91186981640E+02 0.  0.
    5000000    2    1    2    0    0  0.41205248554E+03 -0.42556105920E+03  0.46562034133E+03  0.96307093850E+03  0.59984486693E+03 0.  0.
         23    2    4    4    0    0  0.13866892397E+03 -0.48589797721E+03  0.15904183887E+03  0.53772168753E+03  0.92327634016E+02 0.  0.
         23    2    4    4    0    0  0.27338356157E+03  0.60336918008E+02  0.30657850247E+03  0.42534925097E+03  0.92479682716E+02 0.  0.
          3    1    3    3  502    0 -0.29283536194E+03  0.35607893500E+03 -0.28398636759E+03  0.54147300407E+03  0.00000000000E+00 0.  1.
         -3    1    3    3    0  502 -0.11921712360E+03  0.69482124196E+02 -0.97922609968E+02  0.16920202624E+03  0.00000000000E+00 0. -1.
         11    1    5    5    0    0  0.11352245886E+03 -0.29543517520E+03  0.62088728471E+02  0.32252798579E+03  0.00000000000E+00 0.  1.
        -11    1    5    5    0    0  0.25146465107E+02 -0.19046280200E+03  0.96953110396E+02  0.21519370174E+03  0.00000000000E+00 0. -1.
          2    1    6    6  503    0 -0.55042288208E+00  0.17389528537E+02  0.14908429626E+02  0.22912004321E+02  0.00000000000E+00 0. -1.
         -2    1    6    6    0  503  0.27393398445E+03  0.42947389471E+02  0.29167007284E+03  0.40243724665E+03  0.00000000000E+00 0.  1.
<mgrwt>
<rscale>  0 0.70115123E+03</rscale>
<asrwt>0</asrwt>
<pdfrwt beam="1">  1        1 0.13518902E+00 0.70115123E+03</pdfrwt>
<pdfrwt beam="2">  1       -1 0.12231036E+00 0.70115123E+03</pdfrwt>
<totfact> 0.11614384E+01</totfact>
</mgrwt>
</event>
<event>
12    1  0.1335216E-007  0.5470883E+03  0.7818608E-02  0.1002170E+00
         -2   -1    0    0    0  501 -0.00000000000E+00  0.00000000000E+00  0.78571696025E+03  0.78571696025E+03  0.00000000000E+00 0. -1.
          2   -1    0    0  501    0  0.00000000000E+00 -0.00000000000E+00 -0.60207992143E+03  0.60207992143E+03  0.00000000000E+00 0.  1.
         23    2    1    2    0    0 -0.50658385050E+03 -0.17049912336E+03  0.21729727004E+03  0.58373561232E+03  0.88498660239E+02 0.  0.
    5000000    2    1    2    0    0  0.50658385050E+03  0.17049912336E+03 -0.33660231222E+02  0.80406126936E+03  0.59973691320E+03 0.  0.
         23    2    4    4    0    0  0.16087641527E+03  0.22760079571E+02 -0.28664341396E+03  0.34156895371E+03  0.90031445387E+02 0.  0.
         23    2    4    4    0    0  0.34570743523E+03  0.14773904379E+03  0.25298318274E+03  0.46249231565E+03  0.92510515351E+02 0.  0.
          1    1    3    3  502    0 -0.23870841156E+03 -0.49220757384E+02  0.13389166281E+03  0.27808517774E+03  0.00000000000E+00 0. -1.
         -1    1    3    3    0  502 -0.26787543894E+03 -0.12127836598E+03  0.83405607237E+02  0.30565043458E+03  0.00000000000E+00 0.  1.
         13    1    5    5    0    0  0.70528961641E+02 -0.15573181574E+02 -0.19236899514E+03  0.20548160187E+03  0.00000000000E+00 0.  1.
        -13    1    5    5    0    0  0.90347453630E+02  0.38333261145E+02 -0.94274418819E+02  0.13608735184E+03  0.00000000000E+00 0. -1.
          1    1    6    6  503    0  0.23140823700E+03  0.52599330128E+02  0.17263275372E+03  0.29345958724E+03  0.00000000000E+00 0. -1.
         -1    1    6    6    0  503  0.11429919823E+03  0.95139713662E+02  0.80350429015E+02  0.16903272841E+03  0.00000000000E+00 0.  1.
<mgrwt>
<rscale>  0 0.54708835E+03</rscale>
<asrwt>0</asrwt>
<pdfrwt beam="1">  1        2 0.92627680E-01 0.54708835E+03</pdfrwt>
<pdfrwt beam="2">  1       -2 0.12087953E+00 0.54708835E+03</pdfrwt>
<totfact> 0.26611734E+01</totfact>
</mgrwt>
</event>
<event>
12    1  0.1335216E-007  0.9800507E+03  0.7818608E-02  0.9330699E-01
         -2   -1    0    0    0  501 -0.00000000000E+00  0.00000000000E+00  0.59899887844E+03  0.59899887844E+03  0.00000000000E+00 0.  1.
          2   -1    0    0  501    0  0.00000000000E+00 -0.00000000000E+00 -0.21693801391E+04  0.21693801391E+04  0.00000000000E+00 0. -1.
         23    2    1    2    0    0 -0.70444549512E+03  0.62056681121E+03 -0.13264290314E+04  0.16275688504E+04  0.90662917249E+02 0.  0.
    5000000    2    1    2    0    0  0.70444549512E+03 -0.62056681121E+03 -0.24395222925E+03  0.11408101672E+04  0.60049023689E+03 0.  0.
         23    2    4    4    0    0  0.60668114838E+03 -0.31337433457E+03  0.56134591995E+02  0.69110881691E+03  0.90635616733E+02 0.  0.
         23    2    4    4    0    0  0.97764346740E+02 -0.30719247664E+03 -0.30008682125E+03  0.44970135027E+03  0.90852181858E+02 0.  0.
          1    1    3    3  502    0 -0.36652789113E+03  0.26277628586E+03 -0.62724158570E+03  0.77254519493E+03  0.00000000000E+00 0. -1.
         -1    1    3    3    0  502 -0.33791760399E+03  0.35779052536E+03 -0.69918744575E+03  0.85502365547E+03  0.00000000000E+00 0.  1.
         13    1    5    5    0    0  0.30189478655E+03 -0.17072788246E+03  0.71994047683E+02  0.35421972686E+03  0.00000000000E+00 0.  1.
        -13    1    5    5    0    0  0.30478636184E+03 -0.14264645211E+03 -0.15859455687E+02  0.33688909005E+03  0.00000000000E+00 0. -1.
          4    1    6    6  503    0  0.92392539949E+02 -0.14885131430E+03 -0.13771911042E+03  0.22284444930E+03  0.00000000000E+00 0.  1.
         -4    1    6    6    0  503  0.53718067915E+01 -0.15834116235E+03 -0.16236771082E+03  0.22685690097E+03  0.00000000000E+00 0. -1.
<mgrwt>
<rscale>  0 0.98005074E+03</rscale>
<asrwt>0</asrwt>
<pdfrwt beam="1">  1        2 0.33375079E+00 0.98005074E+03</pdfrwt>
<pdfrwt beam="2">  1       -2 0.92153673E-01 0.98005074E+03</pdfrwt>
<totfact> 0.54079786E+00</totfact>
</mgrwt>
</event>
<event>
12    1  0.1335216E-007  0.1359541E+04  0.7818608E-02  0.8983637E-01
         -1   -1    0    0    0  501 -0.00000000000E+00  0.00000000000E+00  0.11390980338E+04  0.11390980338E+04  0.00000000000E+00 0.  1.
          1   -1    0    0  501    0  0.00000000000E+00 -0.00000000000E+00 -0.22257558112E+04  0.22257558112E+04  0.00000000000E+00 0. -1.
         23    2    1    2    0    0 -0.57089317208E+02 -0.13423001552E+04 -0.13075247787E+04  0.18769315521E+04  0.90675838670E+02 0.  0.
    5000000    2    1    2    0    0  0.57089317208E+02  0.13423001552E+04  0.22086700125E+03  0.14879222929E+04  0.60008467801E+03 0.  0.
         23    2    4    4    0    0 -0.11109959481E+03  0.35351836874E+03 -0.15646603394E+03  0.41224856656E+03  0.90271279211E+02 0.  0.
         23    2    4    4    0    0  0.16818891202E+03  0.98878178645E+03  0.37733303518E+03  0.10756737264E+04  0.93363883868E+02 0.  0.
          1    1    3    3  502    0 -0.55878597567E+01 -0.64075506381E+03 -0.67884747708E+03  0.93350531499E+03  0.00000000000E+00 0. -1.
         -1    1    3    3    0  502 -0.51501457451E+02 -0.70154509137E+03 -0.62867730158E+03  0.94342623711E+03  0.00000000000E+00 0.  1.
         13    1    5    5    0    0 -0.50477073582E+02  0.20631391350E+03 -0.13484573834E+03  0.25158843179E+03  0.00000000000E+00 0.  1.
        -13    1    5    5    0    0 -0.60622521230E+02  0.14720445524E+03 -0.21620295596E+02  0.16066013477E+03  0.00000000000E+00 0. -1.
          1    1    6    6  503    0  0.95614589257E+02  0.63095206476E+03  0.19322804654E+03  0.66676812736E+03  0.00000000000E+00 0. -1.
         -1    1    6    6    0  503  0.72574322763E+02  0.35782972169E+03  0.18410498864E+03  0.40890559900E+03  0.00000000000E+00 0.  1.
<mgrwt>
<rscale>  0 0.13595406E+04</rscale>
<asrwt>0</asrwt>
<pdfrwt beam="1">  1        1 0.34242397E+00 0.13595406E+04</pdfrwt>
<pdfrwt beam="2">  1       -1 0.17524585E+00 0.13595406E+04</pdfrwt>
<totfact> 0.45380378E-01</totfact>
</mgrwt>
</event>
<event>
12    1  0.1335216E-007  0.7330133E+03  0.7818608E-02  0.9662383E-01
          1   -1    0    0  501    0  0.00000000000E+00  0.00000000000E+00  0.24095820682E+04  0.24095820682E+04  0.00000000000E+00 0. -1.
         -1   -1    0    0    0  501 -0.00000000000E+00 -0.00000000000E+00 -0.31940328627E+03  0.31940328627E+03  0.00000000000E+00 0.  1.
         23    2    1    2    0    0  0.60724575535E+02  0.66955176144E+03  0.15157095590E+04  0.16603377625E+04  0.85784515061E+02 0.  0.
    5000000    2    1    2    0    0 -0.60724575535E+02 -0.66955176144E+03  0.57446922295E+03  0.10686475920E+04  0.60000479368E+03 0.  0.
         23    2    4    4    0    0 -0.22604371738E+03 -0.35353790535E+03  0.56813830003E+02  0.43347809690E+03  0.92685686757E+02 0.  0.
         23    2    4    4    0    0  0.16531914185E+03 -0.31601385609E+03  0.51765539295E+03  0.63516949509E+03  0.90983546541E+02 0.  0.
          1    1    3    3  502    0  0.71277688665E+02  0.40075298138E+03  0.85424516537E+03  0.94626542976E+03  0.00000000000E+00 0. -1.
         -1    1    3    3    0  502 -0.10553113130E+02  0.26879878005E+03  0.66146439358E+03  0.71407233270E+03  0.00000000000E+00 0.  1.
         11    1    5    5    0    0 -0.11734596043E+03 -0.13991105642E+03 -0.15105074642E+02  0.18323029612E+03  0.00000000000E+00 0. -1.
        -11    1    5    5    0    0 -0.10869775695E+03 -0.21362684893E+03  0.71918904645E+02  0.25024780078E+03  0.00000000000E+00 0.  1.
          4    1    6    6  503    0  0.16251258366E+03 -0.22999747943E+03  0.38388498234E+03  0.47610593366E+03  0.00000000000E+00 0. -1.
         -4    1    6    6    0  503  0.28065581847E+01 -0.86016376662E+02  0.13377041061E+03  0.15906356144E+03  0.00000000000E+00 0.  1.
<mgrwt>
<rscale>  0 0.73301326E+03</rscale>
<asrwt>0</asrwt>
<pdfrwt beam="1">  1        1 0.37070492E+00 0.73301326E+03</pdfrwt>
<pdfrwt beam="2">  1       -1 0.49138969E-01 0.73301326E+03</pdfrwt>
<totfact> 0.68687003E+00</totfact>
</mgrwt>
</event>
<event>
12    1  0.1335216E-007  0.7307489E+03  0.7818608E-02  0.9666046E-01
          1   -1    0    0  501    0  0.00000000000E+00  0.00000000000E+00  0.14697478676E+04  0.14697478676E+04  0.00000000000E+00 0.  1.
         -1   -1    0    0    0  501 -0.00000000000E+00 -0.00000000000E+00 -0.68713027012E+03  0.68713027012E+03  0.00000000000E+00 0. -1.
         23    2    1    2    0    0 -0.21547461514E+03 -0.64348088837E+03  0.10117776654E+04  0.12217528392E+04  0.92135728053E+02 0.  0.
    5000000    2    1    2    0    0  0.21547461514E+03  0.64348088837E+03 -0.22916006785E+03  0.93512529861E+03  0.60120547564E+03 0.  0.
         23    2    4    4    0    0 -0.21877102903E+02  0.47276548950E+03 -0.36393846239E+03  0.60248421704E+03  0.80933377982E+02 0.  0.
         23    2    4    4    0    0  0.23735171805E+03  0.17071539886E+03  0.13477839455E+03  0.33264108157E+03  0.83697598812E+02 0.  0.
          1    1    3    3  502    0 -0.11306323546E+03 -0.32820570311E+03  0.43534884193E+03  0.55680417827E+03  0.00000000000E+00 0. -1.
         -1    1    3    3    0  502 -0.10241137969E+03 -0.31527518525E+03  0.57642882343E+03  0.66494866088E+03  0.00000000000E+00 0.  1.
         13    1    5    5    0    0  0.27444323235E+02  0.10393552189E+03 -0.69977584149E+02  0.12826786765E+03  0.00000000000E+00 0. -1.
        -13    1    5    5    0    0 -0.49321426138E+02  0.36882996761E+03 -0.29396087824E+03  0.47421634938E+03  0.00000000000E+00 0.  1.
          3    1    6    6  503    0  0.23173256033E+03  0.17930129998E+03  0.13444858944E+03  0.32237456304E+03  0.00000000000E+00 0. -1.
         -3    1    6    6    0  503  0.56191577121E+01 -0.85859011170E+01  0.32980510251E+00  0.10266518533E+02  0.00000000000E+00 0.  1.
<mgrwt>
<rscale>  0 0.73074889E+03</rscale>
<asrwt>0</asrwt>
<pdfrwt beam="1">  1        1 0.22611506E+00 0.73074889E+03</pdfrwt>
<pdfrwt beam="2">  1       -1 0.10571235E+00 0.73074889E+03</pdfrwt>
<totfact> 0.60064996E+00</totfact>
</mgrwt>
</event>
<event>
12    1  0.1335216E-007  0.6969603E+03  0.7818608E-02  0.9722445E-01
          2   -1    0    0  501    0  0.00000000000E+00  0.00000000000E+00  0.45999470376E+03  0.45999470376E+03  0.00000000000E+00 0. -1.
         -2   -1    0    0    0  501 -0.00000000000E+00 -0.00000000000E+00 -0.13035960249E+04  0.13035960249E+04  0.00000000000E+00 0.  1.
         23    2    1    2    0    0  0.40558223290E+03 -0.45610539902E+03 -0.90810730152E+02  0.62375589954E+03  0.91081012525E+02 0.  0.
    5000000    2    1    2    0    0 -0.40558223290E+03  0.45610539902E+03 -0.75279059099E+03  0.11398348291E+04  0.60000056761E+03 0.  0.
         23    2    4    4    0    0 -0.20231193380E+03 -0.64901325088E+02 -0.48644892301E+02  0.23605921102E+03  0.90638430071E+02 0.  0.
         23    2    4    4    0    0 -0.20327029910E+03  0.52100672411E+03 -0.70414569869E+03  0.90377561810E+03  0.90677350126E+02 0.  0.
          2    1    3    3  502    0  0.11244273653E+03 -0.19089544927E+03 -0.24046481750E+02  0.22285123925E+03  0.00000000000E+00 0. -1.
         -2    1    3    3    0  502  0.29313949638E+03 -0.26520994975E+03 -0.66764248402E+02  0.40090466030E+03  0.00000000000E+00 0.  1.
         13    1    5    5    0    0 -0.46764302563E+02 -0.30280580397E+02  0.24327639661E+02  0.60791838225E+02  0.00000000000E+00 0.  1.
        -13    1    5    5    0    0 -0.15554763124E+03 -0.34620744691E+02 -0.72972531962E+02  0.17526737280E+03  0.00000000000E+00 0. -1.
          2    1    6    6  503    0 -0.51182225920E+02  0.20507197905E+03 -0.32168740388E+03  0.38491157771E+03  0.00000000000E+00 0. -1.
         -2    1    6    6    0  503 -0.15208807318E+03  0.31593474506E+03 -0.38245829482E+03  0.51886404040E+03  0.00000000000E+00 0.  1.
<mgrwt>
<rscale>  0 0.69696033E+03</rscale>
<asrwt>0</asrwt>
<pdfrwt beam="1">  1        2 0.70768415E-01 0.69696033E+03</pdfrwt>
<pdfrwt beam="2">  1       -2 0.20055324E+00 0.69696033E+03</pdfrwt>
<totfact> 0.91698505E+00</totfact>
</mgrwt>
</event>
<event>
12    1  0.1335216E-007  0.4086919E+03  0.7818608E-02  0.1040811E+00
          2   -1    0    0  501    0  0.00000000000E+00  0.00000000000E+00  0.93759072913E+03  0.93759072913E+03  0.00000000000E+00 0. -1.
         -2   -1    0    0    0  501 -0.00000000000E+00 -0.00000000000E+00 -0.32948429292E+03  0.32948429292E+03  0.00000000000E+00 0.  1.
         23    2    1    2    0    0  0.19265573052E+03  0.33675809851E+03  0.24503687448E+03  0.46566815187E+03  0.79255980201E+02 0.  0.
    5000000    2    1    2    0    0 -0.19265573052E+03 -0.33675809851E+03  0.36306956173E+03  0.80140687018E+03  0.59992601002E+03 0.  0.
         23    2    4    4    0    0 -0.14831323674E+03 -0.13950223942E+03  0.49610613424E+03  0.54331956025E+03  0.87276326302E+02 0.  0.
         23    2    4    4    0    0 -0.44342493782E+02 -0.19725585909E+03 -0.13303657250E+03  0.25808730992E+03  0.89633694669E+02 0.  0.
          1    1    3    3  502    0  0.14169037548E+03  0.16911521240E+03  0.14269433332E+03  0.26275043355E+03  0.00000000000E+00 0. -1.
         -1    1    3    3    0  502  0.50965355038E+02  0.16764288611E+03  0.10234254116E+03  0.20291771832E+03  0.00000000000E+00 0.  1.
         11    1    5    5    0    0 -0.75918763249E+02 -0.69561383906E+02  0.35739756886E+03  0.37193476172E+03  0.00000000000E+00 0. -1.
        -11    1    5    5    0    0 -0.72394473489E+02 -0.69940855513E+02  0.13870856537E+03  0.17138479854E+03  0.00000000000E+00 0.  1.
          2    1    6    6  503    0 -0.10569689485E+02 -0.17939127388E+03 -0.91517436412E+02  0.20166404897E+03  0.00000000000E+00 0.  1.
         -2    1    6    6    0  503 -0.33772804297E+02 -0.17864585211E+02 -0.41519136092E+02  0.56423260954E+02  0.00000000000E+00 0. -1.
<mgrwt>
<rscale>  0 0.40869189E+03</rscale>
<asrwt>0</asrwt>
<pdfrwt beam="1">  1        2 0.14424473E+00 0.40869189E+03</pdfrwt>
<pdfrwt beam="2">  1       -2 0.50689891E-01 0.40869189E+03</pdfrwt>
<totfact> 0.10645889E+02</totfact>
</mgrwt>
</event>
<event>
12    1  0.1335216E-007  0.3330992E+03  0.7818608E-02  0.1069774E+00
          1   -1    0    0  501    0  0.00000000000E+00  0.00000000000E+00  0.12400932454E+04  0.12400932454E+04  0.00000000000E+00 0. -1.
         -1   -1    0    0    0  501 -0.00000000000E+00 -0.00000000000E+00 -0.17434905977E+03  0.17434905977E+03  0.00000000000E+00 0.  1.
         23    2    1    2    0    0  0.12234517546E+03 -0.21856970308E+03  0.42901100097E+03  0.50449426929E+03  0.87880439970E+02 0.  0.
    5000000    2    1    2    0    0 -0.12234517546E+03  0.21856970308E+03  0.63673318465E+03  0.90994803587E+03  0.59986266970E+03 0.  0.
         23    2    4    4    0    0 -0.18589555186E+03  0.47766462578E+02 -0.29864319652E+02  0.21327697426E+03  0.88070420772E+02 0.  0.
         23    2    4    4    0    0  0.63550376398E+02  0.17080324050E+03  0.66659750430E+03  0.69667106161E+03  0.88237962564E+02 0.  0.
          2    1    3    3  502    0  0.82145076761E+02 -0.68033920354E+02  0.21226810444E+03  0.23755878455E+03  0.00000000000E+00 0.  1.
         -2    1    3    3    0  502  0.40200098699E+02 -0.15053578272E+03  0.21674289653E+03  0.26693548474E+03  0.00000000000E+00 0. -1.
         13    1    5    5    0    0 -0.93469821316E+02  0.57943705510E+02  0.13277679887E+02  0.11077173506E+03  0.00000000000E+00 0.  1.
        -13    1    5    5    0    0 -0.92425730542E+02 -0.10177242932E+02 -0.43141999539E+02  0.10250523920E+03  0.00000000000E+00 0. -1.
          2    1    6    6  503    0  0.75035600418E+02  0.81699097657E+02  0.41265735175E+03  0.42730688485E+03  0.00000000000E+00 0. -1.
         -2    1    6    6    0  503 -0.11485224021E+02  0.89104142843E+02  0.25394015255E+03  0.26936417676E+03  0.00000000000E+00 0.  1.
<mgrwt>
<rscale>  0 0.33309919E+03</rscale>
<asrwt>0</asrwt>
<pdfrwt beam="1">  1        1 0.19078357E+00 0.33309919E+03</pdfrwt>
<pdfrwt beam="2">  1       -1 0.26822933E-01 0.33309919E+03</pdfrwt>
<totfact> 0.13250933E+02</totfact>
</mgrwt>
</event>
<event>
12    1  0.1335216E-007  0.1043435E+04  0.7818608E-02  0.9262148E-01
         -2   -1    0    0    0  501 -0.00000000000E+00  0.00000000000E+00  0.53032564757E+03  0.53032564757E+03  0.00000000000E+00 0.  1.
          2   -1    0    0  501    0  0.00000000000E+00 -0.00000000000E+00 -0.20714805103E+04  0.20714805103E+04  0.00000000000E+00 0. -1.
         23    2    1    2    0    0 -0.54094425423E+03  0.79182418406E+03 -0.76286022943E+03  0.12287165310E+04  0.90456393832E+02 0.  0.
    5000000    2    1    2    0    0  0.54094425423E+03 -0.79182418406E+03 -0.77829463332E+03  0.13730896269E+04  0.60002196846E+03 0.  0.
         23    2    4    4    0    0  0.39345425024E+03 -0.96923367355E+02 -0.29018086275E+03  0.50641558388E+03  0.89729729294E+02 0.  0.
         23    2    4    4    0    0  0.14749000399E+03 -0.69490081671E+03 -0.48811377057E+03  0.86667404303E+03  0.90710514894E+02 0.  0.
          4    1    3    3  502    0 -0.85571510244E+02  0.12567309600E+03 -0.80938713031E+02  0.17224193941E+03  0.00000000000E+00 0. -1.
         -4    1    3    3    0  502 -0.45537274399E+03  0.66615108806E+03 -0.68192151640E+03  0.10564745916E+04  0.00000000000E+00 0.  1.
         13    1    5    5    0    0  0.28739327376E+03 -0.10881099862E+03 -0.19962379498E+03  0.36644834117E+03  0.00000000000E+00 0.  1.
        -13    1    5    5    0    0  0.10606097648E+03  0.11887631267E+02 -0.90557067770E+02  0.13996724271E+03  0.00000000000E+00 0. -1.
          1    1    6    6  503    0  0.10174748973E+03 -0.30996917778E+03 -0.18887139372E+03  0.37696929080E+03  0.00000000000E+00 0. -1.
         -1    1    6    6    0  503  0.45742514259E+02 -0.38493163892E+03 -0.29924237685E+03  0.48970475223E+03  0.00000000000E+00 0.  1.
<mgrwt>
<rscale>  0 0.10434350E+04</rscale>
<asrwt>0</asrwt>
<pdfrwt beam="1">  1        2 0.31868931E+00 0.10434350E+04</pdfrwt>
<pdfrwt beam="2">  1       -2 0.81588561E-01 0.10434350E+04</pdfrwt>
<totfact> 0.80441917E+00</totfact>
</mgrwt>
</event>
<event>
12    1  0.1335216E-007  0.1267943E+04  0.7818608E-02  0.9055380E-01
          1   -1    0    0  501    0  0.00000000000E+00  0.00000000000E+00  0.16409777551E+04  0.16409777551E+04  0.00000000000E+00 0. -1.
         -1   -1    0    0    0  501 -0.00000000000E+00 -0.00000000000E+00 -0.13849760044E+04  0.13849760044E+04  0.00000000000E+00 0.  1.
         23    2    1    2    0    0  0.10492543595E+04  0.70609064560E+03 -0.58124598455E+03  0.13949556866E+04  0.92497362829E+02 0.  0.
    5000000    2    1    2    0    0 -0.10492543595E+04 -0.70609064560E+03  0.83724773533E+03  0.16309980730E+04  0.59972679858E+03 0.  0.
         23    2    4    4    0    0 -0.96828242305E+03 -0.63804108494E+03  0.90413353087E+03  0.14732313871E+04  0.91027475850E+02 0.  0.
         23    2    4    4    0    0 -0.80971936459E+02 -0.68049560662E+02 -0.66885795547E+02  0.15776668588E+03  0.96069872118E+02 0.  0.
          2    1    3    3  502    0  0.20150773555E+03  0.12922489629E+03 -0.71456575089E+02  0.24982090271E+03  0.00000000000E+00 0. -1.
         -2    1    3    3    0  502  0.84774662396E+03  0.57686574931E+03 -0.50978940946E+03  0.11451347838E+04  0.00000000000E+00 0.  1.
         13    1    5    5    0    0 -0.58352087334E+03 -0.33312218262E+03  0.53938404449E+03  0.86162761425E+03  0.00000000000E+00 0. -1.
        -13    1    5    5    0    0 -0.38476154972E+03 -0.30491890232E+03  0.36474948638E+03  0.61160377283E+03  0.00000000000E+00 0.  1.
          4    1    6    6  503    0 -0.90346404603E+01  0.27802750424E+00  0.22485603955E+02  0.24234364295E+02  0.00000000000E+00 0. -1.
         -4    1    6    6    0  503 -0.71937295999E+02 -0.68327588166E+02 -0.89371399502E+02  0.13353232159E+03  0.00000000000E+00 0.  1.
<mgrwt>
<rscale>  0 0.12679434E+04</rscale>
<asrwt>0</asrwt>
<pdfrwt beam="1">  1        1 0.25245812E+00 0.12679434E+04</pdfrwt>
<pdfrwt beam="2">  1       -1 0.21307323E+00 0.12679434E+04</pdfrwt>
<totfact> 0.62265429E-01</totfact>
</mgrwt>
</event>
<event>
12    1  0.1335216E-007  0.7669673E+03  0.7818608E-02  0.9609101E-01
          1   -1    0    0  501    0  0.00000000000E+00  0.00000000000E+00  0.13165195804E+04  0.13165195804E+04  0.00000000000E+00 0. -1.
         -1   -1    0    0    0  501 -0.00000000000E+00 -0.00000000000E+00 -0.51740358228E+03  0.51740358228E+03  0.00000000000E+00 0.  1.
         23    2    1    2    0    0 -0.55126941467E+03 -0.37121785833E+03  0.61108452456E+02  0.67356001537E+03  0.90819521291E+02 0.  0.
    5000000    2    1    2    0    0  0.55126941467E+03  0.37121785833E+03  0.73800754564E+03  0.11603631473E+04  0.60007235418E+03 0.  0.
         23    2    4    4    0    0  0.66223212097E+03  0.33517641306E+03  0.61247922156E+03  0.96668403259E+03  0.91938088387E+02 0.  0.
         23    2    4    4    0    0 -0.11096270629E+03  0.36041445271E+02  0.12552832407E+03  0.19367911469E+03  0.90235975963E+02 0.  0.
          3    1    3    3  502    0 -0.16806236572E+03 -0.15839603350E+03  0.42546054386E+02  0.23482850964E+03  0.00000000000E+00 0. -1.
         -3    1    3    3    0  502 -0.38320704896E+03 -0.21282182484E+03  0.18562398070E+02  0.43873150573E+03  0.00000000000E+00 0.  1.
         11    1    5    5    0    0  0.35451159094E+03  0.23037195865E+03  0.34203580545E+03  0.54381816783E+03  0.00000000000E+00 0. -1.
        -11    1    5    5    0    0  0.30772053002E+03  0.10480445442E+03  0.27044341611E+03  0.42286586476E+03  0.00000000000E+00 0.  1.
          1    1    6    6  503    0 -0.45274935098E+02  0.17428535372E+02 -0.25064701129E+01  0.48578348940E+02  0.00000000000E+00 0. -1.
         -1    1    6    6    0  503 -0.65687771197E+02  0.18612909899E+02  0.12803479419E+03  0.14510076575E+03  0.00000000000E+00 0.  1.
<mgrwt>
<rscale>  0 0.76696731E+03</rscale>
<asrwt>0</asrwt>
<pdfrwt beam="1">  1        1 0.20254147E+00 0.76696731E+03</pdfrwt>
<pdfrwt beam="2">  1       -1 0.79600552E-01 0.76696731E+03</pdfrwt>
<totfact> 0.14321264E+01</totfact>
</mgrwt>
</event>
<event>
12    1  0.1335216E-007  0.1235816E+04  0.7818608E-02  0.9082072E-01
         -2   -1    0    0    0  501 -0.00000000000E+00  0.00000000000E+00  0.85818020686E+03  0.85818020686E+03  0.00000000000E+00 0.  1.
          2   -1    0    0  501    0  0.00000000000E+00 -0.00000000000E+00 -0.24334787970E+04  0.24334787970E+04  0.00000000000E+00 0. -1.
         23    2    1    2    0    0 -0.64492503292E+03 -0.98452206082E+03  0.68317906180E+02  0.11829373497E+04  0.97269988264E+02 0.  0.
    5000000    2    1    2    0    0  0.64492503292E+03  0.98452206082E+03 -0.16436164963E+04  0.21087216542E+04  0.60001653438E+03 0.  0.
         23    2    4    4    0    0  0.60653210339E+03  0.44283124301E+03 -0.10982353521E+04  0.13334545580E+04  0.89439742689E+02 0.  0.
         23    2    4    4    0    0  0.38392929534E+02  0.54169081781E+03 -0.54538114427E+03  0.77526709617E+03  0.93249765365E+02 0.  0.
          3    1    3    3  502    0 -0.44919813155E+03 -0.70860751295E+03  0.90890268154E+02  0.84389845932E+03  0.00000000000E+00 0. -1.
         -3    1    3    3    0  502 -0.19572690138E+03 -0.27591454787E+03 -0.22572361974E+02  0.33903889035E+03  0.00000000000E+00 0.  1.
         13    1    5    5    0    0  0.31260809238E+03  0.21847111567E+03 -0.63509583321E+03  0.74081047858E+03  0.00000000000E+00 0.  1.
        -13    1    5    5    0    0  0.29392401101E+03  0.22436012733E+03 -0.46313951885E+03  0.59264407945E+03  0.00000000000E+00 0. -1.
          4    1    6    6  503    0  0.18003755836E+02  0.34235818460E+03 -0.27943828885E+03  0.44228838902E+03  0.00000000000E+00 0. -1.
         -4    1    6    6    0  503  0.20389173698E+02  0.19933263321E+03 -0.26594285542E+03  0.33297870715E+03  0.00000000000E+00 0.  1.
<mgrwt>
<rscale>  0 0.12358162E+04</rscale>
<asrwt>0</asrwt>
<pdfrwt beam="1">  1        2 0.37438135E+00 0.12358162E+04</pdfrwt>
<pdfrwt beam="2">  1       -2 0.13202773E+00 0.12358162E+04</pdfrwt>
<totfact> 0.15474937E+00</totfact>
</mgrwt>
</event>
<event>
12    1  0.1335216E-007  0.8811929E+03  0.7818608E-02  0.9449401E-01
         -1   -1    0    0    0  501 -0.00000000000E+00  0.00000000000E+00  0.64840240606E+03  0.64840240606E+03  0.00000000000E+00 0.  1.
          1   -1    0    0  501    0  0.00000000000E+00 -0.00000000000E+00 -0.15922481714E+04  0.15922481714E+04  0.00000000000E+00 0. -1.
         23    2    1    2    0    0 -0.80747065691E+03 -0.26029668919E+03 -0.25628363466E+02  0.85390947719E+03  0.93495208717E+02 0.  0.
    5000000    2    1    2    0    0  0.80747065691E+03  0.26029668919E+03 -0.91821740192E+03  0.13867411003E+04  0.60013702930E+03 0.  0.
         23    2    4    4    0    0  0.29454334458E+03  0.25930024778E+03 -0.72768228123E+03  0.83188047448E+03  0.92256279342E+02 0.  0.
         23    2    4    4    0    0  0.51292731233E+03  0.99644140899E+00 -0.19053512069E+03  0.55486062583E+03  0.92039454848E+02 0.  0.
          1    1    3    3  502    0 -0.11608525042E+03 -0.31756935210E+02 -0.36123819356E+02  0.12565515757E+03  0.00000000000E+00 0. -1.
         -1    1    3    3    0  502 -0.69138540649E+03 -0.22853975398E+03  0.10495455890E+02  0.72825431962E+03  0.00000000000E+00 0.  1.
         11    1    5    5    0    0  0.18090333014E+02  0.21411193482E+02 -0.16224858766E+02  0.32387426524E+02  0.00000000000E+00 0. -1.
        -11    1    5    5    0    0  0.27645301156E+03  0.23788905430E+03 -0.71145742246E+03  0.79949304796E+03  0.00000000000E+00 0.  1.
          3    1    6    6  503    0  0.28981152094E+03  0.46174010919E+02 -0.10901226711E+03  0.31305978875E+03  0.00000000000E+00 0. -1.
         -3    1    6    6    0  503  0.22311579139E+03 -0.45177569510E+02 -0.81522853582E+02  0.24180083708E+03  0.00000000000E+00 0.  1.
<mgrwt>
<rscale>  0 0.88119291E+03</rscale>
<asrwt>0</asrwt>
<pdfrwt beam="1">  1        1 0.24496126E+00 0.88119291E+03</pdfrwt>
<pdfrwt beam="2">  1       -1 0.99754217E-01 0.88119291E+03</pdfrwt>
<totfact> 0.55343753E+00</totfact>
</mgrwt>
</event>
<event>
12    1  0.1335216E-007  0.6579678E+03  0.7818608E-02  0.9791942E-01
         -2   -1    0    0    0  501 -0.00000000000E+00  0.00000000000E+00  0.15144504362E+03  0.15144504362E+03  0.00000000000E+00 0.  1.
          2   -1    0    0  501    0  0.00000000000E+00 -0.00000000000E+00 -0.35938071148E+04  0.35938071148E+04  0.00000000000E+00 0. -1.
         23    2    1    2    0    0 -0.48315142221E+03 -0.37285076393E+03 -0.15935667912E+04  0.17079639911E+04  0.72338702195E+02 0.  0.
    5000000    2    1    2    0    0  0.48315142221E+03  0.37285076393E+03 -0.18487952800E+04  0.20372881673E+04  0.60003841594E+03 0.  0.
         23    2    4    4    0    0  0.29207920005E+03  0.29054942115E+02 -0.27479525427E+03  0.41247039158E+03  0.92005127040E+02 0.  0.
         23    2    4    4    0    0  0.19107222217E+03  0.34379582182E+03 -0.15740000257E+04  0.16248177757E+04  0.88614684686E+02 0.  0.
          3    1    3    3  502    0 -0.37220179451E+03 -0.25623092785E+03 -0.11165895693E+04  0.12045583135E+04  0.00000000000E+00 0. -1.
         -3    1    3    3    0  502 -0.11094962770E+03 -0.11661983608E+03 -0.47697722191E+03  0.50340567763E+03  0.00000000000E+00 0.  1.
         13    1    5    5    0    0  0.25137561455E+03  0.57271774465E+02 -0.22414407646E+03  0.34162892552E+03  0.00000000000E+00 0.  1.
        -13    1    5    5    0    0  0.40703585497E+02 -0.28216832351E+02 -0.50651177802E+02  0.70841466056E+02  0.00000000000E+00 0. -1.
          3    1    6    6  503    0  0.60946352234E+02  0.15410801477E+03 -0.51052019936E+03  0.53674445690E+03  0.00000000000E+00 0. -1.
         -3    1    6    6    0  503  0.13012586993E+03  0.18968780705E+03 -0.10634798263E+04  0.10880733188E+04  0.00000000000E+00 0.  1.
<mgrwt>
<rscale>  0 0.65796778E+03</rscale>
<asrwt>0</asrwt>
<pdfrwt beam="1">  1        2 0.55289332E+00 0.65796778E+03</pdfrwt>
<pdfrwt beam="2">  1       -2 0.23299241E-01 0.65796778E+03</pdfrwt>
<totfact> 0.12519946E+01</totfact>
</mgrwt>
</event>
<event>
12    1  0.1335216E-007  0.7027917E+03  0.7818608E-02  0.9712470E-01
          1   -1    0    0  501    0  0.00000000000E+00  0.00000000000E+00  0.23865515598E+04  0.23865515598E+04  0.00000000000E+00 0. -1.
         -1   -1    0    0    0  501 -0.00000000000E+00 -0.00000000000E+00 -0.84150441786E+03  0.84150441786E+03  0.00000000000E+00 0.  1.
         23    2    1    2    0    0 -0.17074355755E+03 -0.66215491525E+03  0.20671819948E+04  0.21792353213E+04  0.90679060120E+02 0.  0.
    5000000    2    1    2    0    0  0.17074355755E+03  0.66215491525E+03 -0.52213485279E+03  0.10488206564E+04  0.59983120170E+03 0.  0.
         23    2    4    4    0    0 -0.43381077912E+02  0.18129672158E+03 -0.46817454625E+03  0.51205359262E+03  0.90890355842E+02 0.  0.
         23    2    4    4    0    0  0.21412463546E+03  0.48085819367E+03 -0.53960306544E+02  0.53676706377E+03  0.90184278770E+02 0.  0.
          3    1    3    3  502    0 -0.98478225241E+01 -0.19999222770E+03  0.57680601754E+03  0.61057272508E+03  0.00000000000E+00 0. -1.
         -3    1    3    3    0  502 -0.16089573502E+03 -0.46216268755E+03  0.14903759772E+04  0.15686625962E+04  0.00000000000E+00 0.  1.
         13    1    5    5    0    0 -0.32622892988E+02  0.11910642224E+03 -0.18853205226E+03  0.22537730075E+03  0.00000000000E+00 0. -1.
        -13    1    5    5    0    0 -0.10758184924E+02  0.62190299344E+02 -0.27964249399E+03  0.28667629187E+03  0.00000000000E+00 0.  1.
          4    1    6    6  503    0  0.16802988540E+03  0.31240154069E+03 -0.26386304730E+01  0.35473331868E+03  0.00000000000E+00 0. -1.
         -4    1    6    6    0  503  0.46094750059E+02  0.16845665298E+03 -0.51321676071E+02  0.18203374509E+03  0.00000000000E+00 0.  1.
<mgrwt>
<rscale>  0 0.70279167E+03</rscale>
<asrwt>0</asrwt>
<pdfrwt beam="1">  1        1 0.36716178E+00 0.70279167E+03</pdfrwt>
<pdfrwt beam="2">  1       -1 0.12946222E+00 0.70279167E+03</pdfrwt>
<totfact> 0.89635426E-01</totfact>
</mgrwt>
</event>
<event>
12    1  0.1335216E-007  0.4998398E+03  0.7818608E-02  0.1013821E+00
         -1   -1    0    0    0  501 -0.00000000000E+00  0.00000000000E+00  0.29720530543E+03  0.29720530543E+03  0.00000000000E+00 0.  1.
          1   -1    0    0  501    0  0.00000000000E+00 -0.00000000000E+00 -0.15021377415E+04  0.15021377415E+04  0.00000000000E+00 0. -1.
         23    2    1    2    0    0  0.74427256458E+02 -0.38140643698E+03 -0.96645323882E+03  0.10456968545E+04  0.91868177489E+02 0.  0.
    5000000    2    1    2    0    0 -0.74427256458E+02  0.38140643698E+03 -0.23847919725E+03  0.75364619241E+03  0.60008330184E+03 0.  0.
         23    2    4    4    0    0 -0.10396948589E+03 -0.78186774460E+02  0.87917131885E+02  0.18211084613E+03  0.92261110452E+02 0.  0.
         23    2    4    4    0    0  0.29542229429E+02  0.45959321144E+03 -0.32639632914E+03  0.57153534629E+03  0.89551242640E+02 0.  0.
          3    1    3    3  502    0  0.36587472520E+02 -0.26462978568E+03 -0.54863985648E+03  0.61022394146E+03  0.00000000000E+00 0. -1.
         -3    1    3    3    0  502  0.37839783938E+02 -0.11677665130E+03 -0.41781338235E+03  0.43547291306E+03  0.00000000000E+00 0.  1.
         11    1    5    5    0    0 -0.19758176890E+02 -0.58669742797E+02  0.46425721107E+01  0.62081218977E+02  0.00000000000E+00 0. -1.
        -11    1    5    5    0    0 -0.84211308996E+02 -0.19517031663E+02  0.83274559774E+02  0.12002962715E+03  0.00000000000E+00 0.  1.
          3    1    6    6  503    0  0.29877715305E+02  0.24247826655E+03 -0.22410956030E+03  0.33153202355E+03  0.00000000000E+00 0. -1.
         -3    1    6    6    0  503 -0.33548587607E+00  0.21711494489E+03 -0.10228676884E+03  0.24000332274E+03  0.00000000000E+00 0.  1.
<mgrwt>
<rscale>  0 0.49983975E+03</rscale>
<asrwt>0</asrwt>
<pdfrwt beam="1">  1        1 0.23109812E+00 0.49983975E+03</pdfrwt>
<pdfrwt beam="2">  1       -1 0.45723893E-01 0.49983975E+03</pdfrwt>
<totfact> 0.33162155E+01</totfact>
</mgrwt>
</event>
<event>
12    1  0.1335216E-007  0.5996608E+03  0.7818608E-02  0.9906110E-01
         -2   -1    0    0    0  501 -0.00000000000E+00  0.00000000000E+00  0.80732791788E+03  0.80732791788E+03  0.00000000000E+00 0.  1.
          2   -1    0    0  501    0  0.00000000000E+00 -0.00000000000E+00 -0.58746647680E+03  0.58746647680E+03  0.00000000000E+00 0. -1.
         23    2    1    2    0    0  0.45240816863E+03  0.66831616825E+02 -0.22620850592E+03  0.51817940519E+03  0.90553805924E+02 0.  0.
    5000000    2    1    2    0    0 -0.45240816863E+03 -0.66831616825E+02  0.44606994699E+03  0.87661498949E+03  0.60027978987E+03 0.  0.
         23    2    4    4    0    0 -0.85583544088E+02 -0.28788601624E+03  0.14147847459E+03  0.34316276601E+03  0.86842523222E+02 0.  0.
         23    2    4    4    0    0 -0.36682462454E+03  0.22105439942E+03  0.30459147241E+03  0.53345222347E+03  0.91487469057E+02 0.  0.
          2    1    3    3  502    0  0.41129031501E+03  0.35989040207E+02 -0.18554108354E+03  0.45263719238E+03  0.00000000000E+00 0. -1.
         -2    1    3    3    0  502  0.41117853614E+02  0.30842576618E+02 -0.40667422378E+02  0.65542212818E+02  0.00000000000E+00 0.  1.
         11    1    5    5    0    0 -0.90089727482E+02 -0.21156597137E+03  0.75061535719E+02  0.24188954790E+03  0.00000000000E+00 0. -1.
        -11    1    5    5    0    0  0.45061833945E+01 -0.76320044876E+02  0.66416938868E+02  0.10127321811E+03  0.00000000000E+00 0.  1.
          3    1    6    6  503    0 -0.75478132698E+02  0.54120844874E+02  0.24155097262E+02  0.95966051753E+02  0.00000000000E+00 0. -1.
         -3    1    6    6    0  503 -0.29134649184E+03  0.16693355454E+03  0.28043637515E+03  0.43748617172E+03  0.00000000000E+00 0.  1.
<mgrwt>
<rscale>  0 0.59966079E+03</rscale>
<asrwt>0</asrwt>
<pdfrwt beam="1">  1        2 0.90379457E-01 0.59966079E+03</pdfrwt>
<pdfrwt beam="2">  1       -2 0.12420430E+00 0.59966079E+03</pdfrwt>
<totfact> 0.25469747E+01</totfact>
</mgrwt>
</event>
<event>
12    1  0.1335216E-007  0.4493827E+03  0.7818608E-02  0.1027906E+00
          2   -1    0    0  501    0  0.00000000000E+00  0.00000000000E+00  0.75061011080E+03  0.75061011080E+03  0.00000000000E+00 0. -1.
         -2   -1    0    0    0  501 -0.00000000000E+00 -0.00000000000E+00 -0.46189559147E+03  0.46189559147E+03  0.00000000000E+00 0.  1.
         23    2    1    2    0    0  0.20251767304E+03 -0.37307664327E+03  0.34454788303E+02  0.43507245865E+03  0.88889381771E+02 0.  0.
    5000000    2    1    2    0    0 -0.20251767304E+03  0.37307664327E+03  0.25425973103E+03  0.77743324362E+03  0.59962892510E+03 0.  0.
         23    2    4    4    0    0 -0.11204281726E+03  0.24712637151E+03 -0.15846393191E+03  0.32731047674E+03  0.91631294189E+02 0.  0.
         23    2    4    4    0    0 -0.90474855774E+02  0.12595027176E+03  0.41272366294E+03  0.45012276687E+03  0.90667043753E+02 0.  0.
          3    1    3    3  502    0  0.12048296536E+03 -0.13129092223E+03  0.78684331148E+01  0.17836861675E+03  0.00000000000E+00 0. -1.
         -3    1    3    3    0  502  0.82034707676E+02 -0.24178572104E+03  0.26586355189E+02  0.25670384190E+03  0.00000000000E+00 0.  1.
         13    1    5    5    0    0 -0.97556322791E+02  0.10620224468E+03 -0.89774014686E+02  0.16986914553E+03  0.00000000000E+00 0. -1.
        -13    1    5    5    0    0 -0.14486494471E+02  0.14092412683E+03 -0.68689917221E+02  0.15744133121E+03  0.00000000000E+00 0.  1.
          1    1    6    6  503    0 -0.10522881928E+03  0.83199397142E+02  0.29771990646E+03  0.32654614803E+03  0.00000000000E+00 0. -1.
         -1    1    6    6    0  503  0.14753963505E+02  0.42750874617E+02  0.11500375648E+03  0.12357661884E+03  0.00000000000E+00 0.  1.
<mgrwt>
<rscale>  0 0.44938268E+03</rscale>
<asrwt>0</asrwt>
<pdfrwt beam="1">  1        2 0.11547848E+00 0.44938268E+03</pdfrwt>
<pdfrwt beam="2">  1       -2 0.71060860E-01 0.44938268E+03</pdfrwt>
<totfact> 0.70123294E+01</totfact>
</mgrwt>
</event>
<event>
12    1  0.1335216E-007  0.4114968E+03  0.7818608E-02  0.1039870E+00
          1   -1    0    0  501    0  0.00000000000E+00  0.00000000000E+00  0.30043799224E+03  0.30043799224E+03  0.00000000000E+00 0. -1.
         -1   -1    0    0    0  501 -0.00000000000E+00 -0.00000000000E+00 -0.66613925101E+03  0.66613925101E+03  0.00000000000E+00 0.  1.
         23    2    1    2    0    0  0.20363187486E+03 -0.10694941643E+02  0.20789906386E+02  0.22434147030E+03  0.91195136128E+02 0.  0.
    5000000    2    1    2    0    0 -0.20363187486E+03  0.10694941643E+02 -0.38649116516E+03  0.74223577295E+03  0.59996516537E+03 0.  0.
         23    2    4    4    0    0 -0.11498797518E+03 -0.27386124778E+03 -0.26893882995E+03  0.40997850587E+03  0.86787461933E+02 0.  0.
         23    2    4    4    0    0 -0.88643899683E+02  0.28455618942E+03 -0.11755233521E+03  0.33225726707E+03  0.88013488298E+02 0.  0.
          4    1    3    3  502    0  0.15122721834E+03 -0.35458733611E+02  0.44714806168E+02  0.16163665192E+03  0.00000000000E+00 0. -1.
         -4    1    3    3    0  502  0.52404656526E+02  0.24763791968E+02 -0.23924899781E+02  0.62704818378E+02  0.00000000000E+00 0.  1.
         11    1    5    5    0    0 -0.62681632300E+02 -0.22610797736E+03 -0.17693354184E+03  0.29386949941E+03  0.00000000000E+00 0. -1.
        -11    1    5    5    0    0 -0.52306342879E+02 -0.47753270414E+02 -0.92005288110E+02  0.11610900646E+03  0.00000000000E+00 0.  1.
          3    1    6    6  503    0 -0.23557347622E+02  0.17674337610E+03 -0.35093288651E+02  0.18172701651E+03  0.00000000000E+00 0. -1.
         -3    1    6    6    0  503 -0.65086552061E+02  0.10781281332E+03 -0.82459046556E+02  0.15053025056E+03  0.00000000000E+00 0.  1.
<mgrwt>
<rscale>  0 0.41149683E+03</rscale>
<asrwt>0</asrwt>
<pdfrwt beam="1">  1        1 0.46221230E-01 0.41149683E+03</pdfrwt>
<pdfrwt beam="2">  1       -1 0.10248296E+00 0.41149683E+03</pdfrwt>
<totfact> 0.82617658E+01</totfact>
</mgrwt>
</event>
<event>
12    1  0.1335216E-007  0.7149473E+03  0.7818608E-02  0.9692006E-01
         -1   -1    0    0    0  501 -0.00000000000E+00  0.00000000000E+00  0.12714427594E+03  0.12714427594E+03  0.00000000000E+00 0.  1.
          1   -1    0    0  501    0  0.00000000000E+00 -0.00000000000E+00 -0.42202437412E+04  0.42202437412E+04  0.00000000000E+00 0. -1.
         23    2    1    2    0    0 -0.24541099434E+03  0.55395106655E+03 -0.17170932872E+04  0.18230329059E+04  0.89169941678E+02 0.  0.
    5000000    2    1    2    0    0  0.24541099434E+03 -0.55395106655E+03 -0.23760061780E+04  0.25243551112E+04  0.59989584894E+03 0.  0.
         23    2    4    4    0    0  0.23961816284E+03  0.52183210945E+01 -0.46695015548E+03  0.53300756893E+03  0.92792920011E+02 0.  0.
         23    2    4    4    0    0  0.57928315060E+01 -0.55916938764E+03 -0.19090560225E+04  0.19913475423E+04  0.90918514228E+02 0.  0.
          2    1    3    3  502    0 -0.76998325680E+02  0.24912251954E+03 -0.64165886133E+03  0.69261595868E+03  0.00000000000E+00 0. -1.
         -2    1    3    3    0  502 -0.16841266866E+03  0.30482854700E+03 -0.10754344259E+04  0.11304169472E+04  0.00000000000E+00 0.  1.
         13    1    5    5    0    0  0.23224901763E+03 -0.17349358410E+02 -0.41484322174E+03  0.47574731219E+03  0.00000000000E+00 0. -1.
        -13    1    5    5    0    0  0.73691452031E+01  0.22567679505E+02 -0.52106933737E+02  0.57260256747E+02  0.00000000000E+00 0.  1.
          4    1    6    6  503    0 -0.32542944090E+02 -0.35685558745E+03 -0.11241217009E+04  0.11798536146E+04  0.00000000000E+00 0. -1.
         -4    1    6    6    0  503  0.38335775596E+02 -0.20231380019E+03 -0.78493432163E+03  0.81149392771E+03  0.00000000000E+00 0.  1.
<mgrwt>
<rscale>  0 0.71494728E+03</rscale>
<asrwt>0</asrwt>
<pdfrwt beam="1">  1        1 0.64926829E+00 0.71494728E+03</pdfrwt>
<pdfrwt beam="2">  1       -1 0.19560657E-01 0.71494728E+03</pdfrwt>
<totfact> 0.14378722E+00</totfact>
</mgrwt>
</event>
<event>
12    1  0.1335216E-007  0.6064853E+03  0.7818608E-02  0.9892042E-01
          1   -1    0    0  501    0  0.00000000000E+00  0.00000000000E+00  0.51833144491E+03  0.51833144491E+03  0.00000000000E+00 0. -1.
         -1   -1    0    0    0  501 -0.00000000000E+00 -0.00000000000E+00 -0.81289785506E+03  0.81289785506E+03  0.00000000000E+00 0.  1.
         23    2    1    2    0    0 -0.34193991134E+03 -0.35251479359E+03 -0.24009794336E+03  0.55400552591E+03  0.89919506548E+02 0.  0.
    5000000    2    1    2    0    0  0.34193991134E+03  0.35251479359E+03 -0.54468466786E+02  0.77722377406E+03  0.59993366168E+03 0.  0.
         23    2    4    4    0    0  0.44355092646E+03  0.12819166264E+03  0.87118009033E+02  0.47919143691E+03  0.94150724782E+02 0.  0.
         23    2    4    4    0    0 -0.10161101512E+03  0.22432313096E+03 -0.14158647582E+03  0.29803233715E+03  0.90171383349E+02 0.  0.
          1    1    3    3  502    0 -0.14140466791E+03 -0.18954118788E+03 -0.15143872983E+03  0.28081102346E+03  0.00000000000E+00 0. -1.
         -1    1    3    3    0  502 -0.20053524344E+03 -0.16297360572E+03 -0.88659213536E+02  0.27319450244E+03  0.00000000000E+00 0.  1.
         13    1    5    5    0    0  0.28420970934E+03  0.12711428359E+03  0.46943248381E+02  0.31486007773E+03  0.00000000000E+00 0. -1.
        -13    1    5    5    0    0  0.15934121712E+03  0.10773790482E+01  0.40174760652E+02  0.16433135919E+03  0.00000000000E+00 0.  1.
          1    1    6    6  503    0 -0.48715608888E+02  0.13584833166E+03 -0.32472552217E+02  0.14792716590E+03  0.00000000000E+00 0. -1.
         -1    1    6    6    0  503 -0.52895406229E+02  0.88474799297E+02 -0.10911392360E+03  0.15010517125E+03  0.00000000000E+00 0.  1.
<mgrwt>
<rscale>  0 0.60648532E+03</rscale>
<asrwt>0</asrwt>
<pdfrwt beam="1">  1        1 0.79743300E-01 0.60648532E+03</pdfrwt>
<pdfrwt beam="2">  1       -1 0.12506121E+00 0.60648532E+03</pdfrwt>
<totfact> 0.24554868E+01</totfact>
</mgrwt>
</event>
<event>
12    1  0.1335216E-007  0.1066148E+04  0.7818608E-02  0.9238830E-01
         -2   -1    0    0    0  501 -0.00000000000E+00  0.00000000000E+00  0.96182980220E+03  0.96182980220E+03  0.00000000000E+00 0.  1.
          2   -1    0    0  501    0  0.00000000000E+00 -0.00000000000E+00 -0.13396901411E+04  0.13396901411E+04  0.00000000000E+00 0. -1.
         23    2    1    2    0    0  0.10292347152E+04  0.16205764572E+01  0.52202220577E+02  0.10349039311E+04  0.94733043451E+02 0.  0.
    5000000    2    1    2    0    0 -0.10292347152E+04 -0.16205764572E+01 -0.43006255949E+03  0.12666160122E+04  0.60002965924E+03 0.  0.
         23    2    4    4    0    0 -0.79152455851E+03 -0.14743186399E+03 -0.87679443004E+02  0.81555763381E+03  0.95912919312E+02 0.  0.
         23    2    4    4    0    0 -0.23771015672E+03  0.14581128753E+03 -0.34238311649E+03  0.45105837839E+03  0.91980498343E+02 0.  0.
          2    1    3    3  502    0  0.14758191028E+03 -0.70472621416E+01  0.40222324553E+02  0.15312713521E+03  0.00000000000E+00 0. -1.
         -2    1    3    3    0  502  0.88165280496E+03  0.86678385988E+01  0.11979896024E+02  0.88177679592E+03  0.00000000000E+00 0.  1.
         13    1    5    5    0    0 -0.24838854628E+03 -0.37210620305E+01 -0.12593572061E+02  0.24873543029E+03  0.00000000000E+00 0. -1.
        -13    1    5    5    0    0 -0.54313601223E+03 -0.14371080196E+03 -0.75085870943E+02  0.56682220352E+03  0.00000000000E+00 0.  1.
          2    1    6    6  503    0  0.73050392465E+01  0.10258819977E+02 -0.23671247265E+02  0.26812962029E+02  0.00000000000E+00 0. -1.
         -2    1    6    6    0  503 -0.24501519597E+03  0.13555246756E+03 -0.31871186922E+03  0.42424541636E+03  0.00000000000E+00 0.  1.
<mgrwt>
<rscale>  0 0.10661476E+04</rscale>
<asrwt>0</asrwt>
<pdfrwt beam="1">  1        2 0.20610618E+00 0.10661476E+04</pdfrwt>
<pdfrwt beam="2">  1       -2 0.14797382E+00 0.10661476E+04</pdfrwt>
<totfact> 0.47960154E+00</totfact>
</mgrwt>
</event>
<event>
12    1  0.1335216E-007  0.1104642E+04  0.7818608E-02  0.9200679E-01
          1   -1    0    0  501    0  0.00000000000E+00  0.00000000000E+00  0.36468857767E+04  0.36468857767E+04  0.00000000000E+00 0. -1.
         -1   -1    0    0    0  501 -0.00000000000E+00 -0.00000000000E+00 -0.36432074506E+03  0.36432074506E+03  0.00000000000E+00 0.  1.
         23    2    1    2    0    0  0.92506545299E+03 -0.52041607056E+03  0.17989225581E+04  0.20908346592E+04  0.94277374317E+02 0.  0.
    5000000    2    1    2    0    0 -0.92506545299E+03  0.52041607056E+03  0.14836424735E+04  0.19203718625E+04  0.60004510025E+03 0.  0.
         23    2    4    4    0    0 -0.12786655251E+03  0.29082968907E+03  0.19145915044E+03  0.38214882111E+03  0.91920356251E+02 0.  0.
         23    2    4    4    0    0 -0.79719890048E+03  0.22958638148E+03  0.12921833231E+04  0.15382230414E+04  0.90312741042E+02 0.  0.
          2    1    3    3  502    0  0.12435127334E+03 -0.79369965064E+02  0.31690210610E+03  0.34955654104E+03  0.00000000000E+00 0. -1.
         -2    1    3    3    0  502  0.80071417965E+03 -0.44104610549E+03  0.14820204520E+04  0.17412781182E+04  0.00000000000E+00 0.  1.
         13    1    5    5    0    0 -0.81253403094E+02  0.18932610186E+03  0.17281606458E+03  0.26890868439E+03  0.00000000000E+00 0. -1.
        -13    1    5    5    0    0 -0.46613149411E+02  0.10150358721E+03  0.18643085853E+02  0.11324013672E+03  0.00000000000E+00 0.  1.
          1    1    6    6  503    0 -0.18342057918E+03  0.62555038017E+02  0.37397346328E+03  0.42120350531E+03  0.00000000000E+00 0. -1.
         -1    1    6    6    0  503 -0.61377832130E+03  0.16703134347E+03  0.91820985978E+03  0.11170195361E+04  0.00000000000E+00 0.  1.
<mgrwt>
<rscale>  0 0.11046421E+04</rscale>
<asrwt>0</asrwt>
<pdfrwt beam="1">  1        1 0.56105933E+00 0.11046421E+04</pdfrwt>
<pdfrwt beam="2">  1       -1 0.56049348E-01 0.11046421E+04</pdfrwt>
<totfact> 0.62975545E-01</totfact>
</mgrwt>
</event>
<event>
12    1  0.1335216E-007  0.9088689E+03  0.7818608E-02  0.9414562E-01
         -2   -1    0    0    0  501 -0.00000000000E+00  0.00000000000E+00  0.42222231054E+04  0.42222231054E+04  0.00000000000E+00 0.  1.
          2   -1    0    0  501    0  0.00000000000E+00 -0.00000000000E+00 -0.27293751193E+03  0.27293751193E+03  0.00000000000E+00 0. -1.
         23    2    1    2    0    0  0.71166073233E+03 -0.39969726701E+03  0.65766410065E+03  0.10511928948E+04  0.79155098850E+02 0.  0.
    5000000    2    1    2    0    0 -0.71166073233E+03  0.39969726701E+03  0.32916214928E+04  0.34439677225E+04  0.59993559515E+03 0.  0.
         23    2    4    4    0    0 -0.40325557763E+02  0.31394384220E+03  0.10988890953E+04  0.11474806283E+04  0.94697739338E+02 0.  0.
         23    2    4    4    0    0 -0.67133517457E+03  0.85753424809E+02  0.21927323975E+04  0.22964870942E+04  0.87937706660E+02 0.  0.
          4    1    3    3  502    0  0.29037901035E+03 -0.20748227306E+03  0.29453855071E+03  0.46273299119E+03  0.00000000000E+00 0. -1.
         -4    1    3    3    0  502  0.42128172199E+03 -0.19221499395E+03  0.36312554994E+03  0.58845990365E+03  0.00000000000E+00 0.  1.
         13    1    5    5    0    0 -0.10243925087E+01  0.17244277528E+02  0.14519515602E+02  0.22566143241E+02  0.00000000000E+00 0. -1.
        -13    1    5    5    0    0 -0.39301165254E+02  0.29669956468E+03  0.10843695797E+04  0.11249144851E+04  0.00000000000E+00 0.  1.
          2    1    6    6  503    0 -0.36068894599E+02 -0.12974806601E+02  0.15925562177E+03  0.16380373570E+03  0.00000000000E+00 0. -1.
         -2    1    6    6    0  503 -0.63526627997E+03  0.98728231411E+02  0.20334767757E+04  0.21326833585E+04  0.00000000000E+00 0.  1.
<mgrwt>
<rscale>  0 0.90886893E+03</rscale>
<asrwt>0</asrwt>
<pdfrwt beam="1">  1        2 0.41990389E-01 0.90886893E+03</pdfrwt>
<pdfrwt beam="2">  1       -2 0.64957274E+00 0.90886893E+03</pdfrwt>
<totfact> 0.41303087E-02</totfact>
</mgrwt>
</event>
<event>
12    1  0.1335216E-007  0.7370613E+03  0.7818608E-02  0.9655871E-01
          1   -1    0    0  501    0  0.00000000000E+00  0.00000000000E+00  0.16517347995E+04  0.16517347995E+04  0.00000000000E+00 0. -1.
         -1   -1    0    0    0  501 -0.00000000000E+00 -0.00000000000E+00 -0.40981280976E+03  0.40981280976E+03  0.00000000000E+00 0.  1.
         23    2    1    2    0    0 -0.33857798710E+03 -0.62215525922E+03  0.48325074596E+03  0.86262214956E+03  0.94199095101E+02 0.  0.
    5000000    2    1    2    0    0  0.33857798710E+03  0.62215525922E+03  0.75867124383E+03  0.11989254597E+04  0.60010664209E+03 0.  0.
         23    2    4    4    0    0  0.13594696034E+03  0.72062547757E+02 -0.60308743431E+02  0.18759871361E+03  0.88778071610E+02 0.  0.
         23    2    4    4    0    0  0.20263102676E+03  0.55009271147E+03  0.81897998726E+03  0.10113267461E+04  0.91609190077E+02 0.  0.
          3    1    3    3  502    0 -0.86349343623E+02 -0.10409818965E+03  0.12477830664E+03  0.18401703193E+03  0.00000000000E+00 0. -1.
         -3    1    3    3    0  502 -0.25222864347E+03 -0.51805706958E+03  0.35847243933E+03  0.67860511764E+03  0.00000000000E+00 0.  1.
         11    1    5    5    0    0 -0.10305333898E+02 -0.13348557677E+01 -0.14188851320E+02  0.17587076177E+02  0.00000000000E+00 0. -1.
        -11    1    5    5    0    0  0.14625229424E+03  0.73397403525E+02 -0.46119892111E+02  0.17001163743E+03  0.00000000000E+00 0.  1.
          3    1    6    6  503    0  0.45879487291E+01  0.68862050642E+00  0.26498844081E+02  0.26901899736E+02  0.00000000000E+00 0. -1.
         -3    1    6    6    0  503  0.19804307803E+03  0.54940409096E+03  0.79248114318E+03  0.98442484640E+03  0.00000000000E+00 0.  1.
<mgrwt>
<rscale>  0 0.73706129E+03</rscale>
<asrwt>0</asrwt>
<pdfrwt beam="1">  1        1 0.25411304E+00 0.73706129E+03</pdfrwt>
<pdfrwt beam="2">  1       -1 0.63048125E-01 0.73706129E+03</pdfrwt>
<totfact> 0.13656216E+01</totfact>
</mgrwt>
</event>
<event>
12    1  0.1335216E-007  0.9085537E+03  0.7818608E-02  0.9414952E-01
          2   -1    0    0  501    0  0.00000000000E+00  0.00000000000E+00  0.25799943579E+04  0.25799943579E+04  0.00000000000E+00 0.  1.
         -2   -1    0    0    0  501 -0.00000000000E+00 -0.00000000000E+00 -0.37404492793E+03  0.37404492793E+03  0.00000000000E+00 0. -1.
         23    2    1    2    0    0  0.22548214792E+03 -0.78272186854E+03  0.15335041786E+04  0.17389833775E+04  0.94511369901E+02 0.  0.
    5000000    2    1    2    0    0 -0.22548214792E+03  0.78272186854E+03  0.67244525136E+03  0.12150559083E+04  0.60056849872E+03 0.  0.
         23    2    4    4    0    0 -0.35591775710E+03  0.75985984764E+03  0.50733866338E+03  0.98463678996E+03  0.89736563942E+02 0.  0.
         23    2    4    4    0    0  0.13043560918E+03  0.22862020900E+02  0.16510658798E+03  0.23041911832E+03  0.91086028312E+02 0.  0.
          3    1    3    3  502    0  0.91794696122E+02 -0.20810342938E+03  0.36677206239E+03  0.43157276247E+03  0.00000000000E+00 0. -1.
         -3    1    3    3    0  502  0.13368745180E+03 -0.57461843915E+03  0.11667321162E+04  0.13074106151E+04  0.00000000000E+00 0.  1.
         11    1    5    5    0    0 -0.33694501268E+03  0.64861173881E+03  0.44475133870E+03  0.85558920200E+03  0.00000000000E+00 0. -1.
        -11    1    5    5    0    0 -0.18972744414E+02  0.11124810883E+03  0.62587324678E+02  0.12904758796E+03  0.00000000000E+00 0.  1.
          1    1    6    6  503    0  0.89192571845E+02  0.53987124253E+02  0.82358689263E+02  0.13286413419E+03  0.00000000000E+00 0. -1.
         -1    1    6    6    0  503  0.41243037334E+02 -0.31125103353E+02  0.82747898713E+02  0.97554984130E+02  0.00000000000E+00 0.  1.
<mgrwt>
<rscale>  0 0.90855368E+03</rscale>
<asrwt>0</asrwt>
<pdfrwt beam="1">  1        2 0.39692220E+00 0.90855368E+03</pdfrwt>
<pdfrwt beam="2">  1       -2 0.57545375E-01 0.90855368E+03</pdfrwt>
<totfact> 0.90711060E+00</totfact>
</mgrwt>
</event>
<event>
12    1  0.1335216E-007  0.4589797E+03  0.7818608E-02  0.1025078E+00
         -2   -1    0    0    0  501 -0.00000000000E+00  0.00000000000E+00  0.82342936140E+02  0.82342936140E+02  0.00000000000E+00 0.  1.
          2   -1    0    0  501    0  0.00000000000E+00 -0.00000000000E+00 -0.32231735738E+04  0.32231735738E+04  0.00000000000E+00 0. -1.
         23    2    1    2    0    0 -0.29836364287E+02  0.28997023267E+03 -0.53132379691E+03  0.61204639755E+03  0.85573775896E+02 0.  0.
    5000000    2    1    2    0    0  0.29836364287E+02 -0.28997023267E+03 -0.26095068408E+04  0.26934701124E+04  0.60023524552E+03 0.  0.
         23    2    4    4    0    0 -0.65881241253E+01 -0.44696197760E+03 -0.14690912922E+04  0.15383140080E+04  0.91445883323E+02 0.  0.
         23    2    4    4    0    0  0.36424488412E+02  0.15699174493E+03 -0.11404155485E+04  0.11551561044E+04  0.88683994195E+02 0.  0.
          4    1    3    3  502    0  0.25067938240E+02  0.16933229165E+03 -0.30640984311E+03  0.35098264698E+03  0.00000000000E+00 0. -1.
         -4    1    3    3    0  502 -0.54904302527E+02  0.12063794102E+03 -0.22491395380E+03  0.26106375057E+03  0.00000000000E+00 0.  1.
         11    1    5    5    0    0  0.98465067417E+01 -0.25271975229E+03 -0.97205317992E+03  0.10044160550E+04  0.00000000000E+00 0. -1.
        -11    1    5    5    0    0 -0.16434630867E+02 -0.19424222531E+03 -0.49703811233E+03  0.53389795307E+03  0.00000000000E+00 0.  1.
          4    1    6    6  503    0 -0.93479803099E+01  0.27649345574E+02 -0.67995424146E+02  0.73994923822E+02  0.00000000000E+00 0.  1.
         -4    1    6    6    0  503  0.45772468722E+02  0.12934239935E+03 -0.10724201244E+04  0.10811611806E+04  0.00000000000E+00 0. -1.
<mgrwt>
<rscale>  0 0.45897967E+03</rscale>
<asrwt>0</asrwt>
<pdfrwt beam="1">  1        2 0.49587294E+00 0.45897967E+03</pdfrwt>
<pdfrwt beam="2">  1       -2 0.12668142E-01 0.45897967E+03</pdfrwt>
<totfact> 0.65380976E+01</totfact>
</mgrwt>
</event>
<event>
12    1  0.1335216E-007  0.1641701E+04  0.7818608E-02  0.8795331E-01
         -1   -1    0    0    0  501 -0.00000000000E+00  0.00000000000E+00  0.25743449595E+04  0.25743449595E+04  0.00000000000E+00 0.  1.
          1   -1    0    0  501    0  0.00000000000E+00 -0.00000000000E+00 -0.16659443012E+04  0.16659443012E+04  0.00000000000E+00 0. -1.
         23    2    1    2    0    0 -0.17727325245E+02 -0.16170457940E+04  0.16949835314E+04  0.23444537302E+04  0.91338729029E+02 0.  0.
    5000000    2    1    2    0    0  0.17727325245E+02  0.16170457940E+04 -0.78658287308E+03  0.18958355306E+04  0.60027359165E+03 0.  0.
         23    2    4    4    0    0  0.19374193546E+03  0.66501292590E+03 -0.10162831197E+03  0.70622257778E+03  0.92972503527E+02 0.  0.
         23    2    4    4    0    0 -0.17601461022E+03  0.95203286808E+03 -0.68495456111E+03  0.11896129528E+04  0.93104788863E+02 0.  0.
          4    1    3    3  502    0  0.95068889067E+01 -0.55620267445E+03  0.64228009246E+03  0.84969142233E+03  0.00000000000E+00 0. -1.
         -4    1    3    3    0  502 -0.27234214151E+02 -0.10608431195E+04  0.10527034389E+04  0.14947623079E+04  0.00000000000E+00 0.  1.
         11    1    5    5    0    0  0.15180660211E+03  0.37529046616E+03 -0.80191818463E+02  0.41269711192E+03  0.00000000000E+00 0. -1.
        -11    1    5    5    0    0  0.41935333349E+02  0.28972245973E+03 -0.21436493504E+02  0.29352546586E+03  0.00000000000E+00 0.  1.
          4    1    6    6  503    0 -0.70335654613E+02  0.33079783313E+03 -0.29330176885E+03  0.44766085191E+03  0.00000000000E+00 0. -1.
         -4    1    6    6    0  503 -0.10567895561E+03  0.62123503494E+03 -0.39165279226E+03  0.74195210087E+03  0.00000000000E+00 0.  1.
<mgrwt>
<rscale>  0 0.16417007E+04</rscale>
<asrwt>0</asrwt>
<pdfrwt beam="1">  1        1 0.25629912E+00 0.16417007E+04</pdfrwt>
<pdfrwt beam="2">  1       -1 0.39605307E+00 0.16417007E+04</pdfrwt>
<totfact> 0.35536877E-02</totfact>
</mgrwt>
</event>
<event>
12    1  0.1335216E-007  0.2044635E+04  0.7818608E-02  0.8586032E-01
         -3   -1    0    0    0  501 -0.00000000000E+00  0.00000000000E+00  0.82710383895E+03  0.82710383895E+03  0.00000000000E+00 0.  1.
          3   -1    0    0  501    0  0.00000000000E+00 -0.00000000000E+00 -0.51183587879E+04  0.51183587879E+04  0.00000000000E+00 0. -1.
         23    2    1    2    0    0  0.64209841900E+03  0.19045606899E+04 -0.22553980788E+04  0.30223905499E+04  0.91555122487E+02 0.  0.
    5000000    2    1    2    0    0 -0.64209841900E+03 -0.19045606899E+04 -0.20358568702E+04  0.29230720770E+04  0.59999614200E+03 0.  0.
         23    2    4    4    0    0 -0.66796758198E+03 -0.12249184207E+04 -0.12103809667E+04  0.18493621011E+04  0.92261956037E+02 0.  0.
         23    2    4    4    0    0  0.25869162980E+02 -0.67964226924E+03 -0.82547590347E+03  0.10737099759E+04  0.94126603412E+02 0.  0.
          4    1    3    3  502    0  0.41335071805E+03  0.11701366316E+04 -0.14531225766E+04  0.19109274647E+04  0.00000000000E+00 0. -1.
         -4    1    3    3    0  502  0.22874770095E+03  0.73442405832E+03 -0.80227550221E+03  0.11114630851E+04  0.00000000000E+00 0.  1.
         13    1    5    5    0    0 -0.64964087809E+03 -0.12139841497E+04 -0.11902152307E+04  0.18200008466E+04  0.00000000000E+00 0.  1.
        -13    1    5    5    0    0 -0.18326703894E+02 -0.10934270959E+02 -0.20165735973E+02  0.29361254475E+02  0.00000000000E+00 0. -1.
          3    1    6    6  503    0  0.24221638991E+02 -0.24691185139E+03 -0.36967267752E+03  0.44520786006E+03  0.00000000000E+00 0. -1.
         -3    1    6    6    0  503  0.16475239890E+01 -0.43273041785E+03 -0.45580322595E+03  0.62850211587E+03  0.00000000000E+00 0.  1.
<mgrwt>
<rscale>  0 0.20446353E+04</rscale>
<asrwt>0</asrwt>
<pdfrwt beam="1">  1        3 0.78743983E+00 0.20446353E+04</pdfrwt>
<pdfrwt beam="2">  1       -3 0.12724674E+00 0.20446353E+04</pdfrwt>
<totfact> 0.93283327E-05</totfact>
</mgrwt>
</event>
<event>
12    1  0.1335216E-007  0.5828462E+03  0.7818608E-02  0.9941648E-01
          1   -1    0    0  501    0  0.00000000000E+00  0.00000000000E+00  0.30205613078E+03  0.30205613078E+03  0.00000000000E+00 0. -1.
         -1   -1    0    0    0  501 -0.00000000000E+00 -0.00000000000E+00 -0.12910905789E+04  0.12910905789E+04  0.00000000000E+00 0.  1.
         23    2    1    2    0    0 -0.20862935271E+03  0.41928132233E+03 -0.48560599169E+03  0.68072229235E+03  0.90810935782E+02 0.  0.
    5000000    2    1    2    0    0  0.20862935271E+03 -0.41928132233E+03 -0.50342845645E+03  0.91242441736E+03  0.59979585907E+03 0.  0.
         23    2    4    4    0    0  0.21285718497E+03 -0.51746390542E+03 -0.23937752379E+03  0.61648760389E+03  0.98378311843E+02 0.  0.
         23    2    4    4    0    0 -0.42278322604E+01  0.98182583089E+02 -0.26405093266E+03  0.29593681347E+03  0.90542853619E+02 0.  0.
          3    1    3    3  502    0 -0.12701220687E+03  0.31235976283E+03 -0.39076052445E+03  0.51613419728E+03  0.00000000000E+00 0. -1.
         -3    1    3    3    0  502 -0.81617145840E+02  0.10692155951E+03 -0.94845467238E+02  0.16458809507E+03  0.00000000000E+00 0.  1.
         13    1    5    5    0    0  0.88491678192E+02 -0.14855682235E+03 -0.33626734503E+02  0.17615522658E+03  0.00000000000E+00 0.  1.
        -13    1    5    5    0    0  0.12436550678E+03 -0.36890708307E+03 -0.20575078929E+03  0.44033237732E+03  0.00000000000E+00 0. -1.
          4    1    6    6  503    0  0.38359451937E+02  0.72522218571E+02 -0.18740305543E+03  0.20457474166E+03  0.00000000000E+00 0. -1.
         -4    1    6    6    0  503 -0.42587284197E+02  0.25660364518E+02 -0.76647877230E+02  0.91362071815E+02  0.00000000000E+00 0.  1.
<mgrwt>
<rscale>  0 0.58284621E+03</rscale>
<asrwt>0</asrwt>
<pdfrwt beam="1">  1        1 0.46470174E-01 0.58284621E+03</pdfrwt>
<pdfrwt beam="2">  1       -1 0.19862932E+00 0.58284621E+03</pdfrwt>
<totfact> 0.14048839E+01</totfact>
</mgrwt>
</event>
<event>
12    1  0.1335216E-007  0.4670887E+03  0.7818608E-02  0.1022745E+00
         -2   -1    0    0    0  501 -0.00000000000E+00  0.00000000000E+00  0.28216267170E+03  0.28216267170E+03  0.00000000000E+00 0. -1.
          2   -1    0    0  501    0  0.00000000000E+00 -0.00000000000E+00 -0.19093525942E+04  0.19093525942E+04  0.00000000000E+00 0.  1.
         23    2    1    2    0    0 -0.21468321207E+03  0.23507006038E+03 -0.14551735640E+04  0.14908778938E+04  0.61967555428E+02 0.  0.
    5000000    2    1    2    0    0  0.21468321207E+03 -0.23507006038E+03 -0.17201635845E+03  0.70063737208E+03  0.59996356952E+03 0.  0.
         23    2    4    4    0    0 -0.14611950947E+03 -0.16983870380E+03 -0.21111052176E+03  0.32068644937E+03  0.89866846244E+02 0.  0.
         23    2    4    4    0    0  0.36080272153E+03 -0.65231356584E+02  0.39094163308E+02  0.37995092271E+03  0.91654876139E+02 0.  0.
          1    1    3    3  502    0 -0.93581255814E+02  0.11346028992E+03 -0.81133794853E+03  0.82456046203E+03  0.00000000000E+00 0. -1.
         -1    1    3    3    0  502 -0.12110195625E+03  0.12160977047E+03 -0.64383561549E+03  0.66631743175E+03  0.00000000000E+00 0.  1.
         13    1    5    5    0    0 -0.31243104063E+02 -0.10083044171E+03 -0.73661055358E+02  0.12872008625E+03  0.00000000000E+00 0. -1.
        -13    1    5    5    0    0 -0.11487640540E+03 -0.69008262090E+02 -0.13744946640E+03  0.19196636312E+03  0.00000000000E+00 0.  1.
          1    1    6    6  503    0  0.86492338589E+02 -0.52764770282E+02  0.28083602151E+02  0.10513674109E+03  0.00000000000E+00 0. -1.
         -1    1    6    6    0  503  0.27431038294E+03 -0.12466586303E+02  0.11010561157E+02  0.27481418162E+03  0.00000000000E+00 0.  1.
<mgrwt>
<rscale>  0 0.46708874E+03</rscale>
<asrwt>0</asrwt>
<pdfrwt beam="1">  1        2 0.29374654E+00 0.46708874E+03</pdfrwt>
<pdfrwt beam="2">  1       -2 0.43409644E-01 0.46708874E+03</pdfrwt>
<totfact> 0.40612931E+01</totfact>
</mgrwt>
</event>
<event>
12    1  0.1335216E-007  0.5347455E+03  0.7818608E-02  0.1005088E+00
         -1   -1    0    0    0  501 -0.00000000000E+00  0.00000000000E+00  0.34018071929E+03  0.34018071929E+03  0.00000000000E+00 0.  1.
          1   -1    0    0  501    0  0.00000000000E+00 -0.00000000000E+00 -0.13779893934E+04  0.13779893934E+04  0.00000000000E+00 0. -1.
         23    2    1    2    0    0  0.28632807942E+03 -0.43966739180E+03 -0.21654396027E+03  0.57389783569E+03  0.84712777106E+02 0.  0.
    5000000    2    1    2    0    0 -0.28632807942E+03  0.43966739180E+03 -0.82126471385E+03  0.11442722770E+04  0.59966001137E+03 0.  0.
         23    2    4    4    0    0 -0.16510613347E+03  0.32326570101E+03 -0.84570042137E+02  0.38251220110E+03  0.86039195748E+02 0.  0.
         23    2    4    4    0    0 -0.12122194594E+03  0.11640169080E+03 -0.73669467172E+03  0.76176007591E+03  0.96515595214E+02 0.  0.
          3    1    3    3  502    0  0.20603812162E+03 -0.24254933838E+03 -0.14044424893E+03  0.34785985133E+03  0.00000000000E+00 0. -1.
         -3    1    3    3    0  502  0.80289957794E+02 -0.19711805343E+03 -0.76099711345E+02  0.22603798437E+03  0.00000000000E+00 0.  1.
         11    1    5    5    0    0 -0.44495350488E+02  0.16368885280E+03 -0.64503547261E+02  0.18147888129E+03  0.00000000000E+00 0.  1.
        -11    1    5    5    0    0 -0.12061078299E+03  0.15957684821E+03 -0.20066494876E+02  0.20103331981E+03  0.00000000000E+00 0. -1.
          2    1    6    6  503    0 -0.72962856466E+02  0.80132718832E+02 -0.62927884658E+03  0.63854263585E+03  0.00000000000E+00 0. -1.
         -2    1    6    6    0  503 -0.48259089477E+02  0.36268971966E+02 -0.10741582514E+03  0.12321744006E+03  0.00000000000E+00 0.  1.
<mgrwt>
<rscale>  0 0.53474553E+03</rscale>
<asrwt>0</asrwt>
<pdfrwt beam="1">  1        1 0.21199836E+00 0.53474553E+03</pdfrwt>
<pdfrwt beam="2">  1       -1 0.52335497E-01 0.53474553E+03</pdfrwt>
<totfact> 0.31111367E+01</totfact>
</mgrwt>
</event>
<event>
12    1  0.1335216E-007  0.3947770E+03  0.7818608E-02  0.1045603E+00
         -2   -1    0    0    0  501 -0.00000000000E+00  0.00000000000E+00  0.41146969074E+03  0.41146969074E+03  0.00000000000E+00 0.  1.
          2   -1    0    0  501    0  0.00000000000E+00 -0.00000000000E+00 -0.81422465369E+03  0.81422465369E+03  0.00000000000E+00 0. -1.
         23    2    1    2    0    0  0.97059184910E+02  0.24078998344E+03  0.19691493162E+03  0.33855140179E+03  0.91876329144E+02 0.  0.
    5000000    2    1    2    0    0 -0.97059184910E+02 -0.24078998344E+03 -0.59966989458E+03  0.88714294264E+03  0.60001526374E+03 0.  0.
         23    2    4    4    0    0 -0.50585056868E+02 -0.37111523184E+03 -0.61139443634E+03  0.72221016245E+03  0.86596759018E+02 0.  0.
         23    2    4    4    0    0 -0.46474128042E+02  0.13032524840E+03  0.11724541769E+02  0.16493278020E+03  0.88999113229E+02 0.  0.
          3    1    3    3  502    0  0.40426067954E+02  0.76691447979E+02  0.12155564108E+03  0.14930378107E+03  0.00000000000E+00 0. -1.
         -3    1    3    3    0  502  0.56633116957E+02  0.16409853546E+03  0.75359290540E+02  0.18924762071E+03  0.00000000000E+00 0.  1.
         13    1    5    5    0    0 -0.92629954019E+01 -0.12155526852E+03 -0.27932105397E+03  0.30476505308E+03  0.00000000000E+00 0. -1.
        -13    1    5    5    0    0 -0.41322061466E+02 -0.24955996331E+03 -0.33207338237E+03  0.41744510937E+03  0.00000000000E+00 0.  1.
          4    1    6    6  503    0  0.79734198217E+01  0.79551852373E+02 -0.22411151192E+02  0.83032116301E+02  0.00000000000E+00 0. -1.
         -4    1    6    6    0  503 -0.54447547864E+02  0.50773396026E+02  0.34135692960E+02  0.81900663894E+02  0.00000000000E+00 0.  1.
<mgrwt>
<rscale>  0 0.39477699E+03</rscale>
<asrwt>0</asrwt>
<pdfrwt beam="1">  1        2 0.12526533E+00 0.39477699E+03</pdfrwt>
<pdfrwt beam="2">  1       -2 0.63303030E-01 0.39477699E+03</pdfrwt>
<totfact> 0.81459466E+01</totfact>
</mgrwt>
</event>
<event>
12    1  0.1335216E-007  0.3002677E+04  0.7818608E-02  0.8242967E-01
          2   -1    0    0  501    0  0.00000000000E+00  0.00000000000E+00  0.29507167022E+04  0.29507167022E+04  0.00000000000E+00 0.  1.
         -2   -1    0    0    0  501 -0.00000000000E+00 -0.00000000000E+00 -0.30739974539E+04  0.30739974539E+04  0.00000000000E+00 0. -1.
         23    2    1    2    0    0 -0.29721735144E+04  0.10565612710E+03  0.14475604294E+03  0.29789207167E+04  0.89642106348E+02 0.  0.
    5000000    2    1    2    0    0  0.29721735144E+04 -0.10565612710E+03 -0.26803679463E+03  0.30457934395E+04  0.60002944562E+03 0.  0.
         23    2    4    4    0    0  0.23295152018E+03 -0.15273481275E+03  0.74351865056E+01  0.29075482530E+03  0.82998509961E+02 0.  0.
         23    2    4    4    0    0  0.27392219942E+04  0.47078685656E+02 -0.27547198113E+03  0.27550386142E+04  0.93805206655E+02 0.  0.
          4    1    3    3  502    0 -0.80825793297E+03 -0.44501584510E+01  0.61505061967E+02  0.81060691014E+03  0.00000000000E+00 0. -1.
         -4    1    3    3    0  502 -0.21639155815E+04  0.11010628555E+03  0.83250980969E+02  0.21683138065E+04  0.00000000000E+00 0.  1.
         11    1    5    5    0    0  0.12355633784E+03 -0.12706288342E+03 -0.75519224491E+01  0.17739271827E+03  0.00000000000E+00 0. -1.
        -11    1    5    5    0    0  0.10939518234E+03 -0.25671929334E+02  0.14987108955E+02  0.11336210703E+03  0.00000000000E+00 0.  1.
          3    1    6    6  503    0  0.72368268385E+03 -0.22449351014E+02 -0.95119644518E+02  0.73025224891E+03  0.00000000000E+00 0. -1.
         -3    1    6    6    0  503  0.20155393104E+04  0.69528036670E+02 -0.18035233661E+03  0.20247863653E+04  0.00000000000E+00 0.  1.
<mgrwt>
<rscale>  0 0.30026766E+04</rscale>
<asrwt>0</asrwt>
<pdfrwt beam="1">  1        2 0.45395642E+00 0.30026766E+04</pdfrwt>
<pdfrwt beam="2">  1       -2 0.47292269E+00 0.30026766E+04</pdfrwt>
<totfact> 0.36376353E-03</totfact>
</mgrwt>
</event>
<event>
12    1  0.1335216E-007  0.1293573E+04  0.7818608E-02  0.9034677E-01
          1   -1    0    0  501    0  0.00000000000E+00  0.00000000000E+00  0.17224786912E+04  0.17224786912E+04  0.00000000000E+00 0. -1.
         -1   -1    0    0    0  501 -0.00000000000E+00 -0.00000000000E+00 -0.10066723996E+04  0.10066723996E+04  0.00000000000E+00 0.  1.
         23    2    1    2    0    0  0.20824572286E+03 -0.12277565513E+04  0.27717989163E+03  0.12789158310E+04  0.89691583517E+02 0.  0.
    5000000    2    1    2    0    0 -0.20824572286E+03  0.12277565513E+04  0.43862639991E+03  0.14502352598E+04  0.60003063249E+03 0.  0.
         23    2    4    4    0    0  0.14349728198E+03  0.61423683565E+03  0.36225609969E+03  0.73327413621E+03  0.92645112465E+02 0.  0.
         23    2    4    4    0    0 -0.35174300483E+03  0.61351971562E+03  0.76370300218E+02  0.71696112363E+03  0.89840119914E+02 0.  0.
          1    1    3    3  502    0  0.79660970742E+02 -0.47392702413E+03  0.62404406422E+02  0.48461015714E+03  0.00000000000E+00 0. -1.
         -1    1    3    3    0  502  0.12858475211E+03 -0.75382952714E+03  0.21477548521E+03  0.79430567385E+03  0.00000000000E+00 0.  1.
         11    1    5    5    0    0  0.98355709752E+02  0.47383684621E+03  0.23272480801E+03  0.53698793164E+03  0.00000000000E+00 0.  1.
        -11    1    5    5    0    0  0.45141572225E+02  0.14039998944E+03  0.12953129168E+03  0.19628620457E+03  0.00000000000E+00 0. -1.
          3    1    6    6  503    0 -0.30001827531E+03  0.46711393587E+03  0.84086388171E+02  0.56149524956E+03  0.00000000000E+00 0. -1.
         -3    1    6    6    0  503 -0.51724729520E+02  0.14640577975E+03 -0.77160879528E+01  0.15546587407E+03  0.00000000000E+00 0.  1.
<mgrwt>
<rscale>  0 0.12935732E+04</rscale>
<asrwt>0</asrwt>
<pdfrwt beam="1">  1        1 0.26499672E+00 0.12935732E+04</pdfrwt>
<pdfrwt beam="2">  1       -1 0.15487268E+00 0.12935732E+04</pdfrwt>
<totfact> 0.14283454E+00</totfact>
</mgrwt>
</event>
<event>
12    1  0.1335216E-007  0.4688813E+03  0.7818608E-02  0.1022236E+00
         -2   -1    0    0    0  501 -0.00000000000E+00  0.00000000000E+00  0.17576980875E+03  0.17576980875E+03  0.00000000000E+00 0.  1.
          2   -1    0    0  501    0  0.00000000000E+00 -0.00000000000E+00 -0.24179866701E+04  0.24179866701E+04  0.00000000000E+00 0. -1.
         23    2    1    2    0    0 -0.31067784579E+03 -0.47562084207E+02 -0.16855288620E+04  0.17170419250E+04  0.91883360770E+02 0.  0.
    5000000    2    1    2    0    0  0.31067784579E+03  0.47562084207E+02 -0.55668799933E+03  0.87671455380E+03  0.59995333529E+03 0.  0.
         23    2    4    4    0    0  0.31511653083E+03 -0.19872623466E+03 -0.19253805661E+03  0.42839711137E+03  0.87536492035E+02 0.  0.
         23    2    4    4    0    0 -0.44386850431E+01  0.24628831887E+03 -0.36414994272E+03  0.44831744243E+03  0.87782176279E+02 0.  0.
          2    1    3    3  502    0 -0.21160327264E+03 -0.35005584309E+02 -0.90068248085E+03  0.92586730541E+03  0.00000000000E+00 0. -1.
         -2    1    3    3    0  502 -0.99074573154E+02 -0.12556499898E+02 -0.78484638113E+03  0.79117461961E+03  0.00000000000E+00 0.  1.
         13    1    5    5    0    0  0.87019702701E+02 -0.81712875550E+02 -0.24460586203E+02  0.12185131500E+03  0.00000000000E+00 0.  1.
        -13    1    5    5    0    0  0.22809682813E+03 -0.11701335911E+03 -0.16807747041E+03  0.30654579637E+03  0.00000000000E+00 0. -1.
          3    1    6    6  503    0  0.10680837843E+02  0.12573598167E+03 -0.25705599292E+03  0.28635886730E+03  0.00000000000E+00 0. -1.
         -3    1    6    6    0  503 -0.15119522887E+02  0.12055233720E+03 -0.10709394980E+03  0.16195857513E+03  0.00000000000E+00 0.  1.
<mgrwt>
<rscale>  0 0.46888127E+03</rscale>
<asrwt>0</asrwt>
<pdfrwt beam="1">  1        2 0.37199793E+00 0.46888127E+03</pdfrwt>
<pdfrwt beam="2">  1       -2 0.27041511E-01 0.46888127E+03</pdfrwt>
<totfact> 0.52479194E+01</totfact>
</mgrwt>
</event>
<event>
12    1  0.1335216E-007  0.3207486E+03  0.7818608E-02  0.1075305E+00
         -2   -1    0    0    0  501 -0.00000000000E+00  0.00000000000E+00  0.30902264931E+03  0.30902264931E+03  0.00000000000E+00 0. -1.
          2   -1    0    0  501    0  0.00000000000E+00 -0.00000000000E+00 -0.23236589307E+04  0.23236589307E+04  0.00000000000E+00 0.  1.
         23    2    1    2    0    0 -0.32218241369E+02 -0.30303660032E+03  0.16041600909E+03  0.35596225116E+03  0.90036837298E+02 0.  0.
    5000000    2    1    2    0    0  0.32218241369E+02  0.30303660032E+03 -0.21750522905E+04  0.22767193288E+04  0.59977432407E+03 0.  0.
         23    2    4    4    0    0  0.14643900117E+02  0.30599734663E+03 -0.21590499500E+04  0.21828963784E+04  0.98443344679E+02 0.  0.
         23    2    4    4    0    0  0.17574341252E+02 -0.29607463105E+01 -0.16002340466E+02  0.93822950471E+02  0.90714098384E+02 0.  0.
          2    1    3    3  502    0 -0.38732505447E+02 -0.76058633591E+02  0.15949625087E+02  0.86830370622E+02  0.00000000000E+00 0.  1.
         -2    1    3    3    0  502  0.65142640782E+01 -0.22697796672E+03  0.14446638400E+03  0.26913188054E+03  0.00000000000E+00 0. -1.
         13    1    5    5    0    0  0.95791573836E+01  0.84781085981E+02 -0.94520501597E+03  0.94904800459E+03  0.00000000000E+00 0. -1.
        -13    1    5    5    0    0  0.50647427338E+01  0.22121626065E+03 -0.12138449341E+04  0.12338483738E+04  0.00000000000E+00 0.  1.
          1    1    6    6  503    0  0.18986509550E+02 -0.53295472253E+01 -0.53089295103E+02  0.56633601978E+02  0.00000000000E+00 0. -1.
         -1    1    6    6    0  503 -0.14121682980E+01  0.23688009148E+01  0.37086954637E+02  0.37189348493E+02  0.00000000000E+00 0.  1.
<mgrwt>
<rscale>  0 0.32074862E+03</rscale>
<asrwt>0</asrwt>
<pdfrwt beam="1">  1        2 0.35748599E+00 0.32074862E+03</pdfrwt>
<pdfrwt beam="2">  1       -2 0.47541946E-01 0.32074862E+03</pdfrwt>
<totfact> 0.21141155E+01</totfact>
</mgrwt>
</event>
<event>
12    1  0.1335216E-007  0.5834441E+03  0.7818608E-02  0.9940362E-01
         -1   -1    0    0    0  501 -0.00000000000E+00  0.00000000000E+00  0.51756430825E+03  0.51756430825E+03  0.00000000000E+00 0.  1.
          1   -1    0    0  501    0  0.00000000000E+00 -0.00000000000E+00 -0.94159964440E+03  0.94159964440E+03  0.00000000000E+00 0. -1.
         23    2    1    2    0    0 -0.33130722221E+03 -0.36952937664E+03 -0.45518596639E+03  0.67989438254E+03  0.93518296206E+02 0.  0.
    5000000    2    1    2    0    0  0.33130722221E+03  0.36952937664E+03  0.31150630238E+02  0.77926957011E+03  0.59997855415E+03 0.  0.
         23    2    4    4    0    0 -0.23037021956E+02  0.30017531034E+03 -0.16832244491E+03  0.35696890867E+03  0.91969750333E+02 0.  0.
         23    2    4    4    0    0  0.35434424417E+03  0.69354066302E+02  0.19947307515E+03  0.42230066144E+03  0.90435120696E+02 0.  0.
          1    1    3    3  502    0 -0.30789273441E+03 -0.30289781021E+03 -0.41321419853E+03  0.59773823134E+03  0.00000000000E+00 0. -1.
         -1    1    3    3    0  502 -0.23414487799E+02 -0.66631566428E+02 -0.41971767860E+02  0.82156151205E+02  0.00000000000E+00 0.  1.
         11    1    5    5    0    0 -0.94639773635E+01  0.22378224210E+03 -0.76344818437E+02  0.23663598638E+03  0.00000000000E+00 0. -1.
        -11    1    5    5    0    0 -0.13573044592E+02  0.76393068236E+02 -0.91977626477E+02  0.12033292229E+03  0.00000000000E+00 0.  1.
          1    1    6    6  503    0  0.32415239811E+03  0.53035902446E+02  0.20550785072E+03  0.38745459199E+03  0.00000000000E+00 0. -1.
         -1    1    6    6    0  503  0.30191846056E+02  0.16318163856E+02 -0.60347755642E+01  0.34846069449E+02  0.00000000000E+00 0.  1.
<mgrwt>
<rscale>  0 0.58344406E+03</rscale>
<asrwt>0</asrwt>
<pdfrwt beam="1">  1        1 0.14486148E+00 0.58344406E+03</pdfrwt>
<pdfrwt beam="2">  1       -1 0.79625279E-01 0.58344406E+03</pdfrwt>
<totfact> 0.27822280E+01</totfact>
</mgrwt>
</event>
<event>
12    1  0.1335216E-007  0.8593161E+03  0.7818608E-02  0.9477918E-01
         -2   -1    0    0    0  501 -0.00000000000E+00  0.00000000000E+00  0.13820310655E+04  0.13820310655E+04  0.00000000000E+00 0.  1.
          2   -1    0    0  501    0  0.00000000000E+00 -0.00000000000E+00 -0.64576538007E+03  0.64576538007E+03  0.00000000000E+00 0. -1.
         23    2    1    2    0    0 -0.61034773705E+03 -0.53947546593E+03  0.84291618255E+02  0.82425919233E+03  0.93487971257E+02 0.  0.
    5000000    2    1    2    0    0  0.61034773705E+03  0.53947546593E+03  0.65197406720E+03  0.12035372533E+04  0.59989465513E+03 0.  0.
         23    2    4    4    0    0  0.34365871881E+02  0.25959701026E+03 -0.10644669716E+02  0.27761757320E+03  0.91578311156E+02 0.  0.
         23    2    4    4    0    0  0.57598186517E+03  0.27987845567E+03  0.66261873692E+03  0.92591968007E+03  0.90424578946E+02 0.  0.
          4    1    3    3  502    0 -0.53370058773E+03 -0.48910705033E+03  0.10131647520E+03  0.73097677950E+03  0.00000000000E+00 0. -1.
         -4    1    3    3    0  502 -0.76647149315E+02 -0.50368415599E+02 -0.17024856943E+02  0.93282412823E+02  0.00000000000E+00 0.  1.
         13    1    5    5    0    0  0.56993668517E+01  0.11840064920E+03 -0.49399593639E+02  0.12841929904E+03  0.00000000000E+00 0. -1.
        -13    1    5    5    0    0  0.28666505029E+02  0.14119636105E+03  0.38754923923E+02  0.14919827416E+03  0.00000000000E+00 0.  1.
          2    1    6    6  503    0  0.31818549558E+03  0.15438472893E+03  0.30088467854E+03  0.46433634782E+03  0.00000000000E+00 0.  1.
         -2    1    6    6    0  503  0.25779636958E+03  0.12549372675E+03  0.36173405837E+03  0.46158333225E+03  0.00000000000E+00 0. -1.
<mgrwt>
<rscale>  0 0.85931611E+03</rscale>
<asrwt>0</asrwt>
<pdfrwt beam="1">  1        2 0.99348520E-01 0.85931611E+03</pdfrwt>
<pdfrwt beam="2">  1       -2 0.21262016E+00 0.85931611E+03</pdfrwt>
<totfact> 0.50394109E+00</totfact>
</mgrwt>
</event>
<event>
12    1  0.1335216E-007  0.2674881E+03  0.7818608E-02  0.1102726E+00
          2   -1    0    0  501    0  0.00000000000E+00  0.00000000000E+00  0.11159774102E+04  0.11159774102E+04  0.00000000000E+00 0. -1.
         -2   -1    0    0    0  501 -0.00000000000E+00 -0.00000000000E+00 -0.23350622412E+03  0.23350622412E+03  0.00000000000E+00 0.  1.
         23    2    1    2    0    0 -0.34915833792E+02  0.23500446448E+03  0.58683257138E+03  0.63981848835E+03  0.92460896737E+02 0.  0.
    5000000    2    1    2    0    0  0.34915833792E+02 -0.23500446448E+03  0.29563861473E+03  0.70966514601E+03  0.59981348365E+03 0.  0.
         23    2    4    4    0    0  0.77831212534E+02 -0.10347362353E+03 -0.15695354127E+03  0.22773933887E+03  0.10230495558E+03 0.  0.
         23    2    4    4    0    0 -0.42915378742E+02 -0.13153084095E+03  0.45259215601E+03  0.48192580714E+03  0.90943565246E+02 0.  0.
          1    1    3    3  502    0 -0.28176630193E+02  0.16126506685E+03  0.28155803884E+03  0.32569199178E+03  0.00000000000E+00 0. -1.
         -1    1    3    3    0  502 -0.67392035989E+01  0.73739397631E+02  0.30527453254E+03  0.31412649657E+03  0.00000000000E+00 0.  1.
         13    1    5    5    0    0  0.30890245052E+01 -0.20133464425E+02 -0.10016062457E+03  0.10221080753E+03  0.00000000000E+00 0.  1.
        -13    1    5    5    0    0  0.74742188029E+02 -0.83340159109E+02 -0.56792916708E+02  0.12552853134E+03  0.00000000000E+00 0. -1.
          1    1    6    6  503    0  0.17926706155E+02 -0.88716487208E+02  0.22680389971E+03  0.24419662328E+03  0.00000000000E+00 0. -1.
         -1    1    6    6    0  503 -0.60842084898E+02 -0.42814353742E+02  0.22578825630E+03  0.23772918387E+03  0.00000000000E+00 0.  1.
<mgrwt>
<rscale>  0 0.26748809E+03</rscale>
<asrwt>0</asrwt>
<pdfrwt beam="1">  1        2 0.17168883E+00 0.26748809E+03</pdfrwt>
<pdfrwt beam="2">  1       -2 0.35924035E-01 0.26748809E+03</pdfrwt>
<totfact> 0.16536685E+02</totfact>
</mgrwt>
</event>
<event>
12    1  0.1335216E-007  0.6931703E+03  0.7818608E-02  0.9728984E-01
          1   -1    0    0  501    0  0.00000000000E+00  0.00000000000E+00  0.39108977396E+03  0.39108977396E+03  0.00000000000E+00 0. -1.
         -1   -1    0    0    0  501 -0.00000000000E+00 -0.00000000000E+00 -0.18300677852E+04  0.18300677852E+04  0.00000000000E+00 0.  1.
         23    2    1    2    0    0 -0.19801671925E+03 -0.56805232396E+03 -0.11894019878E+04  0.13358868050E+04  0.89567870499E+02 0.  0.
    5000000    2    1    2    0    0  0.19801671925E+03  0.56805232396E+03 -0.24957602346E+03  0.88527075414E+03  0.59960157837E+03 0.  0.
         23    2    4    4    0    0  0.34491155681E+03  0.24108049930E+03  0.14936639349E+02  0.43059167232E+03  0.90012754182E+02 0.  0.
         23    2    4    4    0    0 -0.14689483755E+03  0.32697182466E+03 -0.26451266280E+03  0.45467908181E+03  0.90980499178E+02 0.  0.
          4    1    3    3  502    0 -0.11987518389E+03 -0.28526468723E+03 -0.69897629096E+03  0.76440424961E+03  0.00000000000E+00 0. -1.
         -4    1    3    3    0  502 -0.78141535363E+02 -0.28278763674E+03 -0.49042569680E+03  0.57148255539E+03  0.00000000000E+00 0.  1.
         13    1    5    5    0    0  0.26343467205E+03  0.20277199535E+03  0.45446968438E+02  0.33552903820E+03  0.00000000000E+00 0.  1.
        -13    1    5    5    0    0  0.81476884761E+02  0.38308503951E+02 -0.30510329089E+02  0.95062634123E+02  0.00000000000E+00 0. -1.
          3    1    6    6  503    0 -0.76651732373E+02  0.22102389490E+03 -0.21665106397E+03  0.31884907670E+03  0.00000000000E+00 0. -1.
         -3    1    6    6    0  503 -0.70243105182E+02  0.10594792976E+03 -0.47861598838E+02  0.13583000511E+03  0.00000000000E+00 0.  1.
<mgrwt>
<rscale>  0 0.69317032E+03</rscale>
<asrwt>0</asrwt>
<pdfrwt beam="1">  1        1 0.60167658E-01 0.69317032E+03</pdfrwt>
<pdfrwt beam="2">  1       -1 0.28154889E+00 0.69317032E+03</pdfrwt>
<totfact> 0.28413747E+00</totfact>
</mgrwt>
</event>
<event>
12    1  0.1335216E-007  0.6171583E+03  0.7818608E-02  0.9870434E-01
         -1   -1    0    0    0  501 -0.00000000000E+00  0.00000000000E+00  0.35536699130E+03  0.35536699130E+03  0.00000000000E+00 0.  1.
          1   -1    0    0  501    0  0.00000000000E+00 -0.00000000000E+00 -0.17891768856E+04  0.17891768856E+04  0.00000000000E+00 0. -1.
         23    2    1    2    0    0 -0.41719608057E+03 -0.29635261947E+03 -0.12220352069E+04  0.13280387519E+04  0.91866397557E+02 0.  0.
    5000000    2    1    2    0    0  0.41719608057E+03  0.29635261947E+03 -0.21177468746E+03  0.81650512504E+03  0.59996221236E+03 0.  0.
         23    2    4    4    0    0  0.42525734425E+03  0.85941662235E+01 -0.26474384436E+03  0.50934294783E+03  0.91778357177E+02 0.  0.
         23    2    4    4    0    0 -0.80612636856E+01  0.28775845324E+03  0.52969156893E+02  0.30716217721E+03  0.93128728869E+02 0.  0.
          2    1    3    3  502    0 -0.16351595739E+03 -0.16514503301E+03 -0.49207148773E+03  0.54419178539E+03  0.00000000000E+00 0.  1.
         -2    1    3    3    0  502 -0.25368012318E+03 -0.13120758646E+03 -0.72996371915E+03  0.78384696651E+03  0.00000000000E+00 0. -1.
         13    1    5    5    0    0  0.19158786653E+03 -0.50682371577E+01 -0.67323017259E+02  0.20313538905E+03  0.00000000000E+00 0. -1.
        -13    1    5    5    0    0  0.23366947772E+03  0.13662403381E+02 -0.19742082710E+03  0.30620755878E+03  0.00000000000E+00 0.  1.
          1    1    6    6  503    0  0.81761940156E+01  0.24012068795E+03  0.91558521943E+01  0.24043424166E+03  0.00000000000E+00 0. -1.
         -1    1    6    6    0  503 -0.16237457701E+02  0.47637765289E+02  0.43813304699E+02  0.66727935552E+02  0.00000000000E+00 0.  1.
<mgrwt>
<rscale>  0 0.61715826E+03</rscale>
<asrwt>0</asrwt>
<pdfrwt beam="1">  1        1 0.27525798E+00 0.61715826E+03</pdfrwt>
<pdfrwt beam="2">  1       -1 0.54671846E-01 0.61715826E+03</pdfrwt>
<totfact> 0.14885076E+01</totfact>
</mgrwt>
</event>
<event>
12    1  0.1335216E-007  0.1362689E+04  0.7818608E-02  0.8981278E-01
          2   -1    0    0  501    0  0.00000000000E+00  0.00000000000E+00  0.15978352462E+04  0.15978352462E+04  0.00000000000E+00 0. -1.
         -2   -1    0    0    0  501 -0.00000000000E+00 -0.00000000000E+00 -0.11755122047E+04  0.11755122047E+04  0.00000000000E+00 0.  1.
         23    2    1    2    0    0  0.49976102304E+02  0.12975952573E+04  0.90475918836E+02  0.13048936606E+04  0.91162004942E+02 0.  0.
    5000000    2    1    2    0    0 -0.49976102304E+02 -0.12975952573E+04  0.33184712270E+03  0.14684537903E+04  0.59998579897E+03 0.  0.
         23    2    4    4    0    0 -0.31172377514E+03 -0.70725321062E+03  0.17240784003E+03  0.79706096045E+03  0.90569837429E+02 0.  0.
         23    2    4    4    0    0  0.26174767284E+03 -0.59034204665E+03  0.15943928267E+03  0.67139282987E+03  0.91279082257E+02 0.  0.
          2    1    3    3  502    0  0.52742348278E+02  0.34492073045E+03  0.32881577966E+02  0.35047576773E+03  0.00000000000E+00 0. -1.
         -2    1    3    3    0  502 -0.27662459743E+01  0.95267452683E+03  0.57594340870E+02  0.95441789290E+03  0.00000000000E+00 0.  1.
         11    1    5    5    0    0 -0.13621523200E+02 -0.21682593628E+02 -0.10102837422E+02  0.27527224428E+02  0.00000000000E+00 0.  1.
        -11    1    5    5    0    0 -0.29810225194E+03 -0.68557061699E+03  0.18251067745E+03  0.76953373603E+03  0.00000000000E+00 0. -1.
          1    1    6    6  503    0  0.11135170506E+03 -0.34789233316E+03  0.11279375753E+03  0.38229662492E+03  0.00000000000E+00 0. -1.
         -1    1    6    6    0  503  0.15039596778E+03 -0.24244971349E+03  0.46645525143E+02  0.28909620494E+03  0.00000000000E+00 0.  1.
<mgrwt>
<rscale>  0 0.13626894E+04</rscale>
<asrwt>0</asrwt>
<pdfrwt beam="1">  1        2 0.24582081E+00 0.13626894E+04</pdfrwt>
<pdfrwt beam="2">  1       -2 0.18084803E+00 0.13626894E+04</pdfrwt>
<totfact> 0.19099738E+00</totfact>
</mgrwt>
</event>
<event>
12    1  0.1335216E-007  0.6974905E+03  0.7818608E-02  0.9721533E-01
         -2   -1    0    0    0  501 -0.00000000000E+00  0.00000000000E+00  0.69217719628E+03  0.69217719628E+03  0.00000000000E+00 0.  1.
          2   -1    0    0  501    0  0.00000000000E+00 -0.00000000000E+00 -0.87849259391E+03  0.87849259391E+03  0.00000000000E+00 0. -1.
         23    2    1    2    0    0 -0.48961501524E+03  0.35849920385E+03 -0.34288734839E+03  0.70302733972E+03  0.91821372265E+02 0.  0.
    5000000    2    1    2    0    0  0.48961501524E+03 -0.35849920385E+03  0.15657195076E+03  0.86764245046E+03  0.60003675201E+03 0.  0.
         23    2    4    4    0    0  0.47054018837E+03 -0.67309925063E+02  0.25559715822E+03  0.54745138279E+03  0.91839067672E+02 0.  0.
         23    2    4    4    0    0  0.19074826875E+02 -0.29118927879E+03 -0.99025207462E+02  0.32019106767E+03  0.86955638115E+02 0.  0.
          1    1    3    3  502    0 -0.27310105628E+03  0.20985646196E+03 -0.14272960193E+03  0.37282121832E+03  0.00000000000E+00 0. -1.
         -1    1    3    3    0  502 -0.21651395897E+03  0.14864274189E+03 -0.20015774646E+03  0.33020612140E+03  0.00000000000E+00 0.  1.
         13    1    5    5    0    0  0.34748883280E+03 -0.89795836800E+02  0.19502478030E+03  0.40846841513E+03  0.00000000000E+00 0. -1.
        -13    1    5    5    0    0  0.12305135557E+03  0.22485911737E+02  0.60572377922E+02  0.13898296767E+03  0.00000000000E+00 0.  1.
          1    1    6    6  503    0 -0.31017527216E+02 -0.61787305244E+02 -0.14549397645E+02  0.70650145476E+02  0.00000000000E+00 0. -1.
         -1    1    6    6    0  503  0.50092354091E+02 -0.22940197354E+03 -0.84475809817E+02  0.24954092219E+03  0.00000000000E+00 0.  1.
<mgrwt>
<rscale>  0 0.69749051E+03</rscale>
<asrwt>0</asrwt>
<pdfrwt beam="1">  1        2 0.13515271E+00 0.69749051E+03</pdfrwt>
<pdfrwt beam="2">  1       -2 0.10648880E+00 0.69749051E+03</pdfrwt>
<totfact> 0.21996303E+01</totfact>
</mgrwt>
</event>
<event>
12    1  0.1335216E-007  0.1052216E+04  0.7818608E-02  0.9253059E-01
         -1   -1    0    0    0  501 -0.00000000000E+00  0.00000000000E+00  0.93378221457E+03  0.93378221457E+03  0.00000000000E+00 0.  1.
          1   -1    0    0  501    0  0.00000000000E+00 -0.00000000000E+00 -0.25029269856E+04  0.25029269856E+04  0.00000000000E+00 0. -1.
         23    2    1    2    0    0 -0.26981189567E+03 -0.93266185601E+03  0.48329937233E+03  0.10882567976E+04  0.89821921054E+02 0.  0.
    5000000    2    1    2    0    0  0.26981189567E+03  0.93266185601E+03 -0.20524441433E+04  0.23484524025E+04  0.60003760619E+03 0.  0.
         23    2    4    4    0    0 -0.17445465318E+03  0.32789537526E+03 -0.77948820692E+03  0.86812580659E+03  0.89948586457E+02 0.  0.
         23    2    4    4    0    0  0.44426654885E+03  0.60476648075E+03 -0.12729559364E+04  0.14803265960E+04  0.88514134460E+02 0.  0.
          3    1    3    3  502    0 -0.21138286457E+03 -0.70112793925E+03  0.32121617648E+03  0.79965175837E+03  0.00000000000E+00 0. -1.
         -3    1    3    3    0  502 -0.58429031098E+02 -0.23153391676E+03  0.16208319585E+03  0.28860503922E+03  0.00000000000E+00 0.  1.
         13    1    5    5    0    0 -0.12869206890E+03  0.16588180163E+03 -0.49284237471E+03  0.53569770116E+03  0.00000000000E+00 0.  1.
        -13    1    5    5    0    0 -0.45762584271E+02  0.16201357363E+03 -0.28664583221E+03  0.33242810543E+03  0.00000000000E+00 0. -1.
          1    1    6    6  503    0  0.22656891171E+03  0.37791213052E+03 -0.77115530689E+03  0.88816189825E+03  0.00000000000E+00 0. -1.
         -1    1    6    6    0  503  0.21769763714E+03  0.22685435023E+03 -0.50180062951E+03  0.59216469770E+03  0.00000000000E+00 0.  1.
<mgrwt>
<rscale>  0 0.10522159E+04</rscale>
<asrwt>0</asrwt>
<pdfrwt beam="1">  1        1 0.38506569E+00 0.10522159E+04</pdfrwt>
<pdfrwt beam="2">  1       -1 0.14365880E+00 0.10522159E+04</pdfrwt>
<totfact> 0.53310563E-01</totfact>
</mgrwt>
</event>
<event>
12    1  0.1335216E-007  0.1174689E+04  0.7818608E-02  0.9135304E-01
          1   -1    0    0  501    0  0.00000000000E+00  0.00000000000E+00  0.86107079724E+03  0.86107079724E+03  0.00000000000E+00 0. -1.
         -1   -1    0    0    0  501 -0.00000000000E+00 -0.00000000000E+00 -0.16915191440E+04  0.16915191440E+04  0.00000000000E+00 0.  1.
         23    2    1    2    0    0 -0.68168388085E+03 -0.86650594478E+03 -0.65435599120E+03  0.12853890035E+04  0.92291176869E+02 0.  0.
    5000000    2    1    2    0    0  0.68168388085E+03  0.86650594478E+03 -0.17609235553E+03  0.12672009377E+04  0.59938654737E+03 0.  0.
         23    2    4    4    0    0  0.48262986867E+03  0.16234136164E+03 -0.57823044161E+02  0.52041960374E+03  0.90591123694E+02 0.  0.
         23    2    4    4    0    0  0.19905401218E+03  0.70416458314E+03 -0.11826931137E+03  0.74678133399E+03  0.90688868489E+02 0.  0.
          1    1    3    3  502    0 -0.41777009530E+03 -0.59901130698E+03 -0.44588771502E+03  0.85566480168E+03  0.00000000000E+00 0. -1.
         -1    1    3    3    0  502 -0.26391378554E+03 -0.26749463780E+03 -0.20846827617E+03  0.42972420181E+03  0.00000000000E+00 0.  1.
         13    1    5    5    0    0  0.24660501826E+03  0.62456977192E+02  0.12367403384E+02  0.25469169931E+03  0.00000000000E+00 0.  1.
        -13    1    5    5    0    0  0.23602485041E+03  0.99884384445E+02 -0.70190447546E+02  0.26572790443E+03  0.00000000000E+00 0. -1.
          1    1    6    6  503    0  0.12705163920E+03  0.50838842686E+03 -0.12245952679E+03  0.53814240428E+03  0.00000000000E+00 0. -1.
         -1    1    6    6    0  503  0.72002372975E+02  0.19577615628E+03  0.41902154182E+01  0.20863892970E+03  0.00000000000E+00 0.  1.
<mgrwt>
<rscale>  0 0.11746893E+04</rscale>
<asrwt>0</asrwt>
<pdfrwt beam="1">  1        1 0.13247243E+00 0.11746893E+04</pdfrwt>
<pdfrwt beam="2">  1       -1 0.26023371E+00 0.11746893E+04</pdfrwt>
<totfact> 0.11564969E+00</totfact>
</mgrwt>
</event>
<event>
12    1  0.1335216E-007  0.5617199E+03  0.7818608E-02  0.9988171E-01
          2   -1    0    0  501    0  0.00000000000E+00  0.00000000000E+00  0.16360400302E+04  0.16360400302E+04  0.00000000000E+00 0. -1.
         -2   -1    0    0    0  501 -0.00000000000E+00 -0.00000000000E+00 -0.27756317860E+03  0.27756317860E+03  0.00000000000E+00 0.  1.
         23    2    1    2    0    0  0.31928730526E+03  0.39001839389E+03  0.29045787006E+03  0.58900633772E+03  0.92216922095E+02 0.  0.
    5000000    2    1    2    0    0 -0.31928730526E+03 -0.39001839389E+03  0.10680189815E+04  0.13245968711E+04  0.59986131320E+03 0.  0.
         23    2    4    4    0    0  0.37626894644E+02 -0.16679885870E+03  0.78769151789E+03  0.81102405193E+03  0.89802243807E+02 0.  0.
         23    2    4    4    0    0 -0.35691419990E+03 -0.22321953518E+03  0.28032746364E+03  0.51357281913E+03  0.89212368567E+02 0.  0.
          2    1    3    3  502    0  0.46804502772E+02  0.11624737069E+03  0.56955139708E+02  0.13765173668E+03  0.00000000000E+00 0. -1.
         -2    1    3    3    0  502  0.27248280249E+03  0.27377102319E+03  0.23350273035E+03  0.45135460103E+03  0.00000000000E+00 0.  1.
         11    1    5    5    0    0  0.27432610129E+02 -0.17541109727E+03  0.75726799173E+03  0.77780229650E+03  0.00000000000E+00 0.  1.
        -11    1    5    5    0    0  0.10194284516E+02  0.86122385678E+01  0.30423526160E+02  0.33221755431E+02  0.00000000000E+00 0. -1.
          1    1    6    6  503    0 -0.18223410342E+03 -0.11526514058E+03  0.90234772204E+02  0.23374694693E+03  0.00000000000E+00 0. -1.
         -1    1    6    6    0  503 -0.17468009648E+03 -0.10795439460E+03  0.19009269143E+03  0.27982587221E+03  0.00000000000E+00 0.  1.
<mgrwt>
<rscale>  0 0.56171991E+03</rscale>
<asrwt>0</asrwt>
<pdfrwt beam="1">  1        2 0.25169846E+00 0.56171991E+03</pdfrwt>
<pdfrwt beam="2">  1       -2 0.42702029E-01 0.56171991E+03</pdfrwt>
<totfact> 0.57956463E+01</totfact>
</mgrwt>
</event>
<event>
12    1  0.1335216E-007  0.7328357E+03  0.7818608E-02  0.9662670E-01
         -1   -1    0    0    0  501 -0.00000000000E+00  0.00000000000E+00  0.88493505513E+03  0.88493505513E+03  0.00000000000E+00 0. -1.
          1   -1    0    0  501    0  0.00000000000E+00 -0.00000000000E+00 -0.10448373179E+04  0.10448373179E+04  0.00000000000E+00 0.  1.
         23    2    1    2    0    0 -0.69303077000E+03 -0.61423429779E+02 -0.58864459739E+03  0.91596433363E+03  0.91780785295E+02 0.  0.
    5000000    2    1    2    0    0  0.69303077000E+03  0.61423429779E+02  0.42874233462E+03  0.10138080394E+04  0.59993521764E+03 0.  0.
         23    2    4    4    0    0  0.20466169539E+03 -0.10983873588E+03 -0.10199752786E+03  0.26688022125E+03  0.82889078546E+02 0.  0.
         23    2    4    4    0    0  0.48836907461E+03  0.17126216566E+03  0.53073986248E+03  0.74692781816E+03  0.91549339115E+02 0.  0.
          4    1    3    3  502    0 -0.53906725059E+03 -0.40328274255E+02 -0.50364302537E+03  0.73883433012E+03  0.00000000000E+00 0. -1.
         -4    1    3    3    0  502 -0.15396351941E+03 -0.21095155523E+02 -0.85001572017E+02  0.17713000351E+03  0.00000000000E+00 0.  1.
         11    1    5    5    0    0  0.39735958404E+02 -0.60978680406E+02 -0.45470919117E+02  0.85819288856E+02  0.00000000000E+00 0. -1.
        -11    1    5    5    0    0  0.16492573699E+03 -0.48860055478E+02 -0.56526608739E+02  0.18106093239E+03  0.00000000000E+00 0.  1.
          3    1    6    6  503    0  0.34026023635E+03  0.16102795329E+03  0.39720771728E+03  0.54724857318E+03  0.00000000000E+00 0. -1.
         -3    1    6    6    0  503  0.14810883826E+03  0.10234212373E+02  0.13353214520E+03  0.19967924498E+03  0.00000000000E+00 0.  1.
<mgrwt>
<rscale>  0 0.73283574E+03</rscale>
<asrwt>0</asrwt>
<pdfrwt beam="1">  1        1 0.16074420E+00 0.73283574E+03</pdfrwt>
<pdfrwt beam="2">  1       -1 0.13614385E+00 0.73283574E+03</pdfrwt>
<totfact> 0.65343616E+00</totfact>
</mgrwt>
</event>
<event>
12    1  0.1335216E-007  0.7851419E+03  0.7818608E-02  0.9581776E-01
         -1   -1    0    0    0  501 -0.00000000000E+00  0.00000000000E+00  0.44397990288E+03  0.44397990288E+03  0.00000000000E+00 0.  1.
          1   -1    0    0  501    0  0.00000000000E+00 -0.00000000000E+00 -0.20412889995E+04  0.20412889995E+04  0.00000000000E+00 0. -1.
         23    2    1    2    0    0 -0.36310130538E+03  0.64156964858E+03 -0.12857306811E+04  0.14849441714E+04  0.92204315859E+02 0.  0.
    5000000    2    1    2    0    0  0.36310130538E+03 -0.64156964858E+03 -0.31157841548E+03  0.10003247310E+04  0.60009523115E+03 0.  0.
         23    2    4    4    0    0  0.41502382668E+03 -0.39656828718E+03 -0.41335825037E+03  0.71324141038E+03  0.91307629612E+02 0.  0.
         23    2    4    4    0    0 -0.51922521293E+02 -0.24500136139E+03  0.10177983490E+03  0.28708332058E+03  0.96623407430E+02 0.  0.
          4    1    3    3  502    0 -0.80710532695E+02  0.20500228217E+03 -0.44220614978E+03  0.49405101426E+03  0.00000000000E+00 0.  1.
         -4    1    3    3    0  502 -0.28239077269E+03  0.43656736640E+03 -0.84352453137E+03  0.99089315717E+03  0.00000000000E+00 0. -1.
         11    1    5    5    0    0  0.13535068018E+03 -0.17790851249E+03 -0.12671416327E+03  0.25695860486E+03  0.00000000000E+00 0. -1.
        -11    1    5    5    0    0  0.27967314650E+03 -0.21865977470E+03 -0.28664408710E+03  0.45628280552E+03  0.00000000000E+00 0.  1.
          2    1    6    6  503    0 -0.24778834252E+02 -0.16834509849E+03  0.19289348493E+02  0.17124877161E+03  0.00000000000E+00 0. -1.
         -2    1    6    6    0  503 -0.27143687041E+02 -0.76656262897E+02  0.82490486403E+02  0.11583454897E+03  0.00000000000E+00 0.  1.
<mgrwt>
<rscale>  0 0.78514187E+03</rscale>
<asrwt>0</asrwt>
<pdfrwt beam="1">  1        1 0.31404447E+00 0.78514187E+03</pdfrwt>
<pdfrwt beam="2">  1       -1 0.68304599E-01 0.78514187E+03</pdfrwt>
<totfact> 0.63232394E+00</totfact>
</mgrwt>
</event>
<event>
12    1  0.1335216E-007  0.1477876E+04  0.7818608E-02  0.8899300E-01
          1   -1    0    0  501    0  0.00000000000E+00  0.00000000000E+00  0.18354653290E+04  0.18354653290E+04  0.00000000000E+00 0. -1.
         -1   -1    0    0    0  501 -0.00000000000E+00 -0.00000000000E+00 -0.17472170321E+04  0.17472170321E+04  0.00000000000E+00 0.  1.
         23    2    1    2    0    0 -0.52357636969E+03  0.13527659725E+04 -0.91710059332E+03  0.17185921957E+04  0.91529479593E+02 0.  0.
    5000000    2    1    2    0    0  0.52357636969E+03 -0.13527659725E+04  0.10053488902E+04  0.18640901654E+04  0.59999813546E+03 0.  0.
         23    2    4    4    0    0  0.84424492829E+02 -0.72114104666E+03  0.75141185022E+03  0.10488597611E+04  0.91187310303E+02 0.  0.
         23    2    4    4    0    0  0.43915187686E+03 -0.63162492583E+03  0.25393703999E+03  0.81523040436E+03  0.91171125005E+02 0.  0.
          4    1    3    3  502    0 -0.33344267814E+03  0.87626496994E+03 -0.64359392198E+03  0.11372059855E+04  0.00000000000E+00 0. -1.
         -4    1    3    3    0  502 -0.19013369155E+03  0.47650100255E+03 -0.27350667134E+03  0.58138621016E+03  0.00000000000E+00 0.  1.
         11    1    5    5    0    0 -0.15724255500E+02 -0.75449510636E+02  0.61162924308E+02  0.98390976091E+02  0.00000000000E+00 0. -1.
        -11    1    5    5    0    0  0.10014874833E+03 -0.64569153603E+03  0.69024892591E+03  0.95046878498E+03  0.00000000000E+00 0.  1.
          1    1    6    6  503    0 -0.22217170594E+01 -0.21616535503E+02  0.70867655555E+01  0.22856790673E+02  0.00000000000E+00 0. -1.
         -1    1    6    6    0  503  0.44137359392E+03 -0.61000839033E+03  0.24685027444E+03  0.79237361369E+03  0.00000000000E+00 0.  1.
<mgrwt>
<rscale>  0 0.14778758E+04</rscale>
<asrwt>0</asrwt>
<pdfrwt beam="1">  1        1 0.28237928E+00 0.14778758E+04</pdfrwt>
<pdfrwt beam="2">  1       -1 0.26880262E+00 0.14778758E+04</pdfrwt>
<totfact> 0.19183087E-01</totfact>
</mgrwt>
</event>
<event>
12    1  0.1335216E-007  0.4788859E+03  0.7818608E-02  0.1019442E+00
         -1   -1    0    0    0  501 -0.00000000000E+00  0.00000000000E+00  0.10779369097E+04  0.10779369097E+04  0.00000000000E+00 0. -1.
          1   -1    0    0  501    0  0.00000000000E+00 -0.00000000000E+00 -0.28503428469E+03  0.28503428469E+03  0.00000000000E+00 0.  1.
         23    2    1    2    0    0 -0.27234478894E+03 -0.26647460925E+03  0.27941062039E+03  0.48612962315E+03  0.11432984856E+03 0.  0.
    5000000    2    1    2    0    0  0.27234478894E+03  0.26647460925E+03  0.51349200458E+03  0.87684157119E+03  0.59999725063E+03 0.  0.
         23    2    4    4    0    0  0.36142776008E+03  0.12987877211E+03  0.76976685878E+02  0.40204984509E+03  0.90665023939E+02 0.  0.
         23    2    4    4    0    0 -0.89082971133E+02  0.13659583714E+03  0.43651531870E+03  0.47479172610E+03  0.91034945215E+02 0.  0.
          3    1    3    3  502    0 -0.67955281506E+02 -0.97401834232E+02  0.14902369520E+03  0.19055996255E+03  0.00000000000E+00 0. -1.
         -3    1    3    3    0  502 -0.20438950744E+03 -0.16907277502E+03  0.13038692519E+03  0.29556966060E+03  0.00000000000E+00 0.  1.
         11    1    5    5    0    0  0.15518629872E+03  0.20236423599E+02  0.60869367667E+02  0.16792075533E+03  0.00000000000E+00 0. -1.
        -11    1    5    5    0    0  0.20624146135E+03  0.10964234851E+03  0.16107318211E+02  0.23412908975E+03  0.00000000000E+00 0.  1.
          4    1    6    6  503    0 -0.36745663289E+02  0.12470448258E+03  0.26674363845E+03  0.29673830288E+03  0.00000000000E+00 0. -1.
         -4    1    6    6    0  503 -0.52337307844E+02  0.11891354558E+02  0.16977168025E+03  0.17805342322E+03  0.00000000000E+00 0.  1.
<mgrwt>
<rscale>  0 0.47888591E+03</rscale>
<asrwt>0</asrwt>
<pdfrwt beam="1">  1        1 0.43851429E-01 0.47888591E+03</pdfrwt>
<pdfrwt beam="2">  1       -1 0.16583644E+00 0.47888591E+03</pdfrwt>
<totfact> 0.26182349E+01</totfact>
</mgrwt>
</event>
<event>
12    1  0.1335216E-007  0.3454067E+03  0.7818608E-02  0.1064516E+00
          2   -1    0    0  501    0  0.00000000000E+00  0.00000000000E+00  0.58985293178E+03  0.58985293178E+03  0.00000000000E+00 0. -1.
         -2   -1    0    0    0  501 -0.00000000000E+00 -0.00000000000E+00 -0.33542751637E+03  0.33542751637E+03  0.00000000000E+00 0.  1.
         23    2    1    2    0    0 -0.93181306954E+02 -0.79512050203E+02 -0.13047836621E+03  0.20197924127E+03  0.93627387900E+02 0.  0.
    5000000    2    1    2    0    0  0.93181306954E+02  0.79512050203E+02  0.38490378162E+03  0.72330120688E+03  0.60000732719E+03 0.  0.
         23    2    4    4    0    0  0.27592011813E+03  0.16413887510E+03  0.73740945503E+02  0.34210617092E+03  0.92333218445E+02 0.  0.
         23    2    4    4    0    0 -0.18273881118E+03 -0.84626824897E+02  0.31116283611E+03  0.38119503596E+03  0.89062743369E+02 0.  0.
          4    1    3    3  502    0 -0.10507841323E+03 -0.88379719445E+02 -0.10643769458E+03  0.17372803621E+03  0.00000000000E+00 0. -1.
         -4    1    3    3    0  502  0.11897106278E+02  0.88676692428E+01 -0.24040671626E+02  0.28251205068E+02  0.00000000000E+00 0.  1.
         11    1    5    5    0    0  0.10709107017E+03  0.13766146414E+02  0.22936097428E+02  0.11038146883E+03  0.00000000000E+00 0. -1.
        -11    1    5    5    0    0  0.16882904797E+03  0.15037272869E+03  0.50804848075E+02  0.23172470209E+03  0.00000000000E+00 0.  1.
          3    1    6    6  503    0 -0.16100480073E+03 -0.60138189760E+02  0.19233063003E+03  0.25793452459E+03  0.00000000000E+00 0.  1.
         -3    1    6    6    0  503 -0.21734010452E+02 -0.24488635137E+02  0.11883220608E+03  0.12326051137E+03  0.00000000000E+00 0. -1.
<mgrwt>
<rscale>  0 0.34540671E+03</rscale>
<asrwt>0</asrwt>
<pdfrwt beam="1">  1        2 0.90746605E-01 0.34540671E+03</pdfrwt>
<pdfrwt beam="2">  1       -2 0.51604233E-01 0.34540671E+03</pdfrwt>
<totfact> 0.18600008E+02</totfact>
</mgrwt>
</event>
<event>
12    1  0.1335216E-007  0.1396850E+04  0.7818608E-02  0.8956102E-01
          2   -1    0    0  501    0  0.00000000000E+00  0.00000000000E+00  0.30345012909E+04  0.30345012909E+04  0.00000000000E+00 0.  1.
         -2   -1    0    0    0  501 -0.00000000000E+00 -0.00000000000E+00 -0.80169766054E+03  0.80169766054E+03  0.00000000000E+00 0. -1.
         23    2    1    2    0    0 -0.13008871006E+04  0.33543826883E+03  0.25362182725E+03  0.13700276939E+04  0.88463382858E+02 0.  0.
    5000000    2    1    2    0    0  0.13008871006E+04 -0.33543826883E+03  0.19791818031E+04  0.24661712576E+04  0.60001165093E+03 0.  0.
         23    2    4    4    0    0  0.11941400415E+04 -0.44476257028E+03  0.16015154511E+04  0.20487466292E+04  0.93417492516E+02 0.  0.
         23    2    4    4    0    0  0.10674705908E+03  0.10932430145E+03  0.37766635201E+03  0.41742462837E+03  0.90910447263E+02 0.  0.
          1    1    3    3  502    0 -0.91656718451E+03  0.23408014534E+03  0.21940880295E+03  0.97109687518E+03  0.00000000000E+00 0. -1.
         -1    1    3    3    0  502 -0.38431991606E+03  0.10135812349E+03  0.34213024295E+02  0.39893081870E+03  0.00000000000E+00 0.  1.
         13    1    5    5    0    0  0.24496763482E+02  0.24998488396E+01  0.21640652161E+02  0.32781984249E+02  0.00000000000E+00 0. -1.
        -13    1    5    5    0    0  0.11696432780E+04 -0.44726241912E+03  0.15798747990E+04  0.20159646450E+04  0.00000000000E+00 0.  1.
          3    1    6    6  503    0  0.11676490009E+03  0.77799367911E+02  0.26305609586E+03  0.29813636664E+03  0.00000000000E+00 0. -1.
         -3    1    6    6    0  503 -0.10017841018E+02  0.31524933537E+02  0.11461025614E+03  0.11928826173E+03  0.00000000000E+00 0.  1.
<mgrwt>
<rscale>  0 0.13968501E+04</rscale>
<asrwt>0</asrwt>
<pdfrwt beam="1">  1        2 0.46684635E+00 0.13968501E+04</pdfrwt>
<pdfrwt beam="2">  1       -2 0.12333810E+00 0.13968501E+04</pdfrwt>
<totfact> 0.79136391E-01</totfact>
</mgrwt>
</event>
<event>
12    1  0.1335216E-007  0.3884761E+03  0.7818608E-02  0.1047845E+00
         -2   -1    0    0    0  501 -0.00000000000E+00  0.00000000000E+00  0.28169926386E+03  0.28169926386E+03  0.00000000000E+00 0.  1.
          2   -1    0    0  501    0  0.00000000000E+00 -0.00000000000E+00 -0.19508702652E+04  0.19508702652E+04  0.00000000000E+00 0. -1.
         23    2    1    2    0    0  0.82286366568E+02 -0.29051789412E+03  0.10734570106E+03  0.33330991554E+03  0.91655372625E+02 0.  0.
    5000000    2    1    2    0    0 -0.82286366568E+02  0.29051789412E+03 -0.17765167024E+04  0.18992596135E+04  0.60000316061E+03 0.  0.
         23    2    4    4    0    0 -0.23904885839E+02  0.36621599083E+03 -0.17098389125E+04  0.17512071859E+04  0.92151535307E+02 0.  0.
         23    2    4    4    0    0 -0.58381480729E+02 -0.75698096711E+02 -0.66677789885E+02  0.14805242769E+03  0.91296191285E+02 0.  0.
          2    1    3    3  502    0  0.21323112462E+02 -0.13126121825E+03  0.92808053371E+02  0.16216509277E+03  0.00000000000E+00 0. -1.
         -2    1    3    3    0  502  0.60963254106E+02 -0.15925667587E+03  0.14537647691E+02  0.17114482277E+03  0.00000000000E+00 0.  1.
         11    1    5    5    0    0  0.22766328720E+02  0.22388865007E+03 -0.90591218152E+03  0.93344593522E+03  0.00000000000E+00 0.  1.
        -11    1    5    5    0    0 -0.46671214558E+02  0.14232734076E+03 -0.80392673102E+03  0.81776125064E+03  0.00000000000E+00 0. -1.
          1    1    6    6  503    0  0.15243263651E+01 -0.83204607531E+01  0.20785490141E+02  0.22440816349E+02  0.00000000000E+00 0. -1.
         -1    1    6    6    0  503 -0.59905807094E+02 -0.67377635958E+02 -0.87463280026E+02  0.12561161134E+03  0.00000000000E+00 0.  1.
<mgrwt>
<rscale>  0 0.38847615E+03</rscale>
<asrwt>0</asrwt>
<pdfrwt beam="1">  1        2 0.30013390E+00 0.38847615E+03</pdfrwt>
<pdfrwt beam="2">  1       -2 0.43338347E-01 0.38847615E+03</pdfrwt>
<totfact> 0.39392422E+01</totfact>
</mgrwt>
</event>
<event>
12    1  0.1352312E-007  0.8566378E+03  0.7818608E-02  0.9481471E-01
          1   -1    0    0  501    0  0.00000000000E+00  0.00000000000E+00  0.72247129640E+03  0.72247129640E+03  0.00000000000E+00 0. -1.
         -1   -1    0    0    0  501 -0.00000000000E+00 -0.00000000000E+00 -0.12264426529E+04  0.12264426529E+04  0.00000000000E+00 0.  1.
         23    2    1    2    0    0 -0.63314108326E+03 -0.48933823413E+03 -0.50127444553E+03  0.94875071552E+03  0.92370513477E+02 0.  0.
    5000000    2    1    2    0    0  0.63314108326E+03  0.48933823413E+03 -0.26969109217E+01  0.10001632337E+04  0.59999973507E+03 0.  0.
         23    2    4    4    0    0 -0.37850824113E+02  0.10145556689E+03 -0.15079755883E+03  0.20614862411E+03  0.89618271216E+02 0.  0.
         23    2    4    4    0    0  0.67099190738E+03  0.38788266724E+03  0.14810064791E+03  0.79401460962E+03  0.88556733615E+02 0.  0.
          3    1    3    3  502    0 -0.45793613956E+03 -0.29976498845E+03 -0.33561369045E+03  0.64202889766E+03  0.00000000000E+00 0. -1.
         -3    1    3    3    0  502 -0.17520494371E+03 -0.18957324569E+03 -0.16566075509E+03  0.30672181787E+03  0.00000000000E+00 0.  1.
         13    1    5    5    0    0 -0.19025378840E+02 -0.72854909827E+01 -0.59595500792E+02  0.62981482466E+02  0.00000000000E+00 0. -1.
        -13    1    5    5    0    0 -0.18825445273E+02  0.10874105788E+03 -0.91202058036E+02  0.14316714165E+03  0.00000000000E+00 0.  1.
          3    1    6    6  503    0  0.26710509640E+03  0.12285365232E+03  0.89907851222E+02  0.30744361129E+03  0.00000000000E+00 0. -1.
         -3    1    6    6    0  503  0.40388681098E+03  0.26502901492E+03  0.58192796684E+02  0.48657099833E+03  0.00000000000E+00 0.  1.
<mgrwt>
<rscale>  0 0.85663775E+03</rscale>
<asrwt>0</asrwt>
<pdfrwt beam="1">  1        1 0.11114943E+00 0.85663775E+03</pdfrwt>
<pdfrwt beam="2">  1       -1 0.18868348E+00 0.85663775E+03</pdfrwt>
<totfact> 0.47829976E+00</totfact>
</mgrwt>
</event>
<event>
12    1  0.1335216E-007  0.7304993E+03  0.7818608E-02  0.9666450E-01
         -2   -1    0    0    0  501 -0.00000000000E+00  0.00000000000E+00  0.16475848328E+03  0.16475848328E+03  0.00000000000E+00 0.  1.
          2   -1    0    0  501    0  0.00000000000E+00 -0.00000000000E+00 -0.49372520490E+04  0.49372520490E+04  0.00000000000E+00 0. -1.
         23    2    1    2    0    0  0.10604682320E+03  0.59460238769E+03 -0.65083980389E+03  0.89333989247E+03  0.98314724216E+02 0.  0.
    5000000    2    1    2    0    0 -0.10604682320E+03 -0.59460238769E+03 -0.41216537619E+04  0.42086706398E+04  0.60006740777E+03 0.  0.
         23    2    4    4    0    0  0.20160705354E+03 -0.44252038927E+03 -0.22737895476E+04  0.23269979355E+04  0.91273138343E+02 0.  0.
         23    2    4    4    0    0 -0.30765387674E+03 -0.15208199842E+03 -0.18478642142E+04  0.18816727044E+04  0.91160134161E+02 0.  0.
          4    1    3    3  502    0  0.10630649645E+03  0.33216045370E+03 -0.34959831091E+03  0.49381232992E+03  0.00000000000E+00 0. -1.
         -4    1    3    3    0  502 -0.25967324707E+00  0.26244193399E+03 -0.30124149298E+03  0.39952756256E+03  0.00000000000E+00 0.  1.
         13    1    5    5    0    0  0.12764559341E+03 -0.36913803813E+03 -0.17951082955E+04  0.18371091642E+04  0.00000000000E+00 0.  1.
        -13    1    5    5    0    0  0.73961460133E+02 -0.73382351142E+02 -0.47868125215E+03  0.48988877125E+03  0.00000000000E+00 0. -1.
          1    1    6    6  503    0 -0.21420000989E+03 -0.56886345794E+02 -0.11709322390E+04  0.11917214477E+04  0.00000000000E+00 0. -1.
         -1    1    6    6    0  503 -0.93453866856E+02 -0.95195652626E+02 -0.67693197526E+03  0.68995125671E+03  0.00000000000E+00 0.  1.
<mgrwt>
<rscale>  0 0.73049934E+03</rscale>
<asrwt>0</asrwt>
<pdfrwt beam="1">  1        2 0.75957718E+00 0.73049934E+03</pdfrwt>
<pdfrwt beam="2">  1       -2 0.25347461E-01 0.73049934E+03</pdfrwt>
<totfact> 0.67500218E-01</totfact>
</mgrwt>
</event>
<event>
12    1  0.1335216E-007  0.5458724E+03  0.7818608E-02  0.1002454E+00
          1   -1    0    0  501    0  0.00000000000E+00  0.00000000000E+00  0.54344713545E+03  0.54344713545E+03  0.00000000000E+00 0. -1.
         -1   -1    0    0    0  501 -0.00000000000E+00 -0.00000000000E+00 -0.11442926198E+04  0.11442926198E+04  0.00000000000E+00 0.  1.
         23    2    1    2    0    0 -0.33796734990E+03  0.18800478670E+03 -0.84471024531E+03  0.93338677767E+03  0.90043038388E+02 0.  0.
    5000000    2    1    2    0    0  0.33796734990E+03 -0.18800478670E+03  0.24386476099E+03  0.75435297756E+03  0.60000888633E+03 0.  0.
         23    2    4    4    0    0 -0.14012689237E+03  0.46850389822E+02  0.60079202583E+02  0.18340395197E+03  0.90537252137E+02 0.  0.
         23    2    4    4    0    0  0.47809424227E+03 -0.23485517652E+03  0.18378555841E+03  0.57094902559E+03  0.92057590172E+02 0.  0.
          3    1    3    3  502    0 -0.25115969348E+03  0.13808677397E+03 -0.70891403713E+03  0.76466218739E+03  0.00000000000E+00 0. -1.
         -3    1    3    3    0  502 -0.86807656428E+02  0.49918012733E+02 -0.13579620818E+03  0.16872459028E+03  0.00000000000E+00 0.  1.
         13    1    5    5    0    0 -0.12356912930E+03  0.25414513418E+01  0.29462460755E+02  0.12705835385E+03  0.00000000000E+00 0. -1.
        -13    1    5    5    0    0 -0.16557763072E+02  0.44308938480E+02  0.30616741828E+02  0.56345598119E+02  0.00000000000E+00 0.  1.
          2    1    6    6  503    0  0.33974367278E+03 -0.18630183152E+03  0.17175768455E+03  0.42383350248E+03  0.00000000000E+00 0. -1.
         -2    1    6    6    0  503  0.13835056950E+03 -0.48553344999E+02  0.12027873855E+02  0.14711552311E+03  0.00000000000E+00 0.  1.
<mgrwt>
<rscale>  0 0.54587243E+03</rscale>
<asrwt>0</asrwt>
<pdfrwt beam="1">  1        1 0.83607252E-01 0.54587243E+03</pdfrwt>
<pdfrwt beam="2">  1       -1 0.17604502E+00 0.54587243E+03</pdfrwt>
<totfact> 0.93272116E+00</totfact>
</mgrwt>
</event>
<event>
12    1  0.1335216E-007  0.5460960E+03  0.7818608E-02  0.1002402E+00
         -2   -1    0    0    0  501 -0.00000000000E+00  0.00000000000E+00  0.19593012064E+03  0.19593012064E+03  0.00000000000E+00 0.  1.
          2   -1    0    0  501    0  0.00000000000E+00 -0.00000000000E+00 -0.22170550494E+04  0.22170550494E+04  0.00000000000E+00 0. -1.
         23    2    1    2    0    0 -0.35804715172E+03  0.29599797195E+03 -0.12238302866E+04  0.13122550468E+04  0.91870425231E+02 0.  0.
    5000000    2    1    2    0    0  0.35804715172E+03 -0.29599797195E+03 -0.79729464216E+03  0.11007301233E+04  0.60009623867E+03 0.  0.
         23    2    4    4    0    0  0.26072894944E+03  0.32795491530E+02 -0.64887334462E+02  0.28740024955E+03  0.96609564367E+02 0.  0.
         23    2    4    4    0    0  0.97318202285E+02 -0.32879346348E+03 -0.73240730770E+03  0.81332987376E+03  0.86654746250E+02 0.  0.
          1    1    3    3  502    0 -0.32970593354E+03  0.23806417066E+03 -0.10063363947E+04  0.10854001526E+04  0.00000000000E+00 0. -1.
         -1    1    3    3    0  502 -0.28341218178E+02  0.57933801283E+02 -0.21749389194E+03  0.22685489417E+03  0.00000000000E+00 0.  1.
         13    1    5    5    0    0  0.34724343867E+02  0.38768943769E+02  0.50821727536E+00  0.52048720856E+02  0.00000000000E+00 0.  1.
        -13    1    5    5    0    0  0.22600460557E+03 -0.59734522390E+01 -0.65395551737E+02  0.23535152869E+03  0.00000000000E+00 0. -1.
          2    1    6    6  503    0  0.40489412071E+02 -0.13966973489E+03 -0.21540932080E+03  0.25990037095E+03  0.00000000000E+00 0. -1.
         -2    1    6    6    0  503  0.56828790214E+02 -0.18912372859E+03 -0.51699798690E+03  0.55342950280E+03  0.00000000000E+00 0.  1.
<mgrwt>
<rscale>  0 0.54609596E+03</rscale>
<asrwt>0</asrwt>
<pdfrwt beam="1">  1        2 0.34108540E+00 0.54609596E+03</pdfrwt>
<pdfrwt beam="2">  1       -2 0.30143095E-01 0.54609596E+03</pdfrwt>
<totfact> 0.54663341E+01</totfact>
</mgrwt>
</event>
<event>
12    1  0.1335216E-007  0.3201451E+03  0.7818608E-02  0.1075583E+00
         -1   -1    0    0    0  501 -0.00000000000E+00  0.00000000000E+00  0.19527067449E+03  0.19527067449E+03  0.00000000000E+00 0.  1.
          1   -1    0    0  501    0  0.00000000000E+00 -0.00000000000E+00 -0.77730916269E+03  0.77730916269E+03  0.00000000000E+00 0. -1.
         23    2    1    2    0    0  0.77883718374E+00  0.90296799096E+02 -0.24501338736E+03  0.27835358519E+03  0.96410787216E+02 0.  0.
    5000000    2    1    2    0    0 -0.77883718374E+00 -0.90296799096E+02 -0.33702510084E+03  0.69422625198E+03  0.60017501767E+03 0.  0.
         23    2    4    4    0    0 -0.17445448872E+03 -0.22372993837E+03 -0.34915991200E+03  0.45905430084E+03  0.91262002052E+02 0.  0.
         23    2    4    4    0    0  0.17367565153E+03  0.13343313927E+03  0.12134811153E+02  0.23517195114E+03  0.84799518701E+02 0.  0.
          2    1    3    3  502    0  0.31915708586E+02  0.22716169084E+02 -0.25929214067E+02  0.46978302806E+02  0.00000000000E+00 0.  1.
         -2    1    3    3    0  502 -0.31136871403E+02  0.67580630011E+02 -0.21908417329E+03  0.23137528239E+03  0.00000000000E+00 0. -1.
         11    1    5    5    0    0 -0.13856054473E+03 -0.11742110405E+03 -0.17734535872E+03  0.25384663971E+03  0.00000000000E+00 0. -1.
        -11    1    5    5    0    0 -0.35893943987E+02 -0.10630883432E+03 -0.17181455328E+03  0.20520766113E+03  0.00000000000E+00 0.  1.
          1    1    6    6  503    0  0.84022718430E+02  0.11319398429E+03  0.22220988897E+02  0.14271113355E+03  0.00000000000E+00 0. -1.
         -1    1    6    6    0  503  0.89652933102E+02  0.20239154980E+02 -0.10086177745E+02  0.92460817591E+02  0.00000000000E+00 0.  1.
<mgrwt>
<rscale>  0 0.32014506E+03</rscale>
<asrwt>0</asrwt>
<pdfrwt beam="1">  1        1 0.11958603E+00 0.32014506E+03</pdfrwt>
<pdfrwt beam="2">  1       -1 0.30041642E-01 0.32014506E+03</pdfrwt>
<totfact> 0.24629453E+02</totfact>
</mgrwt>
</event>
<event>
12    1  0.1335216E-007  0.1394300E+04  0.7818608E-02  0.8957955E-01
          2   -1    0    0  501    0  0.00000000000E+00  0.00000000000E+00  0.33252476247E+04  0.33252476247E+04  0.00000000000E+00 0.  1.
         -2   -1    0    0    0  501 -0.00000000000E+00 -0.00000000000E+00 -0.61502123594E+03  0.61502123594E+03  0.00000000000E+00 0. -1.
         23    2    1    2    0    0 -0.20209735636E+03  0.13314515416E+04  0.16084947978E+04  0.20997882879E+04  0.90822851313E+02 0.  0.
    5000000    2    1    2    0    0  0.20209735636E+03 -0.13314515416E+04  0.11017315909E+04  0.18404805727E+04  0.59995807431E+03 0.  0.
         23    2    4    4    0    0  0.35971350160E+03 -0.71837139396E+03  0.78391161392E+03  0.11261469197E+04  0.90764549897E+02 0.  0.
         23    2    4    4    0    0 -0.15761614525E+03 -0.61308014768E+03  0.31781997702E+03  0.71433365298E+03  0.92481961859E+02 0.  0.
          4    1    3    3  502    0 -0.66967045883E+02  0.47749693065E+03  0.64411716297E+03  0.80459606241E+03  0.00000000000E+00 0. -1.
         -4    1    3    3    0  502 -0.13513031047E+03  0.85395461099E+03  0.96437763487E+03  0.12951922255E+04  0.00000000000E+00 0.  1.
         11    1    5    5    0    0  0.48906788065E+01  0.15387240636E+01  0.16477105947E+01  0.53852911840E+01  0.00000000000E+00 0. -1.
        -11    1    5    5    0    0  0.35482282280E+03 -0.71991011802E+03  0.78226390332E+03  0.11207616286E+04  0.00000000000E+00 0.  1.
          2    1    6    6  503    0 -0.34478280208E+02 -0.82039347872E+02  0.79710275944E+02  0.11946938728E+03  0.00000000000E+00 0. -1.
         -2    1    6    6    0  503 -0.12313786504E+03 -0.53104079980E+03  0.23810970107E+03  0.59486426570E+03  0.00000000000E+00 0.  1.
<mgrwt>
<rscale>  0 0.13942997E+04</rscale>
<asrwt>0</asrwt>
<pdfrwt beam="1">  1        2 0.51157655E+00 0.13942997E+04</pdfrwt>
<pdfrwt beam="2">  1       -2 0.94618653E-01 0.13942997E+04</pdfrwt>
<totfact> 0.98045435E-01</totfact>
</mgrwt>
</event>
<event>
12    1  0.1335216E-007  0.4912615E+03  0.7818608E-02  0.1016085E+00
         -1   -1    0    0    0  501 -0.00000000000E+00  0.00000000000E+00  0.78870960681E+03  0.78870960681E+03  0.00000000000E+00 0.  1.
          1   -1    0    0  501    0  0.00000000000E+00 -0.00000000000E+00 -0.58732120855E+03  0.58732120855E+03  0.00000000000E+00 0. -1.
         23    2    1    2    0    0 -0.21613749479E+03 -0.26417259650E+03  0.50974103149E+03  0.62011827280E+03  0.90598982753E+02 0.  0.
    5000000    2    1    2    0    0  0.21613749479E+03  0.26417259650E+03 -0.30835263324E+03  0.75591254256E+03  0.59984985469E+03 0.  0.
         23    2    4    4    0    0  0.36309441690E+02 -0.15248738592E+03  0.28958261276E+02  0.18319051669E+03  0.90274061000E+02 0.  0.
         23    2    4    4    0    0  0.17982805310E+03  0.41665998242E+03 -0.33731089452E+03  0.57272202587E+03  0.91039605231E+02 0.  0.
          1    1    3    3  502    0 -0.15846094907E+03 -0.18901276118E+03  0.28923746616E+03  0.38012367474E+03  0.00000000000E+00 0. -1.
         -1    1    3    3    0  502 -0.57676545715E+02 -0.75159835320E+02  0.22050356533E+03  0.23999459805E+03  0.00000000000E+00 0.  1.
         11    1    5    5    0    0  0.15964388270E+02 -0.15873733392E+03  0.23949647859E+02  0.16132572177E+03  0.00000000000E+00 0. -1.
        -11    1    5    5    0    0  0.20345053419E+02  0.62499479980E+01  0.50086134171E+01  0.21864794922E+02  0.00000000000E+00 0.  1.
          3    1    6    6  503    0  0.92808914292E+02  0.12334141121E+03 -0.85419591485E+02  0.17641741666E+03  0.00000000000E+00 0.  1.
         -3    1    6    6    0  503  0.87019138808E+02  0.29331857121E+03 -0.25189130303E+03  0.39630460921E+03  0.00000000000E+00 0. -1.
<mgrwt>
<rscale>  0 0.49126154E+03</rscale>
<asrwt>0</asrwt>
<pdfrwt beam="1">  1        1 0.90357109E-01 0.49126154E+03</pdfrwt>
<pdfrwt beam="2">  1       -1 0.12133994E+00 0.49126154E+03</pdfrwt>
<totfact> 0.22587843E+01</totfact>
</mgrwt>
</event>
<event>
12    1  0.1335216E-007  0.1812040E+04  0.7818608E-02  0.8699923E-01
         -1   -1    0    0    0  501 -0.00000000000E+00  0.00000000000E+00  0.38477419132E+04  0.38477419132E+04  0.00000000000E+00 0.  1.
          1   -1    0    0  501    0  0.00000000000E+00 -0.00000000000E+00 -0.87748775687E+03  0.87748775687E+03  0.00000000000E+00 0. -1.
         23    2    1    2    0    0 -0.14075273827E+04  0.11008754130E+04  0.14907160504E+04  0.23289329076E+04  0.92920057539E+02 0.  0.
    5000000    2    1    2    0    0  0.14075273827E+04 -0.11008754130E+04  0.14795381059E+04  0.23962967624E+04  0.60012095356E+03 0.  0.
         23    2    4    4    0    0  0.93098463641E+03 -0.95883318179E+03  0.12813362022E+04  0.18536446626E+04  0.89903327197E+02 0.  0.
         23    2    4    4    0    0  0.47654274632E+03 -0.14204223117E+03  0.19820190371E+03  0.54265209989E+03  0.88984955882E+02 0.  0.
          3    1    3    3  502    0 -0.83437174042E+03  0.59670632612E+03  0.83748508027E+03  0.13242416322E+04  0.00000000000E+00 0. -1.
         -3    1    3    3    0  502 -0.57315564231E+03  0.50416908684E+03  0.65323097013E+03  0.10046912754E+04  0.00000000000E+00 0.  1.
         13    1    5    5    0    0  0.62218460849E+03 -0.64145272301E+03  0.79723097664E+03  0.11975610686E+04  0.00000000000E+00 0.  1.
        -13    1    5    5    0    0  0.30880002793E+03 -0.31738045878E+03  0.48410522555E+03  0.65608359397E+03  0.00000000000E+00 0. -1.
          1    1    6    6  503    0  0.22385223876E+03 -0.48447748436E+02  0.47505506590E+02  0.23390977381E+03  0.00000000000E+00 0. -1.
         -1    1    6    6    0  503  0.25269050756E+03 -0.93594482730E+02  0.15069639712E+03  0.30874232608E+03  0.00000000000E+00 0.  1.
<mgrwt>
<rscale>  0 0.18120395E+04</rscale>
<asrwt>0</asrwt>
<pdfrwt beam="1">  1        1 0.13499812E+00 0.18120395E+04</pdfrwt>
<pdfrwt beam="2">  1       -1 0.59196029E+00 0.18120395E+04</pdfrwt>
<totfact> 0.80835275E-03</totfact>
</mgrwt>
</event>
<event>
12    1  0.1335216E-007  0.5708677E+03  0.7818608E-02  0.9967760E-01
          2   -1    0    0  501    0  0.00000000000E+00  0.00000000000E+00  0.27948568927E+04  0.27948568927E+04  0.00000000000E+00 0. -1.
         -2   -1    0    0    0  501 -0.00000000000E+00 -0.00000000000E+00 -0.16693424192E+03  0.16693424192E+03  0.00000000000E+00 0.  1.
         23    2    1    2    0    0  0.48033943259E+03 -0.14803737094E+03  0.59630411185E+03  0.78458897812E+03  0.85791824067E+02 0.  0.
    5000000    2    1    2    0    0 -0.48033943259E+03  0.14803737094E+03  0.20316185389E+04  0.21772021565E+04  0.60007858559E+03 0.  0.
         23    2    4    4    0    0 -0.11009790522E+01  0.11934428456E+03  0.12257610155E+04  0.12349315351E+04  0.91222578010E+02 0.  0.
         23    2    4    4    0    0 -0.47923845354E+03  0.28693086373E+02  0.80585752344E+03  0.94227062147E+03  0.89301665340E+02 0.  0.
          3    1    3    3  502    0  0.26633583931E+03 -0.60068259562E+02  0.26497571836E+03  0.38046695839E+03  0.00000000000E+00 0. -1.
         -3    1    3    3    0  502  0.21400359329E+03 -0.87969111374E+02  0.33132839350E+03  0.40412201973E+03  0.00000000000E+00 0.  1.
         13    1    5    5    0    0 -0.19243623944E+02  0.12844065268E+03  0.10489380430E+04  0.10569476507E+04  0.00000000000E+00 0.  1.
        -13    1    5    5    0    0  0.18142644892E+02 -0.90963681176E+01  0.17682297251E+03  0.17798388433E+03  0.00000000000E+00 0. -1.
          4    1    6    6  503    0 -0.16673185723E+03 -0.29391992466E+02  0.31169418960E+03  0.35470645507E+03  0.00000000000E+00 0. -1.
         -4    1    6    6    0  503 -0.31250659631E+03  0.58085078839E+02  0.49416333384E+03  0.58756416639E+03  0.00000000000E+00 0.  1.
<mgrwt>
<rscale>  0 0.57086769E+03</rscale>
<asrwt>0</asrwt>
<pdfrwt beam="1">  1        2 0.42997795E+00 0.57086769E+03</pdfrwt>
<pdfrwt beam="2">  1       -2 0.25682193E-01 0.57086769E+03</pdfrwt>
<totfact> 0.34442530E+01</totfact>
</mgrwt>
</event>
<event>
12    1  0.1335216E-007  0.1543358E+04  0.7818608E-02  0.8856121E-01
          1   -1    0    0  501    0  0.00000000000E+00  0.00000000000E+00  0.23825672430E+04  0.23825672430E+04  0.00000000000E+00 0. -1.
         -1   -1    0    0    0  501 -0.00000000000E+00 -0.00000000000E+00 -0.11016579909E+04  0.11016579909E+04  0.00000000000E+00 0.  1.
         23    2    1    2    0    0 -0.10341902707E+04 -0.11332628542E+04  0.29670064112E+03  0.15652541508E+04  0.90305445049E+02 0.  0.
    5000000    2    1    2    0    0  0.10341902707E+04  0.11332628542E+04  0.98420861102E+03  0.19189710831E+04  0.59995767764E+03 0.  0.
         23    2    4    4    0    0  0.73618788826E+03  0.94536494879E+03  0.98669300853E+03  0.15547983792E+04  0.90263025541E+02 0.  0.
         23    2    4    4    0    0  0.29800238247E+03  0.18789790536E+03 -0.24843975101E+01  0.36417270383E+03  0.92220080153E+02 0.  0.
          3    1    3    3  502    0 -0.58060675026E+03 -0.58151436763E+03  0.13238564674E+03  0.83233954469E+03  0.00000000000E+00 0. -1.
         -3    1    3    3    0  502 -0.45358352047E+03 -0.55174848653E+03  0.16431499438E+03  0.73291460608E+03  0.00000000000E+00 0.  1.
         11    1    5    5    0    0  0.17978130449E+03  0.24074822150E+03  0.29882231140E+03  0.42376384625E+03  0.00000000000E+00 0. -1.
        -11    1    5    5    0    0  0.55640658377E+03  0.70461672729E+03  0.68787069713E+03  0.11310345330E+04  0.00000000000E+00 0.  1.
          1    1    6    6  503    0  0.12466404834E+02  0.56226499516E+01  0.20495255159E+02  0.24639012277E+02  0.00000000000E+00 0. -1.
         -1    1    6    6    0  503  0.28553597764E+03  0.18227525541E+03 -0.22979652669E+02  0.33953369155E+03  0.00000000000E+00 0.  1.
<mgrwt>
<rscale>  0 0.15433583E+04</rscale>
<asrwt>0</asrwt>
<pdfrwt beam="1">  1        1 0.36654881E+00 0.15433583E+04</pdfrwt>
<pdfrwt beam="2">  1       -1 0.16948585E+00 0.15433583E+04</pdfrwt>
<totfact> 0.38233235E-01</totfact>
</mgrwt>
</event>
<event>
12    1  0.1335216E-007  0.3943359E+03  0.7818608E-02  0.1045759E+00
          2   -1    0    0  501    0  0.00000000000E+00  0.00000000000E+00  0.33221985934E+03  0.33221985934E+03  0.00000000000E+00 0. -1.
         -2   -1    0    0    0  501 -0.00000000000E+00 -0.00000000000E+00 -0.11744605900E+04  0.11744605900E+04  0.00000000000E+00 0.  1.
         23    2    1    2    0    0  0.17683885271E+03 -0.33899546157E+03  0.13727869625E+02  0.39363106636E+03  0.92558409690E+02 0.  0.
    5000000    2    1    2    0    0 -0.17683885271E+03  0.33899546157E+03 -0.85596860026E+03  0.11130493830E+04  0.60000565122E+03 0.  0.
         23    2    4    4    0    0 -0.96607663023E+02  0.24636983043E+03 -0.90892422948E+03  0.95075402807E+03  0.88084238458E+02 0.  0.
         23    2    4    4    0    0 -0.80231189692E+02  0.92625631139E+02  0.52955629214E+02  0.16229535489E+03  0.92298061799E+02 0.  0.
          1    1    3    3  502    0  0.15166979818E+03 -0.28674417677E+03  0.45403515583E+02  0.32754759932E+03  0.00000000000E+00 0. -1.
         -1    1    3    3    0  502  0.25169054531E+02 -0.52251284802E+02 -0.31675645958E+02  0.66083467042E+02  0.00000000000E+00 0.  1.
         13    1    5    5    0    0 -0.25652469273E+02  0.61469104369E+01 -0.12620233407E+03  0.12892968166E+03  0.00000000000E+00 0. -1.
        -13    1    5    5    0    0 -0.70955193750E+02  0.24022291999E+03 -0.78272189541E+03  0.82182434642E+03  0.00000000000E+00 0.  1.
          1    1    6    6  503    0 -0.36394976977E+02  0.72645899156E+02 -0.11247947643E+02  0.82027662039E+02  0.00000000000E+00 0. -1.
         -1    1    6    6    0  503 -0.43836212716E+02  0.19979731982E+02  0.64203576856E+02  0.80267692856E+02  0.00000000000E+00 0.  1.
<mgrwt>
<rscale>  0 0.39433592E+03</rscale>
<asrwt>0</asrwt>
<pdfrwt beam="1">  1        2 0.51110748E-01 0.39433592E+03</pdfrwt>
<pdfrwt beam="2">  1       -2 0.18068624E+00 0.39433592E+03</pdfrwt>
<totfact> 0.18582165E+01</totfact>
</mgrwt>
</event>
<event>
12    1  0.1335216E-007  0.1236655E+04  0.7818608E-02  0.9081364E-01
          1   -1    0    0  501    0  0.00000000000E+00  0.00000000000E+00  0.19909257905E+04  0.19909257905E+04  0.00000000000E+00 0. -1.
         -1   -1    0    0    0  501 -0.00000000000E+00 -0.00000000000E+00 -0.85319224556E+03  0.85319224556E+03  0.00000000000E+00 0.  1.
         23    2    1    2    0    0  0.10623715495E+04  0.55772928538E+03  0.84668525489E+03  0.14714099876E+04  0.92066095280E+02 0.  0.
    5000000    2    1    2    0    0 -0.10623715495E+04 -0.55772928538E+03  0.29104829005E+03  0.13727080484E+04  0.59993584162E+03 0.  0.
         23    2    4    4    0    0 -0.75460363554E+03 -0.17281265944E+03  0.37414549809E+03  0.86458641728E+03  0.90741154789E+02 0.  0.
         23    2    4    4    0    0 -0.30776791398E+03 -0.38491662593E+03 -0.83097208039E+02  0.50812163113E+03  0.91654504797E+02 0.  0.
          1    1    3    3  502    0  0.11254001217E+03  0.80723087278E+02  0.71403908178E+02  0.15582037499E+03  0.00000000000E+00 0. -1.
         -1    1    3    3    0  502  0.94983153734E+03  0.47700619810E+03  0.77528134671E+03  0.13155896127E+04  0.00000000000E+00 0.  1.
         13    1    5    5    0    0 -0.23131821048E+03 -0.16491701180E+02  0.13547359929E+03  0.26857622161E+03  0.00000000000E+00 0. -1.
        -13    1    5    5    0    0 -0.52328542506E+03 -0.15632095826E+03  0.23867189880E+03  0.59601019567E+03  0.00000000000E+00 0.  1.
          3    1    6    6  503    0 -0.10116113017E+03 -0.10295632399E+03 -0.64440603785E+02  0.15807014368E+03  0.00000000000E+00 0. -1.
         -3    1    6    6    0  503 -0.20660678381E+03 -0.28196030194E+03 -0.18656604254E+02  0.35005148746E+03  0.00000000000E+00 0.  1.
<mgrwt>
<rscale>  0 0.12366554E+04</rscale>
<asrwt>0</asrwt>
<pdfrwt beam="1">  1        1 0.30629627E+00 0.12366554E+04</pdfrwt>
<pdfrwt beam="2">  1       -1 0.13126035E+00 0.12366554E+04</pdfrwt>
<totfact> 0.14651002E+00</totfact>
</mgrwt>
</event>
<event>
12    1  0.1335216E-007  0.5014200E+03  0.7818608E-02  0.1013409E+00
         -2   -1    0    0    0  501 -0.00000000000E+00  0.00000000000E+00  0.36628083464E+03  0.36628083464E+03  0.00000000000E+00 0.  1.
          2   -1    0    0  501    0  0.00000000000E+00 -0.00000000000E+00 -0.13355660292E+04  0.13355660292E+04  0.00000000000E+00 0. -1.
         23    2    1    2    0    0  0.32292063462E+03  0.64075588944E+02  0.16692642964E+03  0.37542914352E+03  0.68550649362E+02 0.  0.
    5000000    2    1    2    0    0 -0.32292063462E+03 -0.64075588944E+02 -0.11362116242E+04  0.13264177203E+04  0.60001974673E+03 0.  0.
         23    2    4    4    0    0 -0.15193936835E+03  0.24629043585E+03 -0.38293801558E+03  0.48874058188E+03  0.92093876854E+02 0.  0.
         23    2    4    4    0    0 -0.17098126627E+03 -0.31036602480E+03 -0.75327360861E+03  0.83767713844E+03  0.93381990054E+02 0.  0.
          4    1    3    3  502    0  0.73810656504E+02 -0.14112260524E+02  0.39661281790E+02  0.84971678716E+02  0.00000000000E+00 0. -1.
         -4    1    3    3    0  502  0.24910997812E+03  0.78187849468E+02  0.12726514785E+03  0.29045746480E+03  0.00000000000E+00 0.  1.
         13    1    5    5    0    0 -0.79059477316E+02  0.51018862560E+02 -0.99836213828E+02  0.13718817326E+03  0.00000000000E+00 0.  1.
        -13    1    5    5    0    0 -0.72879891033E+02  0.19527157329E+03 -0.28310180175E+03  0.35155240862E+03  0.00000000000E+00 0. -1.
          1    1    6    6  503    0 -0.17587862840E+02 -0.11174994579E+03 -0.27991325617E+03  0.30190861909E+03  0.00000000000E+00 0. -1.
         -1    1    6    6    0  503 -0.15339340343E+03 -0.19861607901E+03 -0.47336035244E+03  0.53576851934E+03  0.00000000000E+00 0.  1.
<mgrwt>
<rscale>  0 0.50141998E+03</rscale>
<asrwt>0</asrwt>
<pdfrwt beam="1">  1        2 0.20547169E+00 0.50141998E+03</pdfrwt>
<pdfrwt beam="2">  1       -2 0.56350898E-01 0.50141998E+03</pdfrwt>
<totfact> 0.48956842E+01</totfact>
</mgrwt>
</event>
<event>
12    1  0.1451891E-007  0.1133634E+04  0.7818608E-02  0.9173016E-01
          1   -1    0    0  501    0  0.00000000000E+00  0.00000000000E+00  0.20965141785E+04  0.20965141785E+04  0.00000000000E+00 0. -1.
         -1   -1    0    0    0  501 -0.00000000000E+00 -0.00000000000E+00 -0.11622294518E+04  0.11622294518E+04  0.00000000000E+00 0.  1.
         23    2    1    2    0    0 -0.38750854773E+03 -0.10458204738E+04  0.15009254242E+04  0.18713000958E+04  0.71299239112E+02 0.  0.
    5000000    2    1    2    0    0  0.38750854773E+03  0.10458204738E+04 -0.56664069746E+03  0.13874435345E+04  0.60001211952E+03 0.  0.
         23    2    4    4    0    0  0.36437952963E+03  0.74169617501E+03 -0.65290149379E+03  0.10569719980E+04  0.89575590374E+02 0.  0.
         23    2    4    4    0    0  0.23129018100E+02  0.30412429874E+03  0.86260796336E+02  0.33047153648E+03  0.93509202092E+02 0.  0.
          3    1    3    3  502    0 -0.24889008134E+03 -0.57098915773E+03  0.82748667277E+03  0.10357167009E+04  0.00000000000E+00 0. -1.
         -3    1    3    3    0  502 -0.13861846639E+03 -0.47483131602E+03  0.67343875144E+03  0.83558339490E+03  0.00000000000E+00 0.  1.
         11    1    5    5    0    0  0.13577745127E+03  0.18630620503E+03 -0.18766428408E+03  0.29725982208E+03  0.00000000000E+00 0. -1.
        -11    1    5    5    0    0  0.22860207836E+03  0.55538996998E+03 -0.46523720971E+03  0.75971217595E+03  0.00000000000E+00 0.  1.
          2    1    6    6  503    0  0.57717108829E+02  0.15164976276E+03  0.52247219697E+02  0.17046608801E+03  0.00000000000E+00 0. -1.
         -2    1    6    6    0  503 -0.34588090729E+02  0.15247453598E+03  0.34013576639E+02  0.16000544847E+03  0.00000000000E+00 0.  1.
<mgrwt>
<rscale>  0 0.11336340E+04</rscale>
<asrwt>0</asrwt>
<pdfrwt beam="1">  1        1 0.32254064E+00 0.11336340E+04</pdfrwt>
<pdfrwt beam="2">  1       -1 0.17880453E+00 0.11336340E+04</pdfrwt>
<totfact> 0.53955219E-01</totfact>
</mgrwt>
</event>
<event>
12    1  0.1335216E-007  0.5429194E+03  0.7818608E-02  0.1003146E+00
         -2   -1    0    0    0  501 -0.00000000000E+00  0.00000000000E+00  0.16007664851E+04  0.16007664851E+04  0.00000000000E+00 0.  1.
          2   -1    0    0  501    0  0.00000000000E+00 -0.00000000000E+00 -0.30408013433E+03  0.30408013433E+03  0.00000000000E+00 0. -1.
         23    2    1    2    0    0  0.36924535704E+02  0.41029909642E+03  0.48356410740E+01  0.42208931705E+03  0.91799990618E+02 0.  0.
    5000000    2    1    2    0    0 -0.36924535704E+02 -0.41029909642E+03  0.12918507097E+04  0.14827573024E+04  0.59998515965E+03 0.  0.
         23    2    4    4    0    0 -0.10898081743E+03 -0.50640452840E+03  0.11886653893E+04  0.12997128439E+04  0.89474599986E+02 0.  0.
         23    2    4    4    0    0  0.72056281728E+02  0.96105431980E+02  0.10318532041E+03  0.18304445846E+03  0.91813406605E+02 0.  0.
          1    1    3    3  502    0  0.12315657975E+02  0.13332452070E+03  0.44752355331E+02  0.14117321474E+03  0.00000000000E+00 0. -1.
         -1    1    3    3    0  502  0.24608877729E+02  0.27697457572E+03 -0.39916714257E+02  0.28091610230E+03  0.00000000000E+00 0.  1.
         13    1    5    5    0    0  0.14560243761E+02 -0.73530246641E+02  0.19143845498E+03  0.20559032057E+03  0.00000000000E+00 0. -1.
        -13    1    5    5    0    0 -0.12354106119E+03 -0.43287428176E+03  0.99722693430E+03  0.10941225233E+04  0.00000000000E+00 0.  1.
          2    1    6    6  503    0  0.97231695760E+01  0.84872250952E+02  0.42861354087E+02  0.95576852231E+02  0.00000000000E+00 0.  1.
         -2    1    6    6    0  503  0.62333112152E+02  0.11233181028E+02  0.60323966322E+02  0.87467606228E+02  0.00000000000E+00 0. -1.
<mgrwt>
<rscale>  0 0.54291935E+03</rscale>
<asrwt>0</asrwt>
<pdfrwt beam="1">  1        2 0.46781560E-01 0.54291935E+03</pdfrwt>
<pdfrwt beam="2">  1       -2 0.24627176E+00 0.54291935E+03</pdfrwt>
<totfact> 0.77290993E+00</totfact>
</mgrwt>
</event>
<event>
12    1  0.1335216E-007  0.9611489E+03  0.7818608E-02  0.9352213E-01
         -1   -1    0    0    0  501 -0.00000000000E+00  0.00000000000E+00  0.63566693400E+03  0.63566693400E+03  0.00000000000E+00 0.  1.
          1   -1    0    0  501    0  0.00000000000E+00 -0.00000000000E+00 -0.20621699705E+04  0.20621699705E+04  0.00000000000E+00 0. -1.
         23    2    1    2    0    0  0.19681696079E+03  0.93670423116E+03 -0.11747439735E+03  0.96878847330E+03  0.92731543887E+02 0.  0.
    5000000    2    1    2    0    0 -0.19681696079E+03 -0.93670423116E+03 -0.13090286391E+04  0.17290484312E+04  0.59991729980E+03 0.  0.
         23    2    4    4    0    0 -0.26507227238E+02 -0.37599140019E+03 -0.12959020351E+03  0.40900544122E+03  0.91758727051E+02 0.  0.
         23    2    4    4    0    0 -0.17030973355E+03 -0.56071283097E+03 -0.11794384356E+04  0.13200429900E+04  0.89633630899E+02 0.  0.
          3    1    3    3  502    0  0.14868781795E+03  0.57114825687E+03 -0.36642810652E+02  0.59132148118E+03  0.00000000000E+00 0. -1.
         -3    1    3    3    0  502  0.48129142839E+02  0.36555597429E+03 -0.80831586694E+02  0.37746699212E+03  0.00000000000E+00 0.  1.
         13    1    5    5    0    0 -0.14210318170E+02 -0.18087322759E+03 -0.11082624036E+03  0.21260177128E+03  0.00000000000E+00 0.  1.
        -13    1    5    5    0    0 -0.12296909069E+02 -0.19511817260E+03 -0.18763963152E+02  0.19640366994E+03  0.00000000000E+00 0. -1.
          4    1    6    6  503    0 -0.84988523273E+02 -0.24023757013E+03 -0.60971010870E+03  0.66082036578E+03  0.00000000000E+00 0. -1.
         -4    1    6    6    0  503 -0.85321210276E+02 -0.32047526085E+03 -0.56972832693E+03  0.65922262419E+03  0.00000000000E+00 0.  1.
<mgrwt>
<rscale>  0 0.96114890E+03</rscale>
<asrwt>0</asrwt>
<pdfrwt beam="1">  1        1 0.31725692E+00 0.96114890E+03</pdfrwt>
<pdfrwt beam="2">  1       -1 0.97794913E-01 0.96114890E+03</pdfrwt>
<totfact> 0.27594176E+00</totfact>
</mgrwt>
</event>
<event>
12    1  0.1335216E-007  0.1381621E+04  0.7818608E-02  0.8967231E-01
         -1   -1    0    0    0  501 -0.00000000000E+00  0.00000000000E+00  0.13773455528E+04  0.13773455528E+04  0.00000000000E+00 0.  1.
          1   -1    0    0  501    0  0.00000000000E+00 -0.00000000000E+00 -0.14436391911E+04  0.14436391911E+04  0.00000000000E+00 0. -1.
         23    2    1    2    0    0  0.10509518388E+04 -0.80398443045E+03  0.20775658901E+03  0.13424055004E+04  0.89437102686E+02 0.  0.
    5000000    2    1    2    0    0 -0.10509518388E+04  0.80398443045E+03 -0.27405022729E+03  0.14785792435E+04  0.60016857667E+03 0.  0.
         23    2    4    4    0    0 -0.82312849362E+02  0.36377386216E+03 -0.96159653578E+02  0.39600982209E+03  0.92034082051E+02 0.  0.
         23    2    4    4    0    0 -0.96863898945E+03  0.44021056829E+03 -0.17789057372E+03  0.10825694214E+04  0.90910173803E+02 0.  0.
          4    1    3    3  502    0  0.30697183018E+03 -0.22292994924E+03  0.99571230151E+02  0.39222939292E+03  0.00000000000E+00 0. -1.
         -4    1    3    3    0  502  0.74398000864E+03 -0.58105448121E+03  0.10818535886E+03  0.95017610749E+03  0.00000000000E+00 0.  1.
         11    1    5    5    0    0 -0.51436607549E+01  0.12154135841E+03 -0.70220453463E+02  0.14046234775E+03  0.00000000000E+00 0. -1.
        -11    1    5    5    0    0 -0.77169188607E+02  0.24223250375E+03 -0.25939200116E+02  0.25554747435E+03  0.00000000000E+00 0.  1.
          4    1    6    6  503    0 -0.26013104778E+03  0.11595753744E+03 -0.71239984151E+01  0.28489482947E+03  0.00000000000E+00 0. -1.
         -4    1    6    6    0  503 -0.70850794168E+03  0.32425303086E+03 -0.17076657530E+03  0.79767459197E+03  0.00000000000E+00 0.  1.
<mgrwt>
<rscale>  0 0.13816212E+04</rscale>
<asrwt>0</asrwt>
<pdfrwt beam="1">  1        1 0.22209834E+00 0.13816212E+04</pdfrwt>
<pdfrwt beam="2">  1       -1 0.21189932E+00 0.13816212E+04</pdfrwt>
<totfact> 0.85726979E-01</totfact>
</mgrwt>
</event>
<event>
12    1  0.1335216E-007  0.7194198E+03  0.7818608E-02  0.9684586E-01
          1   -1    0    0  501    0  0.00000000000E+00  0.00000000000E+00  0.17271798948E+04  0.17271798948E+04  0.00000000000E+00 0. -1.
         -1   -1    0    0    0  501 -0.00000000000E+00 -0.00000000000E+00 -0.31064620719E+03  0.31064620719E+03  0.00000000000E+00 0.  1.
         23    2    1    2    0    0  0.56754709207E+03  0.19025843725E+03  0.46500935857E+03  0.76357572098E+03  0.92229081366E+02 0.  0.
    5000000    2    1    2    0    0 -0.56754709207E+03 -0.19025843725E+03  0.95152432908E+03  0.12742503811E+04  0.60000625840E+03 0.  0.
         23    2    4    4    0    0 -0.30078231030E+03  0.19556208468E+03  0.41223223851E+03  0.55383088995E+03  0.89881639047E+02 0.  0.
         23    2    4    4    0    0 -0.26676478177E+03 -0.38582052194E+03  0.53929209057E+03  0.72041949110E+03  0.90262729143E+02 0.  0.
          4    1    3    3  502    0  0.53985749957E+03  0.20041866991E+03  0.43697972925E+03  0.72288660720E+03  0.00000000000E+00 0.  1.
         -4    1    3    3    0  502  0.27689592496E+02 -0.10160232660E+02  0.28029629314E+02  0.40689113776E+02  0.00000000000E+00 0. -1.
         11    1    5    5    0    0 -0.17833200662E+03  0.82341638267E+02  0.27448672285E+03  0.33752838547E+03  0.00000000000E+00 0. -1.
        -11    1    5    5    0    0 -0.12245030368E+03  0.11322044642E+03  0.13774551566E+03  0.21630250448E+03  0.00000000000E+00 0.  1.
          2    1    6    6  503    0 -0.15313663480E+03 -0.19167920295E+03  0.34399638756E+03  0.42252249694E+03  0.00000000000E+00 0. -1.
         -2    1    6    6    0  503 -0.11362814696E+03 -0.19414131898E+03  0.19529570301E+03  0.29789699416E+03  0.00000000000E+00 0.  1.
<mgrwt>
<rscale>  0 0.71941983E+03</rscale>
<asrwt>0</asrwt>
<pdfrwt beam="1">  1        1 0.26571998E+00 0.71941983E+03</pdfrwt>
<pdfrwt beam="2">  1       -1 0.47791725E-01 0.71941983E+03</pdfrwt>
<totfact> 0.20800640E+01</totfact>
</mgrwt>
</event>
<event>
12    1  0.1335216E-007  0.1092795E+04  0.7818608E-02  0.9212243E-01
         -1   -1    0    0    0  501 -0.00000000000E+00  0.00000000000E+00  0.14896682944E+04  0.14896682944E+04  0.00000000000E+00 0.  1.
          1   -1    0    0  501    0  0.00000000000E+00 -0.00000000000E+00 -0.14211457069E+04  0.14211457069E+04  0.00000000000E+00 0. -1.
         23    2    1    2    0    0  0.40281051071E+03 -0.98591256924E+03 -0.86301911918E+03  0.13737929032E+04  0.90692001655E+02 0.  0.
    5000000    2    1    2    0    0 -0.40281051071E+03  0.98591256924E+03  0.93154170663E+03  0.15370210980E+04  0.60031991708E+03 0.  0.
         23    2    4    4    0    0 -0.42651009619E+03  0.69009217396E+03  0.91527145700E+03  0.12265386864E+04  0.92397177794E+02 0.  0.
         23    2    4    4    0    0  0.23699585473E+02  0.29582039528E+03  0.16270249629E+02  0.31048241165E+03  0.89795491553E+02 0.  0.
          4    1    3    3  502    0  0.21339866406E+03 -0.40813838005E+03 -0.35613757135E+03  0.58219403708E+03  0.00000000000E+00 0. -1.
         -4    1    3    3    0  502  0.18941184666E+03 -0.57777418920E+03 -0.50688154783E+03  0.79159886615E+03  0.00000000000E+00 0.  1.
         11    1    5    5    0    0 -0.18535388650E+03  0.38099398731E+03  0.44875936659E+03  0.61716889966E+03  0.00000000000E+00 0.  1.
        -11    1    5    5    0    0 -0.24115620969E+03  0.30909818666E+03  0.46651209041E+03  0.60936978672E+03  0.00000000000E+00 0. -1.
          2    1    6    6  503    0  0.34590892924E+02  0.11426985599E+03 -0.29403804629E+02  0.12295817821E+03  0.00000000000E+00 0. -1.
         -2    1    6    6    0  503 -0.10891307451E+02  0.18155053929E+03  0.45674054259E+02  0.18752423344E+03  0.00000000000E+00 0.  1.
<mgrwt>
<rscale>  0 0.10927950E+04</rscale>
<asrwt>0</asrwt>
<pdfrwt beam="1">  1        1 0.21863780E+00 0.10927950E+04</pdfrwt>
<pdfrwt beam="2">  1       -1 0.22917974E+00 0.10927950E+04</pdfrwt>
<totfact> 0.70587659E-01</totfact>
</mgrwt>
</event>
<event>
12    1  0.1335216E-007  0.6717880E+03  0.7818608E-02  0.9766733E-01
         -2   -1    0    0    0  501 -0.00000000000E+00  0.00000000000E+00  0.52894133511E+03  0.52894133511E+03  0.00000000000E+00 0. -1.
          2   -1    0    0  501    0  0.00000000000E+00 -0.00000000000E+00 -0.17660229779E+04  0.17660229779E+04  0.00000000000E+00 0.  1.
         23    2    1    2    0    0  0.17140318844E+03  0.51689395916E+03 -0.13676360706E+04  0.14745701770E+04  0.85850843733E+02 0.  0.
    5000000    2    1    2    0    0 -0.17140318844E+03 -0.51689395916E+03  0.13055442777E+03  0.82039413601E+03  0.59953620556E+03 0.  0.
         23    2    4    4    0    0 -0.11223624358E+03 -0.63394787110E+03  0.10435657464E+03  0.65869580555E+03  0.92211669130E+02 0.  0.
         23    2    4    4    0    0 -0.59166944861E+02  0.11705391195E+03  0.26197853134E+02  0.16169833047E+03  0.90871760750E+02 0.  0.
          1    1    3    3  502    0  0.90442229009E+02  0.21853333130E+03 -0.69889497567E+03  0.73782843581E+03  0.00000000000E+00 0. -1.
         -1    1    3    3    0  502  0.80960959436E+02  0.29836062786E+03 -0.66874109490E+03  0.73674174119E+03  0.00000000000E+00 0.  1.
         13    1    5    5    0    0  0.11249987941E+02 -0.37963799199E+02 -0.62466394869E+01  0.40085318799E+02  0.00000000000E+00 0. -1.
        -13    1    5    5    0    0 -0.12348623152E+03 -0.59598407190E+03  0.11060321413E+03  0.61861048675E+03  0.00000000000E+00 0.  1.
          2    1    6    6  503    0 -0.11434706413E+02 -0.92170091849E+01  0.22236154321E+02  0.26648683421E+02  0.00000000000E+00 0. -1.
         -2    1    6    6    0  503 -0.47732238448E+02  0.12627092113E+03  0.39616988126E+01  0.13504964705E+03  0.00000000000E+00 0.  1.
<mgrwt>
<rscale>  0 0.67178798E+03</rscale>
<asrwt>0</asrwt>
<pdfrwt beam="1">  1        2 0.27169584E+00 0.67178798E+03</pdfrwt>
<pdfrwt beam="2">  1       -2 0.81375590E-01 0.67178798E+03</pdfrwt>
<totfact> 0.12488900E+01</totfact>
</mgrwt>
</event>
<event>
12    1  0.1335216E-007  0.1618165E+04  0.7818608E-02  0.8809466E-01
         -2   -1    0    0    0  501 -0.00000000000E+00  0.00000000000E+00  0.21873498903E+04  0.21873498903E+04  0.00000000000E+00 0.  1.
          2   -1    0    0  501    0  0.00000000000E+00 -0.00000000000E+00 -0.12953676326E+04  0.12953676326E+04  0.00000000000E+00 0. -1.
         23    2    1    2    0    0 -0.87820647625E+03  0.13227495048E+04  0.80726098116E+03  0.17833783179E+04  0.88628808243E+02 0.  0.
    5000000    2    1    2    0    0  0.87820647625E+03 -0.13227495048E+04  0.84721276607E+02  0.16993392050E+04  0.59971924404E+03 0.  0.
         23    2    4    4    0    0  0.14805921252E+03 -0.59499378054E+03 -0.15160854523E+03  0.63788349782E+03  0.89280885523E+02 0.  0.
         23    2    4    4    0    0  0.73014726372E+03 -0.72775572426E+03  0.23632982184E+03  0.10614557072E+04  0.89961173579E+02 0.  0.
          1    1    3    3  502    0 -0.26270086739E+03  0.35457234911E+03  0.18812305969E+03  0.47971197824E+03  0.00000000000E+00 0. -1.
         -1    1    3    3    0  502 -0.61550560886E+03  0.96817715569E+03  0.61913792147E+03  0.13036663397E+04  0.00000000000E+00 0.  1.
         13    1    5    5    0    0  0.52233361644E+02 -0.31338846378E+03 -0.11631629265E+03  0.33833435125E+03  0.00000000000E+00 0.  1.
        -13    1    5    5    0    0  0.95825850879E+02 -0.28160531676E+03 -0.35292252581E+02  0.29954914658E+03  0.00000000000E+00 0. -1.
          4    1    6    6  503    0  0.27780602354E+03 -0.31814023507E+03  0.13082309756E+03  0.44215843172E+03  0.00000000000E+00 0. -1.
         -4    1    6    6    0  503  0.45234124019E+03 -0.40961548919E+03  0.10550672428E+03  0.61929727548E+03  0.00000000000E+00 0.  1.
<mgrwt>
<rscale>  0 0.16181648E+04</rscale>
<asrwt>0</asrwt>
<pdfrwt beam="1">  1        2 0.19928733E+00 0.16181648E+04</pdfrwt>
<pdfrwt beam="2">  1       -2 0.33651537E+00 0.16181648E+04</pdfrwt>
<totfact> 0.29330895E-01</totfact>
</mgrwt>
</event>
<event>
12    1  0.1335216E-007  0.1428650E+04  0.7818608E-02  0.8933338E-01
          2   -1    0    0  501    0  0.00000000000E+00  0.00000000000E+00  0.21098882680E+04  0.21098882680E+04  0.00000000000E+00 0. -1.
         -2   -1    0    0    0  501 -0.00000000000E+00 -0.00000000000E+00 -0.13371830706E+04  0.13371830706E+04  0.00000000000E+00 0.  1.
         23    2    1    2    0    0 -0.46833899632E+03 -0.13081206995E+04  0.12384328718E+04  0.18635816774E+04  0.93271167541E+02 0.  0.
    5000000    2    1    2    0    0  0.46833899632E+03  0.13081206995E+04 -0.46572767430E+03  0.15834896612E+04  0.60001338363E+03 0.  0.
         23    2    4    4    0    0  0.20217483784E+03  0.12919286175E+03  0.59269480769E+02  0.26339853948E+03  0.91106853035E+02 0.  0.
         23    2    4    4    0    0  0.26616415848E+03  0.11789278377E+04 -0.52499715507E+03  0.13200911217E+04  0.79399942562E+02 0.  0.
          1    1    3    3  502    0 -0.82209624287E+02 -0.34955327224E+03  0.32651085774E+03  0.48534034726E+03  0.00000000000E+00 0. -1.
         -1    1    3    3    0  502 -0.38612937203E+03 -0.95856742725E+03  0.91192201402E+03  0.13782413302E+04  0.00000000000E+00 0.  1.
         13    1    5    5    0    0  0.11703050707E+03  0.12204318746E+03  0.23273999694E+02  0.17068203846E+03  0.00000000000E+00 0. -1.
        -13    1    5    5    0    0  0.85144330769E+02  0.71496742873E+01  0.35995481075E+02  0.92716501025E+02  0.00000000000E+00 0.  1.
          1    1    6    6  503    0  0.17625036284E+02  0.18074498842E+03 -0.97680846191E+02  0.20620606309E+03  0.00000000000E+00 0. -1.
         -1    1    6    6    0  503  0.24853912219E+03  0.99818284932E+03 -0.42731630888E+03  0.11138850586E+04  0.00000000000E+00 0.  1.
<mgrwt>
<rscale>  0 0.14286498E+04</rscale>
<asrwt>0</asrwt>
<pdfrwt beam="1">  1        2 0.32459819E+00 0.14286498E+04</pdfrwt>
<pdfrwt beam="2">  1       -2 0.20572047E+00 0.14286498E+04</pdfrwt>
<totfact> 0.66978065E-01</totfact>
</mgrwt>
</event>
<event>
12    1  0.1335216E-007  0.7301071E+03  0.7818608E-02  0.9667087E-01
          2   -1    0    0  501    0  0.00000000000E+00  0.00000000000E+00  0.11281302258E+04  0.11281302258E+04  0.00000000000E+00 0. -1.
         -2   -1    0    0    0  501 -0.00000000000E+00 -0.00000000000E+00 -0.52626769660E+03  0.52626769660E+03  0.00000000000E+00 0.  1.
         23    2    1    2    0    0  0.52795541784E+03 -0.32174708843E+03  0.47199341473E+03  0.78325627619E+03  0.91948346939E+02 0.  0.
    5000000    2    1    2    0    0 -0.52795541784E+03  0.32174708843E+03  0.12986911449E+03  0.87114164623E+03  0.59980302497E+03 0.  0.
         23    2    4    4    0    0 -0.46437681614E+03 -0.36368798125E+02  0.49589264850E+00  0.47424549019E+03  0.89106802244E+02 0.  0.
         23    2    4    4    0    0 -0.63578601699E+02  0.35811588655E+03  0.12937322184E+03  0.39689615604E+03  0.92194909608E+02 0.  0.
          3    1    3    3  502    0  0.39482483747E+03 -0.28235818830E+03  0.34982557573E+03  0.59832326732E+03  0.00000000000E+00 0. -1.
         -3    1    3    3    0  502  0.13313058037E+03 -0.39388900123E+02  0.12216783900E+03  0.18493300887E+03  0.00000000000E+00 0.  1.
         13    1    5    5    0    0 -0.20792837649E+03  0.17745389174E+02  0.28651174297E+02  0.21064187232E+03  0.00000000000E+00 0.  1.
        -13    1    5    5    0    0 -0.25644843965E+03 -0.54114187299E+02 -0.28155281648E+02  0.26360361787E+03  0.00000000000E+00 0. -1.
          2    1    6    6  503    0 -0.10961815453E+02  0.15472152450E+03  0.10399287225E+02  0.15545757207E+03  0.00000000000E+00 0. -1.
         -2    1    6    6    0  503 -0.52616786246E+02  0.20339436206E+03  0.11897393462E+03  0.24143858397E+03  0.00000000000E+00 0.  1.
<mgrwt>
<rscale>  0 0.73010707E+03</rscale>
<asrwt>0</asrwt>
<pdfrwt beam="1">  1        2 0.17355850E+00 0.73010707E+03</pdfrwt>
<pdfrwt beam="2">  1       -2 0.80964261E-01 0.73010707E+03</pdfrwt>
<totfact> 0.28726994E+01</totfact>
</mgrwt>
</event>
<event>
12    1  0.1335216E-007  0.7575175E+03  0.7818608E-02  0.9623630E-01
          1   -1    0    0  501    0  0.00000000000E+00  0.00000000000E+00  0.23085593039E+04  0.23085593039E+04  0.00000000000E+00 0. -1.
         -1   -1    0    0    0  501 -0.00000000000E+00 -0.00000000000E+00 -0.26428780528E+03  0.26428780528E+03  0.00000000000E+00 0.  1.
         23    2    1    2    0    0 -0.60992493720E+03 -0.24197988567E+03  0.72662855662E+03  0.98324491123E+03  0.90657609029E+02 0.  0.
    5000000    2    1    2    0    0  0.60992493720E+03  0.24197988567E+03  0.13176429420E+04  0.15896021979E+04  0.60007460456E+03 0.  0.
         23    2    4    4    0    0  0.44184323831E+03 -0.11196734040E+03  0.88141300198E+03  0.99649505221E+03  0.91385865721E+02 0.  0.
         23    2    4    4    0    0  0.16808169888E+03  0.35394722606E+03  0.43622993999E+03  0.59310714571E+03  0.89159572765E+02 0.  0.
          2    1    3    3  502    0 -0.36642147365E+03 -0.17650769139E+03  0.39830975656E+03  0.56927174850E+03  0.00000000000E+00 0. -1.
         -2    1    3    3    0  502 -0.24350346355E+03 -0.65472194277E+02  0.32831880007E+03  0.41397316273E+03  0.00000000000E+00 0.  1.
         13    1    5    5    0    0  0.78194902558E+02 -0.25784037747E+02  0.24499113877E+03  0.25845680000E+03  0.00000000000E+00 0. -1.
        -13    1    5    5    0    0  0.36364833575E+03 -0.86183302652E+02  0.63642186321E+03  0.73803825221E+03  0.00000000000E+00 0.  1.
          1    1    6    6  503    0 -0.10509576660E+01  0.67113708754E+02  0.95090569110E+02  0.11639403227E+03  0.00000000000E+00 0. -1.
         -1    1    6    6    0  503  0.16913265655E+03  0.28683351731E+03  0.34113937088E+03  0.47671311344E+03  0.00000000000E+00 0.  1.
<mgrwt>
<rscale>  0 0.75751752E+03</rscale>
<asrwt>0</asrwt>
<pdfrwt beam="1">  1        1 0.35516296E+00 0.75751752E+03</pdfrwt>
<pdfrwt beam="2">  1       -1 0.40659664E-01 0.75751752E+03</pdfrwt>
<totfact> 0.11377766E+01</totfact>
</mgrwt>
</event>
<event>
12    1  0.1335216E-007  0.4205528E+03  0.7818608E-02  0.1036887E+00
         -1   -1    0    0    0  501 -0.00000000000E+00  0.00000000000E+00  0.16324307432E+04  0.16324307432E+04  0.00000000000E+00 0.  1.
          1   -1    0    0  501    0  0.00000000000E+00 -0.00000000000E+00 -0.34146781330E+03  0.34146781330E+03  0.00000000000E+00 0. -1.
         23    2    1    2    0    0 -0.37433103389E+03  0.97613855278E+02 -0.10108545904E+03  0.40915960334E+03  0.86839641291E+02 0.  0.
    5000000    2    1    2    0    0  0.37433103389E+03 -0.97613855278E+02  0.13920483890E+04  0.15647389532E+04  0.60079704288E+03 0.  0.
         23    2    4    4    0    0  0.28611978504E+03 -0.28854739738E+02  0.13862020250E+04  0.14186494768E+04  0.91176514255E+02 0.  0.
         23    2    4    4    0    0  0.88211248854E+02 -0.68759115540E+02  0.58463640109E+01  0.14608947635E+03  0.93802530532E+02 0.  0.
          2    1    3    3  502    0 -0.14866447395E+03 -0.14488489901E+01 -0.21760262410E+02  0.15025556229E+03  0.00000000000E+00 0. -1.
         -2    1    3    3    0  502 -0.22566655994E+03  0.99062704268E+02 -0.79325196628E+02  0.25890404105E+03  0.00000000000E+00 0.  1.
         13    1    5    5    0    0  0.14748704303E+02 -0.25893755911E+02  0.11470284643E+03  0.11851056431E+03  0.00000000000E+00 0.  1.
        -13    1    5    5    0    0  0.27137108074E+03 -0.29609838273E+01  0.12714991785E+04  0.13001389125E+04  0.00000000000E+00 0. -1.
          3    1    6    6  503    0  0.62392225352E+02  0.88380003439E+01  0.11733069639E+02  0.64098088565E+02  0.00000000000E+00 0. -1.
         -3    1    6    6    0  503  0.25819023501E+02 -0.77597115884E+02 -0.58867056279E+01  0.81991387787E+02  0.00000000000E+00 0.  1.
<mgrwt>
<rscale>  0 0.42055281E+03</rscale>
<asrwt>0</asrwt>
<pdfrwt beam="1">  1        1 0.52533511E-01 0.42055281E+03</pdfrwt>
<pdfrwt beam="2">  1       -1 0.25114319E+00 0.42055281E+03</pdfrwt>
<totfact> 0.56006328E+00</totfact>
</mgrwt>
</event>
<event>
12    1  0.1335216E-007  0.4271640E+03  0.7818608E-02  0.1034760E+00
          1   -1    0    0  501    0  0.00000000000E+00  0.00000000000E+00  0.92794601014E+03  0.92794601014E+03  0.00000000000E+00 0. -1.
         -1   -1    0    0    0  501 -0.00000000000E+00 -0.00000000000E+00 -0.32807296600E+03  0.32807296600E+03  0.00000000000E+00 0.  1.
         23    2    1    2    0    0  0.51967972656E+02  0.31505528181E+03 -0.22111662488E+02  0.33433202488E+03  0.96584038352E+02 0.  0.
    5000000    2    1    2    0    0 -0.51967972656E+02 -0.31505528181E+03  0.62198470663E+03  0.92168695125E+03  0.60056753163E+03 0.  0.
         23    2    4    4    0    0  0.11824201992E+03 -0.32221268289E+03  0.10669441965E+03  0.37095100247E+03  0.91753794285E+02 0.  0.
         23    2    4    4    0    0 -0.17020999257E+03  0.71574010729E+01  0.51529028698E+03  0.55073594878E+03  0.93612688553E+02 0.  0.
          2    1    3    3  502    0  0.77830846359E+02  0.22532435374E+03 -0.31576148711E+02  0.24046986963E+03  0.00000000000E+00 0.  1.
         -2    1    3    3    0  502 -0.25862873703E+02  0.89730928069E+02  0.94644862222E+01  0.93862155248E+02  0.00000000000E+00 0. -1.
         13    1    5    5    0    0  0.25221756570E+02 -0.16781783763E+03  0.19817798562E+02  0.17085581281E+03  0.00000000000E+00 0.  1.
        -13    1    5    5    0    0  0.93020263349E+02 -0.15439484525E+03  0.86876621084E+02  0.20009518966E+03  0.00000000000E+00 0. -1.
          4    1    6    6  503    0 -0.47739527414E+02 -0.10458636488E+02  0.28643452502E+03  0.29057388506E+03  0.00000000000E+00 0. -1.
         -4    1    6    6    0  503 -0.12247046516E+03  0.17616037561E+02  0.22885576196E+03  0.26016206372E+03  0.00000000000E+00 0.  1.
<mgrwt>
<rscale>  0 0.42716401E+03</rscale>
<asrwt>0</asrwt>
<pdfrwt beam="1">  1        1 0.14276092E+00 0.42716401E+03</pdfrwt>
<pdfrwt beam="2">  1       -1 0.50472764E-01 0.42716401E+03</pdfrwt>
<totfact> 0.72167102E+01</totfact>
</mgrwt>
</event>
<event>
12    1  0.1335216E-007  0.5995433E+03  0.7818608E-02  0.9906354E-01
         -2   -1    0    0    0  501 -0.00000000000E+00  0.00000000000E+00  0.32299279758E+03  0.32299279758E+03  0.00000000000E+00 0. -1.
          2   -1    0    0  501    0  0.00000000000E+00 -0.00000000000E+00 -0.16077310559E+04  0.16077310559E+04  0.00000000000E+00 0.  1.
         23    2    1    2    0    0 -0.15935295937E+03 -0.55807816001E+03 -0.38074209359E+03  0.70015799193E+03  0.91717356548E+02 0.  0.
    5000000    2    1    2    0    0  0.15935295937E+03  0.55807816001E+03 -0.90399616472E+03  0.12305658615E+04  0.60019886322E+03 0.  0.
         23    2    4    4    0    0  0.13169471025E+03  0.18672231596E+03  0.24111018934E+01  0.24636589471E+03  0.92095714767E+02 0.  0.
         23    2    4    4    0    0  0.27658249125E+02  0.37135584405E+03 -0.90640726661E+03  0.98419996682E+03  0.91680423630E+02 0.  0.
          1    1    3    3  502    0 -0.12843742561E+03 -0.50759315230E+03 -0.31225235647E+03  0.60962981774E+03  0.00000000000E+00 0. -1.
         -1    1    3    3    0  502 -0.30915533760E+02 -0.50485007713E+02 -0.68489737121E+02  0.90528174191E+02  0.00000000000E+00 0.  1.
         13    1    5    5    0    0  0.13612066504E+03  0.18718763402E+03 -0.11526964760E+02  0.23173458244E+03  0.00000000000E+00 0.  1.
        -13    1    5    5    0    0 -0.44259547974E+01 -0.46531805458E+00  0.13938066654E+02  0.14631312272E+02  0.00000000000E+00 0. -1.
          1    1    6    6  503    0  0.41729413405E+02  0.95917600126E+02 -0.30845295482E+03  0.32570654782E+03  0.00000000000E+00 0.  1.
         -1    1    6    6    0  503 -0.14071164279E+02  0.27543824392E+03 -0.59795431179E+03  0.65849341900E+03  0.00000000000E+00 0. -1.
<mgrwt>
<rscale>  0 0.59954330E+03</rscale>
<asrwt>0</asrwt>
<pdfrwt beam="1">  1        2 0.24734323E+00 0.59954330E+03</pdfrwt>
<pdfrwt beam="2">  1       -2 0.49691201E-01 0.59954330E+03</pdfrwt>
<totfact> 0.44142585E+01</totfact>
</mgrwt>
</event>
<event>
12    1  0.1335216E-007  0.1241058E+04  0.7818608E-02  0.9077658E-01
          2   -1    0    0  501    0  0.00000000000E+00  0.00000000000E+00  0.26216223402E+04  0.26216223402E+04  0.00000000000E+00 0. -1.
         -2   -1    0    0    0  501 -0.00000000000E+00 -0.00000000000E+00 -0.77280870224E+03  0.77280870224E+03  0.00000000000E+00 0.  1.
         23    2    1    2    0    0 -0.30632072946E+03 -0.11424322483E+04  0.16813799799E+04  0.20576349489E+04  0.88538776780E+02 0.  0.
    5000000    2    1    2    0    0  0.30632072946E+03  0.11424322483E+04  0.16743365808E+03  0.13367960935E+04  0.60000494553E+03 0.  0.
         23    2    4    4    0    0 -0.12043716658E+03  0.70399262219E+02  0.49222424090E+02  0.17336772847E+03  0.90401078680E+02 0.  0.
         23    2    4    4    0    0  0.42675789605E+03  0.10720329860E+04  0.11821123399E+03  0.11634283651E+04  0.90634650051E+02 0.  0.
          3    1    3    3  502    0 -0.15613374134E+03 -0.53137010233E+03  0.86051991561E+03  0.10233408308E+04  0.00000000000E+00 0. -1.
         -3    1    3    3    0  502 -0.15018698813E+03 -0.61106214594E+03  0.82086006429E+03  0.10342941181E+04  0.00000000000E+00 0.  1.
         13    1    5    5    0    0 -0.99689762228E+02  0.73843830741E+02  0.71125029285E+02  0.14300255180E+03  0.00000000000E+00 0.  1.
        -13    1    5    5    0    0 -0.20747404354E+02 -0.34445685220E+01 -0.21902605194E+02  0.30365176667E+02  0.00000000000E+00 0. -1.
          2    1    6    6  503    0  0.26916790704E+03  0.65719802245E+03  0.28905019459E+02  0.71077148440E+03  0.00000000000E+00 0. -1.
         -2    1    6    6    0  503  0.15758998901E+03  0.41483496360E+03  0.89306214528E+02  0.45265688067E+03  0.00000000000E+00 0.  1.
<mgrwt>
<rscale>  0 0.12410584E+04</rscale>
<asrwt>0</asrwt>
<pdfrwt beam="1">  1        2 0.40332651E+00 0.12410584E+04</pdfrwt>
<pdfrwt beam="2">  1       -2 0.11889365E+00 0.12410584E+04</pdfrwt>
<totfact> 0.15695912E+00</totfact>
</mgrwt>
</event>
<event>
12    1  0.1335216E-007  0.1008367E+04  0.7818608E-02  0.9299415E-01
         -2   -1    0    0    0  501 -0.00000000000E+00  0.00000000000E+00  0.72535619820E+03  0.72535619820E+03  0.00000000000E+00 0.  1.
          2   -1    0    0  501    0  0.00000000000E+00 -0.00000000000E+00 -0.35320666462E+04  0.35320666462E+04  0.00000000000E+00 0. -1.
         23    2    1    2    0    0  0.50756375313E+03 -0.84618242114E+03  0.22242269166E+03  0.10156423847E+04  0.91716663992E+02 0.  0.
    5000000    2    1    2    0    0 -0.50756375313E+03  0.84618242114E+03 -0.30291331397E+04  0.32417804598E+04  0.59987275148E+03 0.  0.
         23    2    4    4    0    0  0.20248583945E+02  0.13737851983E+03 -0.11629661449E+04  0.11748066068E+04  0.91637581298E+02 0.  0.
         23    2    4    4    0    0 -0.52781233707E+03  0.70880390131E+03 -0.18661669948E+04  0.20669738530E+04  0.93876635806E+02 0.  0.
          1    1    3    3  502    0  0.12001180994E+03 -0.23367043265E+03  0.21926116772E+02  0.26360094882E+03  0.00000000000E+00 0. -1.
         -1    1    3    3    0  502  0.38755194319E+03 -0.61251198849E+03  0.20049657488E+03  0.75204143586E+03  0.00000000000E+00 0.  1.
         11    1    5    5    0    0  0.26632897562E+02  0.83530040821E+02 -0.38076989358E+03  0.39073301730E+03  0.00000000000E+00 0. -1.
        -11    1    5    5    0    0 -0.63843136178E+01  0.53848479011E+02 -0.78219625132E+03  0.78407358949E+03  0.00000000000E+00 0.  1.
          1    1    6    6  503    0 -0.30030202472E+03  0.33652901016E+03 -0.10061387699E+04  0.11026097701E+04  0.00000000000E+00 0. -1.
         -1    1    6    6    0  503 -0.22751031235E+03  0.37227489115E+03 -0.86002822485E+03  0.96436408288E+03  0.00000000000E+00 0.  1.
<mgrwt>
<rscale>  0 0.10083674E+04</rscale>
<asrwt>0</asrwt>
<pdfrwt beam="1">  1        2 0.54339487E+00 0.10083674E+04</pdfrwt>
<pdfrwt beam="2">  1       -2 0.11159326E+00 0.10083674E+04</pdfrwt>
<totfact> 0.50538939E-01</totfact>
</mgrwt>
</event>
<event>
12    1  0.1335216E-007  0.1258670E+04  0.7818608E-02  0.9062998E-01
         -2   -1    0    0    0  501 -0.00000000000E+00  0.00000000000E+00  0.75502626385E+03  0.75502626385E+03  0.00000000000E+00 0. -1.
          2   -1    0    0  501    0  0.00000000000E+00 -0.00000000000E+00 -0.24477195729E+04  0.24477195729E+04  0.00000000000E+00 0.  1.
         23    2    1    2    0    0  0.79382410295E+03  0.97088910569E+03 -0.44106298366E+03  0.13322722096E+04  0.87351719920E+02 0.  0.
    5000000    2    1    2    0    0 -0.79382410295E+03 -0.97088910569E+03 -0.12516303254E+04  0.18704736271E+04  0.59942535514E+03 0.  0.
         23    2    4    4    0    0 -0.52920592008E+03 -0.68686868587E+03 -0.46437837794E+03  0.98792354912E+03  0.92185484438E+02 0.  0.
         23    2    4    4    0    0 -0.26461818287E+03 -0.28402041982E+03 -0.78725194742E+03  0.88255007799E+03  0.91862015307E+02 0.  0.
          3    1    3    3  502    0  0.10783543445E+03  0.15117212931E+03 -0.96195556911E+02  0.20912933504E+03  0.00000000000E+00 0. -1.
         -3    1    3    3    0  502  0.68598866850E+03  0.81971697638E+03 -0.34486742675E+03  0.11231428746E+04  0.00000000000E+00 0.  1.
         13    1    5    5    0    0 -0.52611422756E+03 -0.68984617631E+03 -0.46314894774E+03  0.98345862912E+03  0.00000000000E+00 0.  1.
        -13    1    5    5    0    0 -0.30916925229E+01  0.29774904413E+01 -0.12294302009E+01  0.44649199997E+01  0.00000000000E+00 0. -1.
          3    1    6    6  503    0 -0.10744123188E+03 -0.14895325430E+03 -0.45867057659E+03  0.49407427387E+03  0.00000000000E+00 0. -1.
         -3    1    6    6    0  503 -0.15717695099E+03 -0.13506716552E+03 -0.32858137083E+03  0.38847580412E+03  0.00000000000E+00 0.  1.
<mgrwt>
<rscale>  0 0.12586705E+04</rscale>
<asrwt>0</asrwt>
<pdfrwt beam="1">  1        2 0.37657224E+00 0.12586705E+04</pdfrwt>
<pdfrwt beam="2">  1       -2 0.11615789E+00 0.12586705E+04</pdfrwt>
<totfact> 0.20914504E+00</totfact>
</mgrwt>
</event>
<event>
12    1  0.1335216E-007  0.4526425E+03  0.7818608E-02  0.1026937E+00
         -2   -1    0    0    0  501 -0.00000000000E+00  0.00000000000E+00  0.31313430606E+03  0.31313430606E+03  0.00000000000E+00 0.  1.
          2   -1    0    0  501    0  0.00000000000E+00 -0.00000000000E+00 -0.95997335291E+03  0.95997335291E+03  0.00000000000E+00 0. -1.
         23    2    1    2    0    0 -0.14858913654E+03  0.26820761565E+03  0.27273775468E+02  0.32002706290E+03  0.87518029952E+02 0.  0.
    5000000    2    1    2    0    0  0.14858913654E+03 -0.26820761565E+03 -0.67411282232E+03  0.95308059607E+03  0.59993372033E+03 0.  0.
         23    2    4    4    0    0 -0.16460559126E+03  0.63233469766E+01 -0.41258192597E+03  0.45339610812E+03  0.90604634732E+02 0.  0.
         23    2    4    4    0    0  0.31319472781E+03 -0.27453096263E+03 -0.26153089635E+03  0.49968448795E+03  0.88475933319E+02 0.  0.
          1    1    3    3  502    0 -0.17841896555E+02  0.89504177405E+02  0.36777100144E+02  0.98396575859E+02  0.00000000000E+00 0. -1.
         -1    1    3    3    0  502 -0.13074723999E+03  0.17870343825E+03 -0.95033246755E+01  0.22163048704E+03  0.00000000000E+00 0.  1.
         13    1    5    5    0    0 -0.97798336130E+02  0.33747051157E+02 -0.15870976745E+03  0.18945228501E+03  0.00000000000E+00 0. -1.
        -13    1    5    5    0    0 -0.66807255134E+02 -0.27423704181E+02 -0.25387215852E+03  0.26394382312E+03  0.00000000000E+00 0.  1.
          2    1    6    6  503    0  0.63373974180E+02 -0.45664719210E+02 -0.92449436128E+02  0.12103067968E+03  0.00000000000E+00 0. -1.
         -2    1    6    6    0  503  0.24982075363E+03 -0.22886624342E+03 -0.16908146023E+03  0.37865380826E+03  0.00000000000E+00 0.  1.
<mgrwt>
<rscale>  0 0.45264251E+03</rscale>
<asrwt>0</asrwt>
<pdfrwt beam="1">  1        2 0.14768821E+00 0.45264251E+03</pdfrwt>
<pdfrwt beam="2">  1       -2 0.48174509E-01 0.45264251E+03</pdfrwt>
<totfact> 0.11350740E+02</totfact>
</mgrwt>
</event>
<event>
12    1  0.1335216E-007  0.5791661E+03  0.7818608E-02  0.9949598E-01
          2   -1    0    0  501    0  0.00000000000E+00  0.00000000000E+00  0.21324047725E+04  0.21324047725E+04  0.00000000000E+00 0. -1.
         -2   -1    0    0    0  501 -0.00000000000E+00 -0.00000000000E+00 -0.19633945870E+03  0.19633945870E+03  0.00000000000E+00 0.  1.
         23    2    1    2    0    0  0.80652592463E+02  0.42277806476E+03  0.29575640608E+03  0.52990803704E+03  0.89914088238E+02 0.  0.
    5000000    2    1    2    0    0 -0.80652592463E+02 -0.42277806476E+03  0.16403089078E+04  0.17988361942E+04  0.59996017202E+03 0.  0.
         23    2    4    4    0    0 -0.30907371274E+03 -0.12655259022E+03  0.88368377013E+03  0.94995860477E+03  0.99911096462E+02 0.  0.
         23    2    4    4    0    0  0.22842112028E+03 -0.29622547455E+03  0.75662513763E+03  0.84887758944E+03  0.90475538101E+02 0.  0.
          1    1    3    3  502    0  0.23085252785E+02  0.28310710322E+03  0.15578860971E+03  0.32396396667E+03  0.00000000000E+00 0. -1.
         -1    1    3    3    0  502  0.57567339677E+02  0.13967096154E+03  0.13996779637E+03  0.20594407036E+03  0.00000000000E+00 0.  1.
         11    1    5    5    0    0 -0.29224089474E+03 -0.13535790249E+03  0.76910840294E+03  0.83381906778E+03  0.00000000000E+00 0.  1.
        -11    1    5    5    0    0 -0.16832818001E+02  0.88053122726E+01  0.11457536719E+03  0.11613953699E+03  0.00000000000E+00 0. -1.
          3    1    6    6  503    0  0.20936333002E+03 -0.22047876034E+03  0.55822931277E+03  0.63566017128E+03  0.00000000000E+00 0. -1.
         -3    1    6    6    0  503  0.19057790256E+02 -0.75746714206E+02  0.19839582486E+03  0.21321741816E+03  0.00000000000E+00 0.  1.
<mgrwt>
<rscale>  0 0.57916611E+03</rscale>
<asrwt>0</asrwt>
<pdfrwt beam="1">  1        2 0.32806226E+00 0.57916611E+03</pdfrwt>
<pdfrwt beam="2">  1       -2 0.30206072E-01 0.57916611E+03</pdfrwt>
<totfact> 0.60227841E+01</totfact>
</mgrwt>
</event>
<event>
12    1  0.1335216E-007  0.9638587E+03  0.7818608E-02  0.9349097E-01
         -2   -1    0    0    0  501 -0.00000000000E+00  0.00000000000E+00  0.10054843813E+04  0.10054843813E+04  0.00000000000E+00 0.  1.
          2   -1    0    0  501    0  0.00000000000E+00 -0.00000000000E+00 -0.11874110485E+04  0.11874110485E+04  0.00000000000E+00 0. -1.
         23    2    1    2    0    0 -0.30210226975E+03 -0.85507352326E+03 -0.52585877908E+03  0.10524596016E+04  0.93419729984E+02 0.  0.
    5000000    2    1    2    0    0  0.30210226975E+03  0.85507352326E+03  0.34393211187E+03  0.11404358282E+04  0.59990671692E+03 0.  0.
         23    2    4    4    0    0  0.18749420145E+03  0.53410654792E+02 -0.70717191187E+02  0.22594442330E+03  0.89683820558E+02 0.  0.
         23    2    4    4    0    0  0.11460806830E+03  0.80166286847E+03  0.41464930306E+03  0.91449140486E+03  0.92531729875E+02 0.  0.
          2    1    3    3  502    0 -0.10217120944E+03 -0.41729148468E+03 -0.26975157578E+03  0.50728399527E+03  0.00000000000E+00 0. -1.
         -2    1    3    3    0  502 -0.19993106031E+03 -0.43778203859E+03 -0.25610720330E+03  0.54517560636E+03  0.00000000000E+00 0.  1.
         13    1    5    5    0    0  0.12907241211E+03  0.22400474827E+01 -0.72894681638E+02  0.14825093589E+03  0.00000000000E+00 0.  1.
        -13    1    5    5    0    0  0.58421789335E+02  0.51170607309E+02  0.21774904508E+01  0.77693487411E+02  0.00000000000E+00 0. -1.
          4    1    6    6  503    0  0.10585509754E+03  0.69092044626E+03  0.32087012599E+03  0.76911247714E+03  0.00000000000E+00 0. -1.
         -4    1    6    6    0  503  0.87529707626E+01  0.11074242221E+03  0.93779177072E+02  0.14537892772E+03  0.00000000000E+00 0.  1.
<mgrwt>
<rscale>  0 0.96385867E+03</rscale>
<asrwt>0</asrwt>
<pdfrwt beam="1">  1        2 0.18267862E+00 0.96385867E+03</pdfrwt>
<pdfrwt beam="2">  1       -2 0.15468990E+00 0.96385867E+03</pdfrwt>
<totfact> 0.52931488E+00</totfact>
</mgrwt>
</event>
<event>
12    1  0.1335216E-007  0.3165781E+03  0.7818608E-02  0.1077235E+00
         -1   -1    0    0    0  501 -0.00000000000E+00  0.00000000000E+00  0.20253793619E+03  0.20253793619E+03  0.00000000000E+00 0.  1.
          1   -1    0    0  501    0  0.00000000000E+00 -0.00000000000E+00 -0.11634021310E+04  0.11634021310E+04  0.00000000000E+00 0. -1.
         23    2    1    2    0    0 -0.11214479985E+03 -0.90641127090E+02  0.52629478079E+02  0.17936611420E+03  0.92790467757E+02 0.  0.
    5000000    2    1    2    0    0  0.11214479985E+03  0.90641127090E+02 -0.10134936729E+04  0.11865739530E+04  0.59999670905E+03 0.  0.
         23    2    4    4    0    0  0.26948691710E+03 -0.80330801404E+01 -0.20155638817E+03  0.34836717890E+03  0.89704987925E+02 0.  0.
         23    2    4    4    0    0 -0.15734211725E+03  0.98674207230E+02 -0.81193728474E+03  0.83820677411E+03  0.94102607681E+02 0.  0.
          4    1    3    3  502    0 -0.14284425996E+02  0.10906329826E+02 -0.14580621108E+02  0.23142760600E+02  0.00000000000E+00 0. -1.
         -4    1    3    3    0  502 -0.97860373852E+02 -0.10154745692E+03  0.67210099187E+02  0.15622335360E+03  0.00000000000E+00 0.  1.
         13    1    5    5    0    0  0.21504490379E+03  0.30816750374E+02 -0.15559727535E+03  0.26721619495E+03  0.00000000000E+00 0. -1.
        -13    1    5    5    0    0  0.54442013311E+02 -0.38849830515E+02 -0.45959112822E+02  0.81150983948E+02  0.00000000000E+00 0.  1.
          3    1    6    6  503    0 -0.81957831908E+02  0.27746306621E+02 -0.20509261162E+03  0.22259812012E+03  0.00000000000E+00 0. -1.
         -3    1    6    6    0  503 -0.75384285344E+02  0.70927900609E+02 -0.60684467312E+03  0.61560865398E+03  0.00000000000E+00 0.  1.
<mgrwt>
<rscale>  0 0.31657812E+03</rscale>
<asrwt>0</asrwt>
<pdfrwt beam="1">  1        1 0.17898494E+00 0.31657812E+03</pdfrwt>
<pdfrwt beam="2">  1       -1 0.31159683E-01 0.31657812E+03</pdfrwt>
<totfact> 0.11657287E+02</totfact>
</mgrwt>
</event>
<event>
12    1  0.1494772E-007  0.1259116E+04  0.7818608E-02  0.9062630E-01
          1   -1    0    0  501    0  0.00000000000E+00  0.00000000000E+00  0.96528898917E+03  0.96528898917E+03  0.00000000000E+00 0. -1.
         -1   -1    0    0    0  501 -0.00000000000E+00 -0.00000000000E+00 -0.19782675145E+04  0.19782675145E+04  0.00000000000E+00 0.  1.
         23    2    1    2    0    0 -0.35171575777E+03 -0.11718591060E+04  0.30824793592E+02  0.12273380684E+04  0.91928383025E+02 0.  0.
    5000000    2    1    2    0    0  0.35171575777E+03  0.11718591060E+04 -0.10438033189E+04  0.17162184352E+04  0.59910150259E+03 0.  0.
         23    2    4    4    0    0 -0.75082501869E+02  0.36289983176E+03 -0.93208408580E+02  0.39374185509E+03  0.94927188095E+02 0.  0.
         23    2    4    4    0    0  0.42679825964E+03  0.80895927424E+03 -0.95059491030E+03  0.13224765802E+04  0.93497378444E+02 0.  0.
          4    1    3    3  502    0 -0.25366045878E+03 -0.72646080498E+03 -0.91279444617E+01  0.76952728924E+03  0.00000000000E+00 0. -1.
         -4    1    3    3    0  502 -0.98055298991E+02 -0.44539830103E+03  0.39952738053E+02  0.45781077914E+03  0.00000000000E+00 0.  1.
         13    1    5    5    0    0 -0.15902910953E+02  0.20151988375E+03 -0.90306779459E+01  0.20234801523E+03  0.00000000000E+00 0. -1.
        -13    1    5    5    0    0 -0.59179590915E+02  0.16137994801E+03 -0.84177730634E+02  0.19139383986E+03  0.00000000000E+00 0.  1.
          3    1    6    6  503    0  0.23180099979E+03  0.34777989976E+03 -0.45912797360E+03  0.62087120912E+03  0.00000000000E+00 0. -1.
         -3    1    6    6    0  503  0.19499725985E+03  0.46117937448E+03 -0.49146693670E+03  0.70160537103E+03  0.00000000000E+00 0.  1.
<mgrwt>
<rscale>  0 0.12591163E+04</rscale>
<asrwt>0</asrwt>
<pdfrwt beam="1">  1        1 0.14850600E+00 0.12591163E+04</pdfrwt>
<pdfrwt beam="2">  1       -1 0.30434885E+00 0.12591163E+04</pdfrwt>
<totfact> 0.48795524E-01</totfact>
</mgrwt>
</event>
<event>
12    1  0.1335216E-007  0.6488679E+03  0.7818608E-02  0.9808906E-01
         -2   -1    0    0    0  501 -0.00000000000E+00  0.00000000000E+00  0.57598388402E+03  0.57598388402E+03  0.00000000000E+00 0. -1.
          2   -1    0    0  501    0  0.00000000000E+00 -0.00000000000E+00 -0.10038662817E+04  0.10038662817E+04  0.00000000000E+00 0.  1.
         23    2    1    2    0    0 -0.38724760989E+03 -0.43509755034E+03  0.91091781745E+02  0.59574458987E+03  0.85693138460E+02 0.  0.
    5000000    2    1    2    0    0  0.38724760989E+03  0.43509755034E+03 -0.51897417946E+03  0.98410557589E+03  0.59988248506E+03 0.  0.
         23    2    4    4    0    0  0.42482493384E+03  0.44407844178E+03 -0.59494619933E+03  0.86049952022E+03  0.93896524548E+02 0.  0.
         23    2    4    4    0    0 -0.37577323956E+02 -0.89808914464E+01  0.75972019872E+02  0.12360605567E+03  0.89520933357E+02 0.  0.
          1    1    3    3  502    0 -0.31995523129E+03 -0.30410820990E+03  0.71802677400E+02  0.44722340931E+03  0.00000000000E+00 0.  1.
         -1    1    3    3    0  502 -0.67292378603E+02 -0.13098934044E+03  0.19289104345E+02  0.14852118056E+03  0.00000000000E+00 0. -1.
         11    1    5    5    0    0 -0.31791209280E+01  0.50380041717E+01  0.27458446364E+00  0.59635302076E+01  0.00000000000E+00 0.  1.
        -11    1    5    5    0    0  0.42800405477E+03  0.43904043761E+03 -0.59522078380E+03  0.85453599001E+03  0.00000000000E+00 0. -1.
          2    1    6    6  503    0 -0.24004951570E+02 -0.45251343129E+02  0.66129379139E+02  0.83648171171E+02  0.00000000000E+00 0. -1.
         -2    1    6    6    0  503 -0.13572372386E+02  0.36270451683E+02  0.98426407330E+01  0.39957884504E+02  0.00000000000E+00 0.  1.
<mgrwt>
<rscale>  0 0.64886791E+03</rscale>
<asrwt>0</asrwt>
<pdfrwt beam="1">  1        2 0.15444097E+00 0.64886791E+03</pdfrwt>
<pdfrwt beam="2">  1       -2 0.88612906E-01 0.64886791E+03</pdfrwt>
<totfact> 0.28177858E+01</totfact>
</mgrwt>
</event>
<event>
12    1  0.1335216E-007  0.5236338E+03  0.7818608E-02  0.1007788E+00
          1   -1    0    0  501    0  0.00000000000E+00  0.00000000000E+00  0.97278334786E+03  0.97278334786E+03  0.00000000000E+00 0. -1.
         -1   -1    0    0    0  501 -0.00000000000E+00 -0.00000000000E+00 -0.42350647889E+03  0.42350647889E+03  0.00000000000E+00 0.  1.
         23    2    1    2    0    0 -0.15129550232E+03  0.34041942384E+03  0.57496378714E+03  0.69081518405E+03  0.88693567056E+02 0.  0.
    5000000    2    1    2    0    0  0.15129550232E+03 -0.34041942384E+03 -0.25686918169E+02  0.70547464271E+03  0.59854735869E+03 0.  0.
         23    2    4    4    0    0 -0.21095792077E+03 -0.93625601404E+02 -0.65881915020E+02  0.25592627315E+03  0.88819102590E+02 0.  0.
         23    2    4    4    0    0  0.36225342309E+03 -0.24679382243E+03  0.40194996850E+02  0.44954836956E+03  0.91342024678E+02 0.  0.
          4    1    3    3  502    0 -0.58025140044E+02  0.83792412331E+02  0.98984613394E+02  0.14207758067E+03  0.00000000000E+00 0. -1.
         -4    1    3    3    0  502 -0.93270362275E+02  0.25662701151E+03  0.47597917375E+03  0.54873760337E+03  0.00000000000E+00 0.  1.
         11    1    5    5    0    0 -0.41147992802E+02 -0.10779278490E+02  0.21609526901E+02  0.47710814385E+02  0.00000000000E+00 0.  1.
        -11    1    5    5    0    0 -0.16980992797E+03 -0.82846322914E+02 -0.87491441921E+02  0.20821545876E+03  0.00000000000E+00 0. -1.
          3    1    6    6  503    0  0.24898304984E+03 -0.14268371757E+03  0.63595565971E+02  0.29393128173E+03  0.00000000000E+00 0.  1.
         -3    1    6    6    0  503  0.11327037325E+03 -0.10411010486E+03 -0.23400569121E+02  0.15561708783E+03  0.00000000000E+00 0. -1.
<mgrwt>
<rscale>  0 0.52363375E+03</rscale>
<asrwt>0</asrwt>
<pdfrwt beam="1">  1        1 0.14965898E+00 0.52363375E+03</pdfrwt>
<pdfrwt beam="2">  1       -1 0.65154843E-01 0.52363375E+03</pdfrwt>
<totfact> 0.40033603E+01</totfact>
</mgrwt>
</event>
<event>
12    1  0.1335216E-007  0.5117470E+03  0.7818608E-02  0.1010757E+00
         -2   -1    0    0    0  501 -0.00000000000E+00  0.00000000000E+00  0.20917867592E+03  0.20917867592E+03  0.00000000000E+00 0.  1.
          2   -1    0    0  501    0  0.00000000000E+00 -0.00000000000E+00 -0.15854703569E+04  0.15854703569E+04  0.00000000000E+00 0. -1.
         23    2    1    2    0    0  0.19251867699E+03  0.35268236065E+03 -0.35715615105E+03  0.54564675164E+03  0.93389361504E+02 0.  0.
    5000000    2    1    2    0    0 -0.19251867699E+03 -0.35268236065E+03 -0.10191355299E+04  0.12490022811E+04  0.59993431432E+03 0.  0.
         23    2    4    4    0    0 -0.33653781795E+03 -0.26668617491E+03 -0.37580653158E+03  0.57821111769E+03  0.93371990689E+02 0.  0.
         23    2    4    4    0    0  0.14401914096E+03 -0.85996185744E+02 -0.64332899831E+03  0.67079116345E+03  0.89172461918E+02 0.  0.
          4    1    3    3  502    0  0.16734486385E+02  0.34059668667E+02 -0.78914922625E+02  0.87565227557E+02  0.00000000000E+00 0. -1.
         -4    1    3    3    0  502  0.17578419060E+03  0.31862269199E+03 -0.27824122842E+03  0.45808152408E+03  0.00000000000E+00 0.  1.
         13    1    5    5    0    0 -0.65824617716E+02 -0.98015235684E+02 -0.75625041393E+02  0.14021060448E+03  0.00000000000E+00 0. -1.
        -13    1    5    5    0    0 -0.27071320023E+03 -0.16867093923E+03 -0.30018149019E+03  0.43800051321E+03  0.00000000000E+00 0.  1.
          1    1    6    6  503    0  0.82425812808E+02 -0.91054776179E+02 -0.34724110302E+03  0.36832237308E+03  0.00000000000E+00 0. -1.
         -1    1    6    6    0  503  0.61593328154E+02  0.50585904345E+01 -0.29608789530E+03  0.30246879037E+03  0.00000000000E+00 0.  1.
<mgrwt>
<rscale>  0 0.51174696E+03</rscale>
<asrwt>0</asrwt>
<pdfrwt beam="1">  1        2 0.24391852E+00 0.51174696E+03</pdfrwt>
<pdfrwt beam="2">  1       -2 0.32181334E-01 0.51174696E+03</pdfrwt>
<totfact> 0.10684949E+02</totfact>
</mgrwt>
</event>
<event>
12    1  0.1335216E-007  0.7475658E+03  0.7818608E-02  0.9639177E-01
         -2   -1    0    0    0  501 -0.00000000000E+00  0.00000000000E+00  0.32896772039E+03  0.32896772039E+03  0.00000000000E+00 0.  1.
          2   -1    0    0  501    0  0.00000000000E+00 -0.00000000000E+00 -0.20120868661E+04  0.20120868661E+04  0.00000000000E+00 0. -1.
         23    2    1    2    0    0  0.67255557969E+03  0.18751437824E+03 -0.79857623709E+03  0.10646314367E+04  0.90683183680E+02 0.  0.
    5000000    2    1    2    0    0 -0.67255557969E+03 -0.18751437824E+03 -0.88454290861E+03  0.12764231498E+04  0.59945579507E+03 0.  0.
         23    2    4    4    0    0 -0.68758924000E+03 -0.18008804818E+03 -0.48126893224E+03  0.86306552575E+03  0.89730978726E+02 0.  0.
         23    2    4    4    0    0  0.15033660307E+02 -0.74263300623E+01 -0.40327397637E+03  0.41335762401E+03  0.89182195443E+02 0.  0.
          3    1    3    3  502    0  0.39613238981E+03  0.14824627225E+03 -0.44224542245E+03  0.61194676335E+03  0.00000000000E+00 0. -1.
         -3    1    3    3    0  502  0.27642318989E+03  0.39268105992E+02 -0.35633081463E+03  0.45268467338E+03  0.00000000000E+00 0.  1.
         13    1    5    5    0    0 -0.57668747359E+03 -0.16692667257E+03 -0.43862042461E+03  0.74351922174E+03  0.00000000000E+00 0.  1.
        -13    1    5    5    0    0 -0.11090176641E+03 -0.13161375617E+02 -0.42648507635E+02  0.11954630402E+03  0.00000000000E+00 0. -1.
          2    1    6    6  503    0 -0.18515130312E+02  0.27078564010E+02 -0.26342397163E+03  0.26545856082E+03  0.00000000000E+00 0. -1.
         -2    1    6    6    0  503  0.33548790620E+02 -0.34504894072E+02 -0.13985000474E+03  0.14789906319E+03  0.00000000000E+00 0.  1.
<mgrwt>
<rscale>  0 0.74756579E+03</rscale>
<asrwt>0</asrwt>
<pdfrwt beam="1">  1        2 0.30955183E+00 0.74756579E+03</pdfrwt>
<pdfrwt beam="2">  1       -2 0.50610418E-01 0.74756579E+03</pdfrwt>
<totfact> 0.25106389E+01</totfact>
</mgrwt>
</event>
<event>
12    1  0.1335216E-007  0.1391418E+04  0.7818608E-02  0.8960054E-01
          1   -1    0    0  501    0  0.00000000000E+00  0.00000000000E+00  0.21719062104E+04  0.21719062104E+04  0.00000000000E+00 0. -1.
         -1   -1    0    0    0  501 -0.00000000000E+00 -0.00000000000E+00 -0.10935170308E+04  0.10935170308E+04  0.00000000000E+00 0.  1.
         23    2    1    2    0    0 -0.10168720584E+04 -0.88578422714E+03 -0.13012328507E+03  0.13577723851E+04  0.89282138077E+02 0.  0.
    5000000    2    1    2    0    0  0.10168720584E+04  0.88578422714E+03  0.12085124646E+04  0.19076508562E+04  0.59998910961E+03 0.  0.
         23    2    4    4    0    0  0.35844969690E+01 -0.40070122640E+02  0.56856068659E+02  0.11378437787E+03  0.89976712307E+02 0.  0.
         23    2    4    4    0    0  0.10132875614E+04  0.92585434978E+03  0.11516563960E+04  0.17938664783E+04  0.87672848724E+02 0.  0.
          1    1    3    3  502    0 -0.22861318948E+03 -0.20390591544E+03  0.77308305231E+01  0.30643331819E+03  0.00000000000E+00 0. -1.
         -1    1    3    3    0  502 -0.78825886891E+03 -0.68187831170E+03 -0.13785411559E+03  0.10513390669E+04  0.00000000000E+00 0.  1.
         11    1    5    5    0    0  0.22752734470E+02 -0.11335743185E+02 -0.18131487748E+02  0.31223978724E+02  0.00000000000E+00 0. -1.
        -11    1    5    5    0    0 -0.19168237501E+02 -0.28734379455E+02  0.74987556407E+02  0.82560399148E+02  0.00000000000E+00 0.  1.
          3    1    6    6  503    0  0.14690847207E+03  0.10306612074E+03  0.12693043261E+03  0.21980914252E+03  0.00000000000E+00 0. -1.
         -3    1    6    6    0  503  0.86637908935E+03  0.82278822904E+03  0.10247259634E+04  0.15740573358E+04  0.00000000000E+00 0.  1.
<mgrwt>
<rscale>  0 0.13914176E+04</rscale>
<asrwt>0</asrwt>
<pdfrwt beam="1">  1        1 0.33413942E+00 0.13914176E+04</pdfrwt>
<pdfrwt beam="2">  1       -1 0.16823339E+00 0.13914176E+04</pdfrwt>
<totfact> 0.55396550E-01</totfact>
</mgrwt>
</event>
<event>
12    1  0.1335216E-007  0.5906248E+03  0.7818608E-02  0.9925050E-01
          1   -1    0    0  501    0  0.00000000000E+00  0.00000000000E+00  0.67458381476E+03  0.67458381476E+03  0.00000000000E+00 0. -1.
         -1   -1    0    0    0  501 -0.00000000000E+00 -0.00000000000E+00 -0.60806928506E+03  0.60806928506E+03  0.00000000000E+00 0.  1.
         23    2    1    2    0    0 -0.13026549128E+02 -0.46777591222E+03  0.18121652197E+03  0.51322705743E+03  0.10760385499E+03 0.  0.
    5000000    2    1    2    0    0  0.13026549128E+02  0.46777591222E+03 -0.11470199227E+03  0.76942604238E+03  0.59989656828E+03 0.  0.
         23    2    4    4    0    0 -0.25602173245E+03  0.21115091537E+03 -0.16865780531E+03  0.38314297288E+03  0.90671085958E+02 0.  0.
         23    2    4    4    0    0  0.26904828158E+03  0.25662499685E+03  0.53955813034E+02  0.38628306950E+03  0.89777576251E+02 0.  0.
          3    1    3    3  502    0  0.14030815916E+02 -0.74820925042E+02 -0.74489676700E+01  0.76488703341E+02  0.00000000000E+00 0. -1.
         -3    1    3    3    0  502 -0.27057365044E+02 -0.39295498718E+03  0.18866548964E+03  0.43673835409E+03  0.00000000000E+00 0.  1.
         13    1    5    5    0    0 -0.37029708893E+02  0.65418587771E+02 -0.97009230379E+01  0.75795111152E+02  0.00000000000E+00 0. -1.
        -13    1    5    5    0    0 -0.21899202356E+03  0.14573232760E+03 -0.15895688227E+03  0.30734786173E+03  0.00000000000E+00 0.  1.
          4    1    6    6  503    0  0.16630570981E+03  0.13818193537E+03  0.73278608374E+02  0.22830153486E+03  0.00000000000E+00 0. -1.
         -4    1    6    6    0  503  0.10274257177E+03  0.11844306148E+03 -0.19322795341E+02  0.15798153464E+03  0.00000000000E+00 0.  1.
<mgrwt>
<rscale>  0 0.59062481E+03</rscale>
<asrwt>0</asrwt>
<pdfrwt beam="1">  1        1 0.10378213E+00 0.59062481E+03</pdfrwt>
<pdfrwt beam="2">  1       -1 0.93549121E-01 0.59062481E+03</pdfrwt>
<totfact> 0.33303095E+01</totfact>
</mgrwt>
</event>
<event>
12    1  0.1335216E-007  0.5156973E+03  0.7818608E-02  0.1009761E+00
          1   -1    0    0  501    0  0.00000000000E+00  0.00000000000E+00  0.18869281052E+03  0.18869281052E+03  0.00000000000E+00 0. -1.
         -1   -1    0    0    0  501 -0.00000000000E+00 -0.00000000000E+00 -0.15861315539E+04  0.15861315539E+04  0.00000000000E+00 0.  1.
         23    2    1    2    0    0  0.54071604896E+00  0.34337731050E+03 -0.74076471829E+03  0.82136872903E+03  0.89475982429E+02 0.  0.
    5000000    2    1    2    0    0 -0.54071604896E+00 -0.34337731050E+03 -0.65667402507E+03  0.95345563537E+03  0.59995716820E+03 0.  0.
         23    2    4    4    0    0  0.15485014607E+03  0.10480265818E+03 -0.17325177146E+03  0.27006638319E+03  0.89204877204E+02 0.  0.
         23    2    4    4    0    0 -0.15539086212E+03 -0.44817996868E+03 -0.48342225361E+03  0.68338925218E+03  0.91171214464E+02 0.  0.
          3    1    3    3  502    0  0.53242734878E+01  0.78019073023E+01 -0.15978294556E+01  0.95797027457E+01  0.00000000000E+00 0. -1.
         -3    1    3    3    0  502 -0.47835574388E+01  0.33557540319E+03 -0.73916688883E+03  0.81178902628E+03  0.00000000000E+00 0.  1.
         13    1    5    5    0    0  0.63992535373E+02 -0.53150647877E+01 -0.48383351182E+02  0.80400517217E+02  0.00000000000E+00 0. -1.
        -13    1    5    5    0    0  0.90857610696E+02  0.11011772297E+03 -0.12486842027E+03  0.18966586597E+03  0.00000000000E+00 0.  1.
          1    1    6    6  503    0 -0.39460549504E+02 -0.21905154336E+03 -0.18277972900E+03  0.28800892859E+03  0.00000000000E+00 0. -1.
         -1    1    6    6    0  503 -0.11593031261E+03 -0.22912842532E+03 -0.30064252462E+03  0.39538032359E+03  0.00000000000E+00 0.  1.
<mgrwt>
<rscale>  0 0.51569732E+03</rscale>
<asrwt>0</asrwt>
<pdfrwt beam="1">  1        1 0.29029664E-01 0.51569732E+03</pdfrwt>
<pdfrwt beam="2">  1       -1 0.24402023E+00 0.51569732E+03</pdfrwt>
<totfact> 0.13053424E+01</totfact>
</mgrwt>
</event>
<event>
12    1  0.1335216E-007  0.5010386E+03  0.7818608E-02  0.1013508E+00
          2   -1    0    0  501    0  0.00000000000E+00  0.00000000000E+00  0.10150906038E+04  0.10150906038E+04  0.00000000000E+00 0. -1.
         -2   -1    0    0    0  501 -0.00000000000E+00 -0.00000000000E+00 -0.53145987683E+03  0.53145987683E+03  0.00000000000E+00 0.  1.
         23    2    1    2    0    0 -0.47618122719E+03  0.48459535329E+01 -0.19520143721E+03  0.52292862175E+03  0.92621260880E+02 0.  0.
    5000000    2    1    2    0    0  0.47618122719E+03 -0.48459535329E+01  0.67883216417E+03  0.10236218589E+04  0.60018043825E+03 0.  0.
         23    2    4    4    0    0  0.23694905140E+03 -0.54232138019E+02  0.71438687826E+03  0.76043720812E+03  0.93968919950E+02 0.  0.
         23    2    4    4    0    0  0.23923217579E+03  0.49386184486E+02 -0.35554714089E+02  0.26318465075E+03  0.91274276465E+02 0.  0.
          3    1    3    3  502    0 -0.11805099085E+03  0.41470455199E+02 -0.51682538219E+02  0.13537695466E+03  0.00000000000E+00 0. -1.
         -3    1    3    3    0  502 -0.35813023634E+03 -0.36624501666E+02 -0.14351889899E+03  0.38755166710E+03  0.00000000000E+00 0.  1.
         11    1    5    5    0    0  0.84988169428E+02 -0.63635965068E+02  0.24622317854E+03  0.26813873022E+03  0.00000000000E+00 0.  1.
        -11    1    5    5    0    0  0.15196088197E+03  0.94038270490E+01  0.46816369972E+03  0.49229847790E+03  0.00000000000E+00 0. -1.
          1    1    6    6  503    0  0.15963045805E+03  0.72959200041E+02 -0.40120120308E+02  0.18004041786E+03  0.00000000000E+00 0. -1.
         -1    1    6    6    0  503  0.79601717739E+02 -0.23573015555E+02  0.45654062192E+01  0.83144232893E+02  0.00000000000E+00 0.  1.
<mgrwt>
<rscale>  0 0.50103860E+03</rscale>
<asrwt>0</asrwt>
<pdfrwt beam="1">  1        2 0.15616778E+00 0.50103860E+03</pdfrwt>
<pdfrwt beam="2">  1       -2 0.81763058E-01 0.50103860E+03</pdfrwt>
<totfact> 0.33907664E+01</totfact>
</mgrwt>
</event>
<event>
12    1  0.1335216E-007  0.8089496E+03  0.7818608E-02  0.9547152E-01
         -2   -1    0    0    0  501 -0.00000000000E+00  0.00000000000E+00  0.16020132425E+04  0.16020132425E+04  0.00000000000E+00 0.  1.
          2   -1    0    0  501    0  0.00000000000E+00 -0.00000000000E+00 -0.98570053058E+03  0.98570053058E+03  0.00000000000E+00 0. -1.
         23    2    1    2    0    0  0.75349349638E+03 -0.15860502670E+02 -0.64811815683E+03  0.99815046533E+03  0.90792078930E+02 0.  0.
    5000000    2    1    2    0    0 -0.75349349638E+03  0.15860502670E+02  0.12644308687E+04  0.15895633077E+04  0.59993506551E+03 0.  0.
         23    2    4    4    0    0 -0.29854916433E+03  0.20027923480E+03  0.89285269420E+03  0.96694788873E+03  0.92514380342E+02 0.  0.
         23    2    4    4    0    0 -0.45494433205E+03 -0.18441873213E+03  0.37157817453E+03  0.62261541899E+03  0.92709256034E+02 0.  0.
          1    1    3    3  502    0  0.47877168200E+03  0.32431704291E+02 -0.42347813202E+03  0.64000614624E+03  0.00000000000E+00 0. -1.
         -1    1    3    3    0  502  0.27472181438E+03 -0.48292206961E+02 -0.22464002481E+03  0.35814431909E+03  0.00000000000E+00 0.  1.
         11    1    5    5    0    0 -0.19902793761E+03  0.91960792701E+02  0.60865871370E+03  0.64694229812E+03  0.00000000000E+00 0.  1.
        -11    1    5    5    0    0 -0.99521226715E+02  0.10831844210E+03  0.28419398051E+03  0.32000559061E+03  0.00000000000E+00 0. -1.
          1    1    6    6  503    0 -0.15814483150E+03 -0.86279121776E+02  0.87753981249E+02  0.20038621662E+03  0.00000000000E+00 0. -1.
         -1    1    6    6    0  503 -0.29679950055E+03 -0.98139610351E+02  0.28382419328E+03  0.42222920237E+03  0.00000000000E+00 0.  1.
<mgrwt>
<rscale>  0 0.80894965E+03</rscale>
<asrwt>0</asrwt>
<pdfrwt beam="1">  1        2 0.15164624E+00 0.80894965E+03</pdfrwt>
<pdfrwt beam="2">  1       -2 0.24646358E+00 0.80894965E+03</pdfrwt>
<totfact> 0.17789313E+00</totfact>
</mgrwt>
</event>
<event>
12    1  0.1335216E-007  0.2076049E+04  0.7818608E-02  0.8571868E-01
          2   -1    0    0  501    0  0.00000000000E+00  0.00000000000E+00  0.32740988701E+04  0.32740988701E+04  0.00000000000E+00 0. -1.
         -2   -1    0    0    0  501 -0.00000000000E+00 -0.00000000000E+00 -0.13554558801E+04  0.13554558801E+04  0.00000000000E+00 0.  1.
         23    2    1    2    0    0  0.84790548634E+03 -0.18548326984E+04  0.59998709089E+03  0.21279597942E+04  0.94235469434E+02 0.  0.
    5000000    2    1    2    0    0 -0.84790548634E+03  0.18548326984E+04  0.13186558991E+04  0.25015949560E+04  0.59981321331E+03 0.  0.
         23    2    4    4    0    0 -0.68961395284E+03  0.87746469861E+03  0.82868903925E+03  0.13932086926E+04  0.93772256345E+02 0.  0.
         23    2    4    4    0    0 -0.15829153350E+03  0.97736799979E+03  0.48996685980E+03  0.11083862634E+04  0.90267206612E+02 0.  0.
          1    1    3    3  502    0  0.46187590845E+03 -0.11153924345E+04  0.33867980017E+03  0.12538475365E+04  0.00000000000E+00 0. -1.
         -1    1    3    3    0  502  0.38602957789E+03 -0.73944026386E+03  0.26130729072E+03  0.87411225767E+03  0.00000000000E+00 0.  1.
         13    1    5    5    0    0 -0.50584495785E+03  0.67157579077E+03  0.66824451833E+03  0.10739850560E+04  0.00000000000E+00 0. -1.
        -13    1    5    5    0    0 -0.18376899499E+03  0.20588890784E+03  0.16044452092E+03  0.31922363663E+03  0.00000000000E+00 0.  1.
          3    1    6    6  503    0 -0.25175323387E+02  0.42682202163E+03  0.19884146081E+03  0.47153871696E+03  0.00000000000E+00 0. -1.
         -3    1    6    6    0  503 -0.13311621011E+03  0.55054597816E+03  0.29112539898E+03  0.63684754643E+03  0.00000000000E+00 0.  1.
<mgrwt>
<rscale>  0 0.20760491E+04</rscale>
<asrwt>0</asrwt>
<pdfrwt beam="1">  1        2 0.50370752E+00 0.20760491E+04</pdfrwt>
<pdfrwt beam="2">  1       -2 0.20853168E+00 0.20760491E+04</pdfrwt>
<totfact> 0.12018578E-01</totfact>
</mgrwt>
</event>
<event>
12    1  0.1335216E-007  0.7381977E+03  0.7818608E-02  0.9654050E-01
          1   -1    0    0  501    0  0.00000000000E+00  0.00000000000E+00  0.93033856056E+03  0.93033856056E+03  0.00000000000E+00 0. -1.
         -1   -1    0    0    0  501 -0.00000000000E+00 -0.00000000000E+00 -0.84829012872E+03  0.84829012872E+03  0.00000000000E+00 0.  1.
         23    2    1    2    0    0 -0.71612520495E+03 -0.32883974304E+02  0.35438509682E+03  0.80496839278E+03  0.92025277008E+02 0.  0.
    5000000    2    1    2    0    0  0.71612520495E+03  0.32883974304E+02 -0.27233666498E+03  0.97366029649E+03  0.59994203799E+03 0.  0.
         23    2    4    4    0    0  0.40386884397E+03  0.11827184585E+03 -0.42568470627E+03  0.60557794255E+03  0.91754578593E+02 0.  0.
         23    2    4    4    0    0  0.31225636097E+03 -0.85387871549E+02  0.15334804129E+03  0.36808235395E+03  0.84698724564E+02 0.  0.
          1    1    3    3  502    0 -0.66733499383E+03 -0.76270639287E+01  0.33473438118E+03  0.74661989796E+03  0.00000000000E+00 0. -1.
         -1    1    3    3    0  502 -0.48790211120E+02 -0.25256910375E+02  0.19650715640E+02  0.58348494822E+02  0.00000000000E+00 0.  1.
         13    1    5    5    0    0  0.13002208919E+03  0.33969729450E+02 -0.19945827435E+03  0.24050631885E+03  0.00000000000E+00 0.  1.
        -13    1    5    5    0    0  0.27384675478E+03  0.84302116403E+02 -0.22622643192E+03  0.36507162370E+03  0.00000000000E+00 0. -1.
          4    1    6    6  503    0  0.31711442694E+03 -0.83292227899E+02  0.14570896507E+03  0.35878999081E+03  0.00000000000E+00 0. -1.
         -4    1    6    6    0  503 -0.48580659646E+01 -0.20956436498E+01  0.76390762210E+01  0.92923631404E+01  0.00000000000E+00 0.  1.
<mgrwt>
<rscale>  0 0.73819766E+03</rscale>
<asrwt>0</asrwt>
<pdfrwt beam="1">  1        1 0.14312901E+00 0.73819766E+03</pdfrwt>
<pdfrwt beam="2">  1       -1 0.13050617E+00 0.73819766E+03</pdfrwt>
<totfact> 0.89287477E+00</totfact>
</mgrwt>
</event>
<event>
12    1  0.1335216E-007  0.4317704E+03  0.7818608E-02  0.1033302E+00
          2   -1    0    0  501    0  0.00000000000E+00  0.00000000000E+00  0.26721555269E+03  0.26721555269E+03  0.00000000000E+00 0. -1.
         -2   -1    0    0    0  501 -0.00000000000E+00 -0.00000000000E+00 -0.10127935785E+04  0.10127935785E+04  0.00000000000E+00 0.  1.
         23    2    1    2    0    0 -0.26451104490E+03 -0.21183452012E+03 -0.26652402823E+03  0.44074990280E+03  0.91572170463E+02 0.  0.
    5000000    2    1    2    0    0  0.26451104490E+03  0.21183452012E+03 -0.47905399760E+03  0.83925922842E+03  0.60001946892E+03 0.  0.
         23    2    4    4    0    0  0.36598353083E+03  0.12965575395E+03 -0.53773310831E+03  0.66949756147E+03  0.91189526073E+02 0.  0.
         23    2    4    4    0    0 -0.10147248593E+03  0.82178766165E+02  0.58679110711E+02  0.16976166695E+03  0.91245660295E+02 0.  0.
          3    1    3    3  502    0 -0.21358710827E+03 -0.15222344340E+03 -0.15575573347E+03  0.30504307572E+03  0.00000000000E+00 0. -1.
         -3    1    3    3    0  502 -0.50923936637E+02 -0.59611076714E+02 -0.11076829477E+03  0.13570682708E+03  0.00000000000E+00 0.  1.
         13    1    5    5    0    0  0.21671676377E+03  0.80588435768E+02 -0.24253733434E+03  0.33508955553E+03  0.00000000000E+00 0. -1.
        -13    1    5    5    0    0  0.14926676706E+03  0.49067318186E+02 -0.29519577398E+03  0.33440800594E+03  0.00000000000E+00 0.  1.
          3    1    6    6  503    0 -0.62676496544E+02  0.69765414664E+02 -0.52798361183E+01  0.93933130320E+02  0.00000000000E+00 0. -1.
         -3    1    6    6    0  503 -0.38795989383E+02  0.12413351501E+02  0.63958946829E+02  0.75828536629E+02  0.00000000000E+00 0.  1.
<mgrwt>
<rscale>  0 0.43177036E+03</rscale>
<asrwt>0</asrwt>
<pdfrwt beam="1">  1        2 0.41110085E-01 0.43177036E+03</pdfrwt>
<pdfrwt beam="2">  1       -2 0.15581440E+00 0.43177036E+03</pdfrwt>
<totfact> 0.35152011E+01</totfact>
</mgrwt>
</event>
<event>
12    1  0.1335216E-007  0.4309010E+03  0.7818608E-02  0.1033576E+00
         -2   -1    0    0    0  501 -0.00000000000E+00  0.00000000000E+00  0.82092807081E+03  0.82092807081E+03  0.00000000000E+00 0.  1.
          2   -1    0    0  501    0  0.00000000000E+00 -0.00000000000E+00 -0.98734701216E+03  0.98734701216E+03  0.00000000000E+00 0. -1.
         23    2    1    2    0    0 -0.29567059097E+03  0.22366428877E+03 -0.78202749385E+03  0.87209363898E+03  0.10739414123E+03 0.  0.
    5000000    2    1    2    0    0  0.29567059097E+03 -0.22366428877E+03  0.61560855249E+03  0.93618144399E+03  0.60001249465E+03 0.  0.
         23    2    4    4    0    0  0.25906754379E+03 -0.27253312247E+03  0.69749159162E+03  0.79727423690E+03  0.88098770439E+02 0.  0.
         23    2    4    4    0    0  0.36603047183E+02  0.48868833692E+02 -0.81883039133E+02  0.13890720709E+03  0.94140501990E+02 0.  0.
          2    1    3    3  502    0 -0.18651821265E+03  0.19336974939E+03 -0.60435393122E+03  0.66138081149E+03  0.00000000000E+00 0. -1.
         -2    1    3    3    0  502 -0.10915237832E+03  0.30294539386E+02 -0.17767356263E+03  0.21071282749E+03  0.00000000000E+00 0.  1.
         13    1    5    5    0    0  0.20195464667E+03 -0.23890957754E+03  0.62584199658E+03  0.69967254501E+03  0.00000000000E+00 0. -1.
        -13    1    5    5    0    0  0.57112897115E+02 -0.33623544927E+02  0.71649595039E+02  0.97601691889E+02  0.00000000000E+00 0.  1.
          3    1    6    6  503    0  0.42485146009E+01  0.64625101233E+02 -0.20820388716E+02  0.68028980383E+02  0.00000000000E+00 0. -1.
         -3    1    6    6    0  503  0.32354532582E+02 -0.15756267541E+02 -0.61062650417E+02  0.70878226708E+02  0.00000000000E+00 0.  1.
<mgrwt>
<rscale>  0 0.43090099E+03</rscale>
<asrwt>0</asrwt>
<pdfrwt beam="1">  1        2 0.15189954E+00 0.43090099E+03</pdfrwt>
<pdfrwt beam="2">  1       -2 0.12629663E+00 0.43090099E+03</pdfrwt>
<totfact> 0.12793886E+01</totfact>
</mgrwt>
</event>
<event>
12    1  0.1335216E-007  0.8642418E+03  0.7818608E-02  0.9471419E-01
         -1   -1    0    0    0  501 -0.00000000000E+00  0.00000000000E+00  0.50843133669E+03  0.50843133669E+03  0.00000000000E+00 0.  1.
          1   -1    0    0  501    0  0.00000000000E+00 -0.00000000000E+00 -0.16054031318E+04  0.16054031318E+04  0.00000000000E+00 0. -1.
         23    2    1    2    0    0 -0.59589892591E+03  0.53527658446E+03 -0.48814203802E+03  0.94240822494E+03  0.90741728939E+02 0.  0.
    5000000    2    1    2    0    0  0.59589892591E+03 -0.53527658446E+03 -0.60882975706E+03  0.11714262435E+04  0.59995768113E+03 0.  0.
         23    2    4    4    0    0  0.14162973543E+03  0.61618052013E+02  0.31464692325E+02  0.18111737375E+03  0.89205997117E+02 0.  0.
         23    2    4    4    0    0  0.45426919049E+03 -0.59689463648E+03 -0.64029444938E+03  0.99030886977E+03  0.89949825712E+02 0.  0.
          1    1    3    3  502    0 -0.26726411654E+03  0.19996526224E+03 -0.24206567722E+03  0.41232512194E+03  0.00000000000E+00 0. -1.
         -1    1    3    3    0  502 -0.32863480937E+03  0.33531132222E+03 -0.24607636080E+03  0.53008310300E+03  0.00000000000E+00 0.  1.
         13    1    5    5    0    0  0.12931251064E+03  0.19320975943E+02  0.38962540932E+02  0.13642985420E+03  0.00000000000E+00 0.  1.
        -13    1    5    5    0    0  0.12317224783E+02  0.42297076070E+02 -0.74978486070E+01  0.44687519557E+02  0.00000000000E+00 0. -1.
          4    1    6    6  503    0  0.32519658760E+03 -0.44257142644E+03 -0.51753216555E+03  0.75462694788E+03  0.00000000000E+00 0. -1.
         -4    1    6    6    0  503  0.12907260288E+03 -0.15432321003E+03 -0.12276228383E+03  0.23568192188E+03  0.00000000000E+00 0.  1.
<mgrwt>
<rscale>  0 0.86424183E+03</rscale>
<asrwt>0</asrwt>
<pdfrwt beam="1">  1        1 0.24698509E+00 0.86424183E+03</pdfrwt>
<pdfrwt beam="2">  1       -1 0.78220206E-01 0.86424183E+03</pdfrwt>
<totfact> 0.92663082E+00</totfact>
</mgrwt>
</event>
<event>
12    1  0.1335216E-007  0.5502582E+03  0.7818608E-02  0.1001434E+00
          2   -1    0    0  501    0  0.00000000000E+00  0.00000000000E+00  0.14932165157E+04  0.14932165157E+04  0.00000000000E+00 0. -1.
         -2   -1    0    0    0  501 -0.00000000000E+00 -0.00000000000E+00 -0.33090527611E+03  0.33090527611E+03  0.00000000000E+00 0.  1.
         23    2    1    2    0    0 -0.40488011131E+03 -0.24450835070E+03  0.63941196491E+02  0.48588408391E+03  0.91008946193E+02 0.  0.
    5000000    2    1    2    0    0  0.40488011131E+03  0.24450835070E+03  0.10983700431E+04  0.13382377079E+04  0.60062565145E+03 0.  0.
         23    2    4    4    0    0  0.34542853223E+03 -0.18806983222E+02  0.23198368681E+03  0.42623961561E+03  0.90494228962E+02 0.  0.
         23    2    4    4    0    0  0.59451579083E+02  0.26331533392E+03  0.86638635631E+03  0.91199809231E+03  0.90806093617E+02 0.  0.
          1    1    3    3  502    0 -0.12720161326E+03 -0.83492481055E+02  0.63563704102E+02  0.16489872434E+03  0.00000000000E+00 0. -1.
         -1    1    3    3    0  502 -0.27767849805E+03 -0.16101586965E+03  0.37749238880E+00  0.32098535957E+03  0.00000000000E+00 0.  1.
         13    1    5    5    0    0  0.19619983959E+03 -0.50065400067E+02  0.10656914600E+03  0.22881849624E+03  0.00000000000E+00 0.  1.
        -13    1    5    5    0    0  0.14922869263E+03  0.31258416845E+02  0.12541454081E+03  0.19742111937E+03  0.00000000000E+00 0. -1.
          2    1    6    6  503    0  0.21059370284E+02  0.17310881876E+03  0.41612658524E+03  0.45118897942E+03  0.00000000000E+00 0. -1.
         -2    1    6    6    0  503  0.38392208800E+02  0.90206515168E+02  0.45025977107E+03  0.46080911288E+03  0.00000000000E+00 0.  1.
<mgrwt>
<rscale>  0 0.55025818E+03</rscale>
<asrwt>0</asrwt>
<pdfrwt beam="1">  1        2 0.22972561E+00 0.55025818E+03</pdfrwt>
<pdfrwt beam="2">  1       -2 0.50908505E-01 0.55025818E+03</pdfrwt>
<totfact> 0.48911446E+01</totfact>
</mgrwt>
</event>
<event>
12    1  0.1335216E-007  0.6886938E+03  0.7818608E-02  0.9736765E-01
         -2   -1    0    0    0  501 -0.00000000000E+00  0.00000000000E+00  0.11801271664E+04  0.11801271664E+04  0.00000000000E+00 0.  1.
          2   -1    0    0  501    0  0.00000000000E+00 -0.00000000000E+00 -0.61338674259E+03  0.61338674259E+03  0.00000000000E+00 0. -1.
         23    2    1    2    0    0 -0.66642842411E+03 -0.11066651791E+03  0.57197271608E+03  0.89002651372E+03  0.92846564463E+02 0.  0.
    5000000    2    1    2    0    0  0.66642842411E+03  0.11066651791E+03 -0.52322922534E+01  0.90348739530E+03  0.59990680437E+03 0.  0.
         23    2    4    4    0    0  0.35286618935E+03  0.98786018461E+02 -0.28419356348E+03  0.47247354828E+03  0.90509929113E+02 0.  0.
         23    2    4    4    0    0  0.31356223476E+03  0.11880499445E+02  0.27896127123E+03  0.43101384701E+03  0.97422400606E+02 0.  0.
          4    1    3    3  502    0 -0.23120786318E+03 -0.38525775009E+02  0.14233959053E+03  0.27422959425E+03  0.00000000000E+00 0. -1.
         -4    1    3    3    0  502 -0.43522056094E+03 -0.72140742897E+02  0.42963312555E+03  0.61579691946E+03  0.00000000000E+00 0.  1.
         13    1    5    5    0    0  0.34247506112E+03  0.74950030112E+02 -0.27215904029E+03  0.44382115510E+03  0.00000000000E+00 0. -1.
        -13    1    5    5    0    0  0.10391128233E+02  0.23835988348E+02 -0.12034523195E+02  0.28652393182E+02  0.00000000000E+00 0.  1.
          3    1    6    6  503    0  0.10643828225E+03  0.44880696722E+02  0.70640574181E+02  0.13540116539E+03  0.00000000000E+00 0. -1.
         -3    1    6    6    0  503  0.20712395250E+03 -0.33000197278E+02  0.20832069705E+03  0.29561268163E+03  0.00000000000E+00 0.  1.
<mgrwt>
<rscale>  0 0.68869375E+03</rscale>
<asrwt>0</asrwt>
<pdfrwt beam="1">  1        2 0.94367191E-01 0.68869375E+03</pdfrwt>
<pdfrwt beam="2">  1       -2 0.18155803E+00 0.68869375E+03</pdfrwt>
<totfact> 0.87542791E+00</totfact>
</mgrwt>
</event>
<event>
12    1  0.1335216E-007  0.5555654E+03  0.7818608E-02  0.1000214E+00
          1   -1    0    0  501    0  0.00000000000E+00  0.00000000000E+00  0.12644034666E+04  0.12644034666E+04  0.00000000000E+00 0. -1.
         -1   -1    0    0    0  501 -0.00000000000E+00 -0.00000000000E+00 -0.25976606653E+03  0.25976606653E+03  0.00000000000E+00 0.  1.
         23    2    1    2    0    0  0.61359852552E+02 -0.40376839082E+03  0.40960478839E+03  0.58561871539E+03  0.91538255430E+02 0.  0.
    5000000    2    1    2    0    0 -0.61359852552E+02  0.40376839082E+03  0.59503261168E+03  0.93855081774E+03  0.60001656942E+03 0.  0.
         23    2    4    4    0    0  0.22466567076E+03  0.41548379368E+02  0.13099027452E+03  0.27790709059E+03  0.88729744349E+02 0.  0.
         23    2    4    4    0    0 -0.28602552332E+03  0.36222001145E+03  0.46404233715E+03  0.66064372715E+03  0.90005037989E+02 0.  0.
          1    1    3    3  502    0 -0.96725115414E+01 -0.13860323016E+03  0.96228037760E+02  0.16900960962E+03  0.00000000000E+00 0. -1.
         -1    1    3    3    0  502  0.71032364094E+02 -0.26516516066E+03  0.31337675063E+03  0.41660910577E+03  0.00000000000E+00 0.  1.
         11    1    5    5    0    0  0.21787416149E+03  0.39879645491E+02  0.14325886084E+03  0.26378521107E+03  0.00000000000E+00 0. -1.
        -11    1    5    5    0    0  0.67915092705E+01  0.16687338774E+01 -0.12268586316E+02  0.14121879518E+02  0.00000000000E+00 0.  1.
          1    1    6    6  503    0 -0.72424012823E+02  0.15736305438E+03  0.19279170802E+03  0.25918528353E+03  0.00000000000E+00 0. -1.
         -1    1    6    6    0  503 -0.21360151049E+03  0.20485695707E+03  0.27125062913E+03  0.40145844361E+03  0.00000000000E+00 0.  1.
<mgrwt>
<rscale>  0 0.55556539E+03</rscale>
<asrwt>0</asrwt>
<pdfrwt beam="1">  1        1 0.19452361E+00 0.55556539E+03</pdfrwt>
<pdfrwt beam="2">  1       -1 0.39964011E-01 0.55556539E+03</pdfrwt>
<totfact> 0.61338212E+01</totfact>
</mgrwt>
</event>
<event>
12    1  0.1335216E-007  0.4093209E+03  0.7818608E-02  0.1040599E+00
          2   -1    0    0  501    0  0.00000000000E+00  0.00000000000E+00  0.31620260899E+04  0.31620260899E+04  0.00000000000E+00 0. -1.
         -2   -1    0    0    0  501 -0.00000000000E+00 -0.00000000000E+00 -0.10611580911E+03  0.10611580911E+03  0.00000000000E+00 0.  1.
         23    2    1    2    0    0  0.20363724058E+02  0.27767458754E+03  0.20051926271E+04  0.20265723297E+04  0.93166935629E+02 0.  0.
    5000000    2    1    2    0    0 -0.20363724058E+02 -0.27767458754E+03  0.10507176537E+04  0.12415695693E+04  0.59997462434E+03 0.  0.
         23    2    4    4    0    0  0.16111297436E+03  0.28690028917E+02  0.72824411517E+03  0.75208726992E+03  0.92278177403E+02 0.  0.
         23    2    4    4    0    0 -0.18147669842E+03 -0.30636461646E+03  0.32247353852E+03  0.48948229940E+03  0.93865159099E+02 0.  0.
          1    1    3    3  502    0  0.25942484674E+02  0.13238297243E+03  0.12696506578E+04  0.12767971870E+04  0.00000000000E+00 0. -1.
         -1    1    3    3    0  502 -0.55787606166E+01  0.14529161511E+03  0.73554196926E+03  0.74977514265E+03  0.00000000000E+00 0.  1.
         11    1    5    5    0    0  0.55393188152E+02  0.32658925673E+02  0.44702955598E+03  0.45163086103E+03  0.00000000000E+00 0. -1.
        -11    1    5    5    0    0  0.10571978621E+03 -0.39688967566E+01  0.28121455919E+03  0.30045640888E+03  0.00000000000E+00 0.  1.
          4    1    6    6  503    0 -0.17546816319E+03 -0.21877703097E+03  0.24536288419E+03  0.37263307758E+03  0.00000000000E+00 0. -1.
         -4    1    6    6    0  503 -0.60085352319E+01 -0.87587585490E+02  0.77110654333E+02  0.11684922182E+03  0.00000000000E+00 0.  1.
<mgrwt>
<rscale>  0 0.40932092E+03</rscale>
<asrwt>0</asrwt>
<pdfrwt beam="1">  1        2 0.48646548E+00 0.40932092E+03</pdfrwt>
<pdfrwt beam="2">  1       -2 0.16325512E-01 0.40932092E+03</pdfrwt>
<totfact> 0.47376931E+01</totfact>
</mgrwt>
</event>
<event>
12    1  0.1335216E-007  0.1105236E+04  0.7818608E-02  0.9200103E-01
          2   -1    0    0  501    0  0.00000000000E+00  0.00000000000E+00  0.14111596118E+04  0.14111596118E+04  0.00000000000E+00 0. -1.
         -2   -1    0    0    0  501 -0.00000000000E+00 -0.00000000000E+00 -0.96804632561E+03  0.96804632561E+03  0.00000000000E+00 0.  1.
         23    2    1    2    0    0 -0.10824879965E+04  0.32329915822E+02  0.33054545472E+03  0.11359452476E+04  0.91026489490E+02 0.  0.
    5000000    2    1    2    0    0  0.10824879965E+04 -0.32329915822E+02  0.11256783148E+03  0.12432606899E+04  0.60016676037E+03 0.  0.
         23    2    4    4    0    0  0.59501115974E+03 -0.14565932499E+03 -0.19518664351E+03  0.64901653365E+03  0.88711419639E+02 0.  0.
         23    2    4    4    0    0  0.48747683676E+03  0.11332940917E+03  0.30775447499E+03  0.59424415622E+03  0.89084672980E+02 0.  0.
          4    1    3    3  502    0 -0.52125433987E+03  0.28552657456E+02  0.20489323360E+03  0.56080529443E+03  0.00000000000E+00 0. -1.
         -4    1    3    3    0  502 -0.56123365662E+03  0.37772583653E+01  0.12565222111E+03  0.57513995312E+03  0.00000000000E+00 0.  1.
         13    1    5    5    0    0  0.29239549667E+03 -0.26346335971E+02 -0.86675501982E+02  0.30610765841E+03  0.00000000000E+00 0.  1.
        -13    1    5    5    0    0  0.30261566307E+03 -0.11931298902E+03 -0.10851114153E+03  0.34290887524E+03  0.00000000000E+00 0. -1.
          2    1    6    6  503    0  0.34967232251E+03  0.12174853100E+03  0.22176426480E+03  0.43159335847E+03  0.00000000000E+00 0.  1.
         -2    1    6    6    0  503  0.13780451425E+03 -0.84191218292E+01  0.85990210190E+02  0.16265079775E+03  0.00000000000E+00 0. -1.
<mgrwt>
<rscale>  0 0.11052361E+04</rscale>
<asrwt>0</asrwt>
<pdfrwt beam="1">  1        2 0.21710148E+00 0.11052361E+04</pdfrwt>
<pdfrwt beam="2">  1       -2 0.14893020E+00 0.11052361E+04</pdfrwt>
<totfact> 0.42723019E+00</totfact>
</mgrwt>
</event>
<event>
12    1  0.1335216E-007  0.7429471E+03  0.7818608E-02  0.9646481E-01
          2   -1    0    0  501    0  0.00000000000E+00  0.00000000000E+00  0.24628835876E+04  0.24628835876E+04  0.00000000000E+00 0. -1.
         -2   -1    0    0    0  501 -0.00000000000E+00 -0.00000000000E+00 -0.25923336328E+03  0.25923336328E+03  0.00000000000E+00 0.  1.
         23    2    1    2    0    0  0.19128241543E+03  0.59756586999E+03  0.50059500504E+03  0.81056354764E+03  0.11288921234E+03 0.  0.
    5000000    2    1    2    0    0 -0.19128241543E+03 -0.59756586999E+03  0.17030552193E+04  0.19115534032E+04  0.59997116770E+03 0.  0.
         23    2    4    4    0    0 -0.38760170174E+03 -0.47252264626E+03  0.11794825167E+04  0.13314570334E+04  0.89922711136E+02 0.  0.
         23    2    4    4    0    0  0.19631928631E+03 -0.12504322373E+03  0.52357270252E+03  0.58009636985E+03  0.90588925991E+02 0.  0.
          1    1    3    3  502    0  0.14461474604E+02  0.78892579975E+02  0.11622723939E+03  0.14121595023E+03  0.00000000000E+00 0. -1.
         -1    1    3    3    0  502  0.17682094082E+03  0.51867329001E+03  0.38436776565E+03  0.66934759741E+03  0.00000000000E+00 0.  1.
         13    1    5    5    0    0 -0.36536591546E+02 -0.67476795701E+02  0.21130105548E+03  0.22480252785E+03  0.00000000000E+00 0. -1.
        -13    1    5    5    0    0 -0.35106511020E+03 -0.40504585056E+03  0.96818146126E+03  0.11066545055E+04  0.00000000000E+00 0.  1.
          1    1    6    6  503    0  0.92047691812E+02 -0.14830117394E+02  0.14659019412E+03  0.17372793374E+03  0.00000000000E+00 0. -1.
         -1    1    6    6    0  503  0.10427159450E+03 -0.11021310633E+03  0.37698250839E+03  0.40636843611E+03  0.00000000000E+00 0.  1.
<mgrwt>
<rscale>  0 0.74294708E+03</rscale>
<asrwt>0</asrwt>
<pdfrwt beam="1">  1        2 0.37890515E+00 0.74294708E+03</pdfrwt>
<pdfrwt beam="2">  1       -2 0.39882057E-01 0.74294708E+03</pdfrwt>
<totfact> 0.22742443E+01</totfact>
</mgrwt>
</event>
<event>
12    1  0.1335216E-007  0.5023616E+03  0.7818608E-02  0.1013164E+00
         -2   -1    0    0    0  501 -0.00000000000E+00  0.00000000000E+00  0.41915141784E+03  0.41915141784E+03  0.00000000000E+00 0.  1.
          2   -1    0    0  501    0  0.00000000000E+00 -0.00000000000E+00 -0.74364373535E+03  0.74364373535E+03  0.00000000000E+00 0. -1.
         23    2    1    2    0    0  0.29686211047E+03 -0.25111417408E+03 -0.78810870872E+02  0.40659807096E+03  0.89024698193E+02 0.  0.
    5000000    2    1    2    0    0 -0.29686211047E+03  0.25111417408E+03 -0.24568144663E+03  0.75619708223E+03  0.60024096236E+03 0.  0.
         23    2    4    4    0    0 -0.40594451230E+03  0.20375516033E+03 -0.34350758354E+03  0.57708251008E+03  0.93379071871E+02 0.  0.
         23    2    4    4    0    0  0.10908240183E+03  0.47359013748E+02  0.97826136905E+02  0.17911457215E+03  0.91488962850E+02 0.  0.
          3    1    3    3  502    0  0.43067315645E+02 -0.74122770485E+02 -0.40528239154E+02  0.94823609666E+02  0.00000000000E+00 0. -1.
         -3    1    3    3    0  502  0.25379479483E+03 -0.17699140359E+03 -0.38282631717E+02  0.31177446130E+03  0.00000000000E+00 0.  1.
         13    1    5    5    0    0 -0.73367720699E+02  0.31233466807E+01 -0.74549316963E+02  0.10464310008E+03  0.00000000000E+00 0. -1.
        -13    1    5    5    0    0 -0.33257679160E+03  0.20063181365E+03 -0.26895826658E+03  0.47243940999E+03  0.00000000000E+00 0.  1.
          3    1    6    6  503    0 -0.13865586974E+02 -0.40976249775E+01  0.12320839939E+01  0.14510791280E+02  0.00000000000E+00 0. -1.
         -3    1    6    6    0  503  0.12294798880E+03  0.51456638726E+02  0.96594052911E+02  0.16460378087E+03  0.00000000000E+00 0.  1.
<mgrwt>
<rscale>  0 0.50236157E+03</rscale>
<asrwt>0</asrwt>
<pdfrwt beam="1">  1        2 0.11440673E+00 0.50236157E+03</pdfrwt>
<pdfrwt beam="2">  1       -2 0.64484835E-01 0.50236157E+03</pdfrwt>
<totfact> 0.86963377E+01</totfact>
</mgrwt>
</event>
<event>
12    1  0.1335216E-007  0.2962891E+03  0.7818608E-02  0.1087110E+00
         -2   -1    0    0    0  501 -0.00000000000E+00  0.00000000000E+00  0.62853855833E+03  0.62853855833E+03  0.00000000000E+00 0.  1.
          2   -1    0    0  501    0  0.00000000000E+00 -0.00000000000E+00 -0.20427281067E+03  0.20427281067E+03  0.00000000000E+00 0. -1.
         23    2    1    2    0    0  0.24278033255E+02  0.47155513349E+02  0.34707486885E+02  0.11554289243E+03  0.96604787709E+02 0.  0.
    5000000    2    1    2    0    0 -0.24278033255E+02 -0.47155513349E+02  0.38955826078E+03  0.71726847657E+03  0.59992113115E+03 0.  0.
         23    2    4    4    0    0  0.23292621287E+03  0.74264738398E+02  0.50351508844E+02  0.26538567607E+03  0.90135512475E+02 0.  0.
         23    2    4    4    0    0 -0.25720424612E+03 -0.12142025175E+03  0.33920675193E+03  0.45188280050E+03  0.90774132150E+02 0.  0.
          1    1    3    3  502    0  0.99530805718E+01  0.81539157909E+01 -0.33382987418E+02  0.35776724341E+02  0.00000000000E+00 0. -1.
         -1    1    3    3    0  502  0.14324952683E+02  0.39001597558E+02  0.68090474304E+02  0.79766168094E+02  0.00000000000E+00 0.  1.
         13    1    5    5    0    0  0.15047510254E+03  0.38104062955E+02 -0.12282519982E+02  0.15570978259E+03  0.00000000000E+00 0.  1.
        -13    1    5    5    0    0  0.82451110333E+02  0.36160675443E+02  0.62634028826E+02  0.10967589348E+03  0.00000000000E+00 0. -1.
          4    1    6    6  503    0 -0.11884111029E+03 -0.94764602920E+02  0.21951038131E+03  0.26699877708E+03  0.00000000000E+00 0. -1.
         -4    1    6    6    0  503 -0.13836313583E+03 -0.26655648827E+02  0.11969637062E+03  0.18488402341E+03  0.00000000000E+00 0.  1.
<mgrwt>
<rscale>  0 0.29628914E+03</rscale>
<asrwt>0</asrwt>
<pdfrwt beam="1">  1        2 0.31426587E-01 0.29628914E+03</pdfrwt>
<pdfrwt beam="2">  1       -2 0.96698239E-01 0.29628914E+03</pdfrwt>
<totfact> 0.15519519E+02</totfact>
</mgrwt>
</event>
<event>
12    1  0.1335216E-007  0.5423961E+03  0.7818608E-02  0.1003269E+00
          2   -1    0    0  501    0  0.00000000000E+00  0.00000000000E+00  0.16332063390E+04  0.16332063390E+04  0.00000000000E+00 0.  1.
         -2   -1    0    0    0  501 -0.00000000000E+00 -0.00000000000E+00 -0.33019920290E+03  0.33019920290E+03  0.00000000000E+00 0. -1.
         23    2    1    2    0    0 -0.34270254270E+03  0.27216935385E+03  0.11092065699E+04  0.11958810844E+04  0.90945935506E+02 0.  0.
    5000000    2    1    2    0    0  0.34270254270E+03 -0.27216935385E+03  0.19380056613E+03  0.76752445750E+03  0.60001161946E+03 0.  0.
         23    2    4    4    0    0  0.45283207174E+03 -0.17666414292E+03  0.28616002938E+03  0.57152130273E+03  0.92097407522E+02 0.  0.
         23    2    4    4    0    0 -0.11012952903E+03 -0.95505210936E+02 -0.92359463252E+02  0.19600315477E+03  0.92936579175E+02 0.  0.
          1    1    3    3  502    0 -0.10234523263E+03  0.12095829156E+03  0.48229810018E+03  0.50765826337E+03  0.00000000000E+00 0. -1.
         -1    1    3    3    0  502 -0.24035731008E+03  0.15121106230E+03  0.62690846975E+03  0.68822282098E+03  0.00000000000E+00 0.  1.
         11    1    5    5    0    0  0.17270873485E+03 -0.10089241945E+03  0.15509953512E+03  0.25310759212E+03  0.00000000000E+00 0.  1.
        -11    1    5    5    0    0  0.28012333689E+03 -0.75771723465E+02  0.13106049426E+03  0.31841371061E+03  0.00000000000E+00 0. -1.
          2    1    6    6  503    0 -0.46304812958E+02 -0.13456638110E+02  0.10949860833E+02  0.49448116896E+02  0.00000000000E+00 0. -1.
         -2    1    6    6    0  503 -0.63824716074E+02 -0.82048572825E+02 -0.10330932409E+03  0.14655503788E+03  0.00000000000E+00 0.  1.
<mgrwt>
<rscale>  0 0.54239608E+03</rscale>
<asrwt>0</asrwt>
<pdfrwt beam="1">  1        2 0.25126251E+00 0.54239608E+03</pdfrwt>
<pdfrwt beam="2">  1       -2 0.50799878E-01 0.54239608E+03</pdfrwt>
<totfact> 0.41230824E+01</totfact>
</mgrwt>
</event>
<event>
12    1  0.1335216E-007  0.6562445E+03  0.7818608E-02  0.9795132E-01
         -2   -1    0    0    0  501 -0.00000000000E+00  0.00000000000E+00  0.13015750916E+04  0.13015750916E+04  0.00000000000E+00 0.  1.
          2   -1    0    0  501    0  0.00000000000E+00 -0.00000000000E+00 -0.12741312555E+04  0.12741312555E+04  0.00000000000E+00 0. -1.
         23    2    1    2    0    0 -0.32755551053E+03 -0.43977438571E+03  0.10984743568E+04  0.12311287285E+04  0.91312162099E+02 0.  0.
    5000000    2    1    2    0    0  0.32755551053E+03  0.43977438571E+03 -0.10710305207E+04  0.13445776185E+04  0.60007372313E+03 0.  0.
         23    2    4    4    0    0 -0.44468035108E+02 -0.93571871845E+02 -0.30509965211E+03  0.33571753274E+03  0.94272810111E+02 0.  0.
         23    2    4    4    0    0  0.37202354564E+03  0.53334625755E+03 -0.76593086857E+03  0.10088600858E+04  0.91043002443E+02 0.  0.
          2    1    3    3  502    0 -0.10057662518E+03 -0.21013030808E+03  0.45149565176E+03  0.50805386276E+03  0.00000000000E+00 0. -1.
         -2    1    3    3    0  502 -0.22697888535E+03 -0.22964407763E+03  0.64697870499E+03  0.72307486576E+03  0.00000000000E+00 0.  1.
         11    1    5    5    0    0  0.20380958388E+01 -0.12068811975E+02 -0.17435234554E+03  0.17478143623E+03  0.00000000000E+00 0. -1.
        -11    1    5    5    0    0 -0.46506130947E+02 -0.81503059870E+02 -0.13074730657E+03  0.16093609651E+03  0.00000000000E+00 0.  1.
          1    1    6    6  503    0  0.13492666542E+03  0.17738303107E+03 -0.32953521524E+03  0.39782333119E+03  0.00000000000E+00 0. -1.
         -1    1    6    6    0  503  0.23709688022E+03  0.35596322648E+03 -0.43639565333E+03  0.61103675459E+03  0.00000000000E+00 0.  1.
<mgrwt>
<rscale>  0 0.65624452E+03</rscale>
<asrwt>0</asrwt>
<pdfrwt beam="1">  1        2 0.19602019E+00 0.65624452E+03</pdfrwt>
<pdfrwt beam="2">  1       -2 0.20024232E+00 0.65624452E+03</pdfrwt>
<totfact> 0.23717436E+00</totfact>
</mgrwt>
</event>
<event>
12    1  0.1335216E-007  0.6647191E+03  0.7818608E-02  0.9779545E-01
          1   -1    0    0  501    0  0.00000000000E+00  0.00000000000E+00  0.67301954790E+03  0.67301954790E+03  0.00000000000E+00 0. -1.
         -1   -1    0    0    0  501 -0.00000000000E+00 -0.00000000000E+00 -0.70819145234E+03  0.70819145234E+03  0.00000000000E+00 0.  1.
         23    2    1    2    0    0  0.49479572152E+03  0.20684735663E+03  0.13121451050E+03  0.55950418901E+03  0.90659002757E+02 0.  0.
    5000000    2    1    2    0    0 -0.49479572152E+03 -0.20684735663E+03 -0.16638641494E+03  0.82170681124E+03  0.59992416986E+03 0.  0.
         23    2    4    4    0    0 -0.60739348231E+03 -0.10992370100E+03 -0.17585487444E+03  0.64699196423E+03  0.81630891888E+02 0.  0.
         23    2    4    4    0    0  0.11259776080E+03 -0.96923655632E+02  0.94684594965E+01  0.17471484701E+03  0.91450397934E+02 0.  0.
          3    1    3    3  502    0  0.37499614030E+03  0.15599593097E+03  0.58260832687E+02  0.41030617878E+03  0.00000000000E+00 0. -1.
         -3    1    3    3    0  502  0.11979958121E+03  0.50851425660E+02  0.72953677809E+02  0.14919801023E+03  0.00000000000E+00 0.  1.
         11    1    5    5    0    0 -0.21248752989E+03 -0.61841943171E+02 -0.30254114294E+02  0.22336223433E+03  0.00000000000E+00 0.  1.
        -11    1    5    5    0    0 -0.39490595243E+03 -0.48081757825E+02 -0.14560076014E+03  0.42362972990E+03  0.00000000000E+00 0. -1.
          2    1    6    6  503    0  0.12583171094E+03 -0.69937258459E+02  0.31199988782E+01  0.14399504849E+03  0.00000000000E+00 0. -1.
         -2    1    6    6    0  503 -0.13233950137E+02 -0.26986397173E+02  0.63484606183E+01  0.30719798516E+02  0.00000000000E+00 0.  1.
<mgrwt>
<rscale>  0 0.66471906E+03</rscale>
<asrwt>0</asrwt>
<pdfrwt beam="1">  1        1 0.10354147E+00 0.66471906E+03</pdfrwt>
<pdfrwt beam="2">  1       -1 0.10895253E+00 0.66471906E+03</pdfrwt>
<totfact> 0.23387506E+01</totfact>
</mgrwt>
</event>
<event>
12    1  0.1335216E-007  0.5750458E+03  0.7818608E-02  0.9958575E-01
          3   -1    0    0  501    0  0.00000000000E+00  0.00000000000E+00  0.10053849139E+04  0.10053849139E+04  0.00000000000E+00 0. -1.
         -3   -1    0    0    0  501 -0.00000000000E+00 -0.00000000000E+00 -0.50341596684E+03  0.50341596684E+03  0.00000000000E+00 0.  1.
         23    2    1    2    0    0 -0.49063859550E+03  0.69193809419E+02  0.52878568571E+03  0.73018843970E+03  0.89704188369E+02 0.  0.
    5000000    2    1    2    0    0  0.49063859550E+03 -0.69193809419E+02 -0.26816738632E+02  0.77861244105E+03  0.60000348435E+03 0.  0.
         23    2    4    4    0    0 -0.47952424349E+02  0.35007759338E+02 -0.17243881233E+03  0.20375439961E+03  0.90861065079E+02 0.  0.
         23    2    4    4    0    0  0.53859101985E+03 -0.10420156876E+03  0.14562207370E+03  0.57485804144E+03  0.91201567248E+02 0.  0.
          3    1    3    3  502    0 -0.45220701023E+03  0.81603427917E+02  0.45853613034E+03  0.64915767143E+03  0.00000000000E+00 0. -1.
         -3    1    3    3    0  502 -0.38431585271E+02 -0.12409618497E+02  0.70249555370E+02  0.81030768276E+02  0.00000000000E+00 0.  1.
         13    1    5    5    0    0  0.11737775541E+02 -0.17147978709E+02 -0.76674056585E+02  0.79440163026E+02  0.00000000000E+00 0. -1.
        -13    1    5    5    0    0 -0.59690199890E+02  0.52155738046E+02 -0.95764755745E+02  0.12431423658E+03  0.00000000000E+00 0.  1.
          3    1    6    6  503    0  0.40700675108E+03 -0.96780421974E+02  0.73962634920E+02  0.42484281430E+03  0.00000000000E+00 0. -1.
         -3    1    6    6    0  503  0.13158426877E+03 -0.74211467836E+01  0.71659438778E+02  0.15001522714E+03  0.00000000000E+00 0.  1.
<mgrwt>
<rscale>  0 0.57504578E+03</rscale>
<asrwt>0</asrwt>
<pdfrwt beam="1">  1        3 0.15467460E+00 0.57504578E+03</pdfrwt>
<pdfrwt beam="2">  1       -3 0.77448611E-01 0.57504578E+03</pdfrwt>
<totfact> 0.12234248E+00</totfact>
</mgrwt>
</event>
<event>
12    1  0.1335216E-007  0.1314269E+04  0.7818608E-02  0.9018326E-01
         -2   -1    0    0    0  501 -0.00000000000E+00  0.00000000000E+00  0.86980462648E+03  0.86980462648E+03  0.00000000000E+00 0.  1.
          2   -1    0    0  501    0  0.00000000000E+00 -0.00000000000E+00 -0.24419287683E+04  0.24419287683E+04  0.00000000000E+00 0. -1.
         23    2    1    2    0    0  0.12167597706E+04  0.44799364122E+03 -0.17146331138E+03  0.13110102361E+04  0.90252590230E+02 0.  0.
    5000000    2    1    2    0    0 -0.12167597706E+04 -0.44799364122E+03 -0.14006608305E+04  0.20007231587E+04  0.59986644681E+03 0.  0.
         23    2    4    4    0    0 -0.55213975884E+03 -0.36217529418E+03 -0.10369577907E+04  0.12328528049E+04  0.92818758790E+02 0.  0.
         23    2    4    4    0    0 -0.66462001175E+03 -0.85818347037E+02 -0.36370303980E+03  0.76787035382E+03  0.90886909921E+02 0.  0.
          4    1    3    3  502    0  0.74084978636E+03  0.25607595794E+03 -0.61930366802E+02  0.78630062477E+03  0.00000000000E+00 0. -1.
         -4    1    3    3    0  502  0.47590998423E+03  0.19191768328E+03 -0.10953294458E+03  0.52470961130E+03  0.00000000000E+00 0.  1.
         11    1    5    5    0    0 -0.43292516512E+03 -0.26518007150E+03 -0.85808720540E+03  0.99702473439E+03  0.00000000000E+00 0. -1.
        -11    1    5    5    0    0 -0.11921459372E+03 -0.96995222685E+02 -0.17887058527E+03  0.23582807054E+03  0.00000000000E+00 0.  1.
          3    1    6    6  503    0 -0.53186297198E+03 -0.70657490992E+02 -0.33059680960E+03  0.63021024470E+03  0.00000000000E+00 0. -1.
         -3    1    6    6    0  503 -0.13275703977E+03 -0.15160856044E+02 -0.33106230200E+02  0.13766010912E+03  0.00000000000E+00 0.  1.
<mgrwt>
<rscale>  0 0.13142689E+04</rscale>
<asrwt>0</asrwt>
<pdfrwt beam="1">  1        2 0.37568134E+00 0.13142689E+04</pdfrwt>
<pdfrwt beam="2">  1       -2 0.13381610E+00 0.13142689E+04</pdfrwt>
<totfact> 0.14652664E+00</totfact>
</mgrwt>
</event>
<event>
12    1  0.1335216E-007  0.1035803E+04  0.7818608E-02  0.9270125E-01
          2   -1    0    0  501    0  0.00000000000E+00  0.00000000000E+00  0.22516158112E+04  0.22516158112E+04  0.00000000000E+00 0. -1.
         -2   -1    0    0    0  501 -0.00000000000E+00 -0.00000000000E+00 -0.48129966413E+03  0.48129966413E+03  0.00000000000E+00 0.  1.
         23    2    1    2    0    0  0.86068574701E+03  0.40197662588E+03  0.72691268185E+03  0.11995221941E+04  0.89923769535E+02 0.  0.
    5000000    2    1    2    0    0 -0.86068574701E+03 -0.40197662588E+03  0.10434034652E+04  0.15333932812E+04  0.60019913426E+03 0.  0.
         23    2    4    4    0    0 -0.59027474565E+03 -0.53801836428E+03  0.70679976919E+03  0.10708606998E+04  0.96377844580E+02 0.  0.
         23    2    4    4    0    0 -0.27041100136E+03  0.13604173839E+03  0.33660369605E+03  0.46253258146E+03  0.94894027603E+02 0.  0.
          3    1    3    3  502    0  0.56565616481E+03  0.27071870994E+03  0.53187399773E+03  0.82228064927E+03  0.00000000000E+00 0. -1.
         -3    1    3    3    0  502  0.29502958220E+03  0.13125791595E+03  0.19503868412E+03  0.37724154486E+03  0.00000000000E+00 0.  1.
         11    1    5    5    0    0 -0.68263627743E+02 -0.10944524326E+03  0.11892511863E+03  0.17544619684E+03  0.00000000000E+00 0. -1.
        -11    1    5    5    0    0 -0.52201111791E+03 -0.42857312101E+03  0.58787465056E+03  0.89541450292E+03  0.00000000000E+00 0.  1.
          2    1    6    6  503    0 -0.17784863301E+03  0.37031409393E+02  0.19575850829E+03  0.26706339156E+03  0.00000000000E+00 0. -1.
         -2    1    6    6    0  503 -0.92562368348E+02  0.99010329001E+02  0.14084518777E+03  0.19546918990E+03  0.00000000000E+00 0.  1.
<mgrwt>
<rscale>  0 0.10358032E+04</rscale>
<asrwt>0</asrwt>
<pdfrwt beam="1">  1        2 0.34640243E+00 0.10358032E+04</pdfrwt>
<pdfrwt beam="2">  1       -2 0.74046104E-01 0.10358032E+04</pdfrwt>
<totfact> 0.79492811E+00</totfact>
</mgrwt>
</event>
<event>
12    1  0.1335216E-007  0.6892558E+03  0.7818608E-02  0.9735785E-01
         -2   -1    0    0    0  501 -0.00000000000E+00  0.00000000000E+00  0.18345937123E+04  0.18345937123E+04  0.00000000000E+00 0.  1.
          2   -1    0    0  501    0  0.00000000000E+00 -0.00000000000E+00 -0.12888219102E+04  0.12888219102E+04  0.00000000000E+00 0. -1.
         23    2    1    2    0    0 -0.11664169440E+02 -0.58617695565E+03  0.16404107193E+04  0.17442923585E+04  0.88707541999E+02 0.  0.
    5000000    2    1    2    0    0  0.11664169440E+02  0.58617695565E+03 -0.10946389171E+04  0.13791232639E+04  0.60000595159E+03 0.  0.
         23    2    4    4    0    0 -0.23858454845E+03  0.44037349484E+03 -0.84582824106E+03  0.98679680363E+03  0.86551236612E+02 0.  0.
         23    2    4    4    0    0  0.25024871789E+03  0.14580346080E+03 -0.24881067607E+03  0.39232646027E+03  0.90167782010E+02 0.  0.
          2    1    3    3  502    0 -0.25492354519E+02 -0.38473101585E+03  0.95950702991E+03  0.10340800526E+04  0.00000000000E+00 0. -1.
         -2    1    3    3    0  502  0.13828185079E+02 -0.20144593980E+03  0.68090368936E+03  0.71021230597E+03  0.00000000000E+00 0.  1.
         13    1    5    5    0    0 -0.13491318682E+03  0.22692548244E+03 -0.52620789133E+03  0.58872021153E+03  0.00000000000E+00 0.  1.
        -13    1    5    5    0    0 -0.10367136163E+03  0.21344801240E+03 -0.31962034973E+03  0.39807659210E+03  0.00000000000E+00 0. -1.
          4    1    6    6  503    0  0.13711988867E+03  0.84206520463E+02 -0.19476117051E+03  0.25263514303E+03  0.00000000000E+00 0.  1.
         -4    1    6    6    0  503  0.11312882922E+03  0.61596940339E+02 -0.54049505569E+02  0.13969131724E+03  0.00000000000E+00 0. -1.
<mgrwt>
<rscale>  0 0.68925583E+03</rscale>
<asrwt>0</asrwt>
<pdfrwt beam="1">  1        2 0.19828029E+00 0.68925583E+03</pdfrwt>
<pdfrwt beam="2">  1       -2 0.28224519E+00 0.68925583E+03</pdfrwt>
<totfact> 0.72583356E-01</totfact>
</mgrwt>
</event>
<event>
12    1  0.1335216E-007  0.8572892E+03  0.7818608E-02  0.9480606E-01
          1   -1    0    0  501    0  0.00000000000E+00  0.00000000000E+00  0.63368581643E+03  0.63368581643E+03  0.00000000000E+00 0. -1.
         -1   -1    0    0    0  501 -0.00000000000E+00 -0.00000000000E+00 -0.13623616765E+04  0.13623616765E+04  0.00000000000E+00 0.  1.
         23    2    1    2    0    0 -0.44686993288E+03  0.69821988007E+03 -0.29404083921E+03  0.88422489522E+03  0.90498134632E+02 0.  0.
    5000000    2    1    2    0    0  0.44686993288E+03 -0.69821988007E+03 -0.43463502086E+03  0.11118225977E+04  0.60003179046E+03 0.  0.
         23    2    4    4    0    0  0.45648090143E+03 -0.55959250036E+03 -0.95455128089E+02  0.73389087607E+03  0.89249967327E+02 0.  0.
         23    2    4    4    0    0 -0.96109685501E+01 -0.13862737971E+03 -0.33917989278E+03  0.37793172164E+03  0.92084012903E+02 0.  0.
          1    1    3    3  502    0 -0.34092686449E+03  0.45868239038E+03 -0.18771405689E+03  0.60154570012E+03  0.00000000000E+00 0. -1.
         -1    1    3    3    0  502 -0.10594306839E+03  0.23953748969E+03 -0.10632678232E+03  0.28267919510E+03  0.00000000000E+00 0.  1.
         11    1    5    5    0    0  0.25608266160E+03 -0.37901902065E+03 -0.47104282817E+02  0.45983971234E+03  0.00000000000E+00 0.  1.
        -11    1    5    5    0    0  0.20039823983E+03 -0.18057347971E+03 -0.48350845272E+02  0.27405116373E+03  0.00000000000E+00 0. -1.
          3    1    6    6  503    0 -0.36987946318E+02 -0.57626316194E+02 -0.22561872023E+03  0.23578105821E+03  0.00000000000E+00 0. -1.
         -3    1    6    6    0  503  0.27376977768E+02 -0.81001063520E+02 -0.11356117254E+03  0.14215066343E+03  0.00000000000E+00 0.  1.
<mgrwt>
<rscale>  0 0.85728920E+03</rscale>
<asrwt>0</asrwt>
<pdfrwt beam="1">  1        1 0.97490125E-01 0.85728920E+03</pdfrwt>
<pdfrwt beam="2">  1       -1 0.20959411E+00 0.85728920E+03</pdfrwt>
<totfact> 0.41822847E+00</totfact>
</mgrwt>
</event>
<event>
12    1  0.1335216E-007  0.9262430E+03  0.7818608E-02  0.9393358E-01
         -1   -1    0    0    0  501 -0.00000000000E+00  0.00000000000E+00  0.11936351083E+04  0.11936351083E+04  0.00000000000E+00 0.  1.
          1   -1    0    0  501    0  0.00000000000E+00 -0.00000000000E+00 -0.81467891763E+03  0.81467891763E+03  0.00000000000E+00 0. -1.
         23    2    1    2    0    0  0.38281979965E+03  0.80269332146E+03  0.24714752630E+03  0.92747389884E+03  0.90875552017E+02 0.  0.
    5000000    2    1    2    0    0 -0.38281979965E+03 -0.80269332146E+03  0.13180866442E+03  0.10808401271E+04  0.59997857385E+03 0.  0.
         23    2    4    4    0    0 -0.81132185958E+02 -0.30212433845E+02  0.20795542754E+03  0.24308964942E+03  0.91388703098E+02 0.  0.
         23    2    4    4    0    0 -0.30168761369E+03 -0.77248088761E+03 -0.76146763121E+02  0.83775047771E+03  0.91024147309E+02 0.  0.
          1    1    3    3  502    0  0.24087260914E+03  0.59479096733E+03  0.16368855096E+03  0.66226116478E+03  0.00000000000E+00 0. -1.
         -1    1    3    3    0  502  0.14194719051E+03  0.20790235412E+03  0.83458975340E+02  0.26521273406E+03  0.00000000000E+00 0.  1.
         13    1    5    5    0    0  0.92337409013E+01  0.20299394043E+02  0.39772792968E+02  0.45598272227E+02  0.00000000000E+00 0. -1.
        -13    1    5    5    0    0 -0.90365926860E+02 -0.50511827888E+02  0.16818263457E+03  0.19749137719E+03  0.00000000000E+00 0.  1.
          3    1    6    6  503    0 -0.10151953413E+03 -0.37035778954E+03 -0.56290985700E+02  0.38812341228E+03  0.00000000000E+00 0. -1.
         -3    1    6    6    0  503 -0.20016807957E+03 -0.40212309807E+03 -0.19855777421E+02  0.44962706544E+03  0.00000000000E+00 0.  1.
<mgrwt>
<rscale>  0 0.92624302E+03</rscale>
<asrwt>0</asrwt>
<pdfrwt beam="1">  1        1 0.12533522E+00 0.92624302E+03</pdfrwt>
<pdfrwt beam="2">  1       -1 0.18363617E+00 0.92624302E+03</pdfrwt>
<totfact> 0.42589158E+00</totfact>
</mgrwt>
</event>
<event>
12    1  0.1335216E-007  0.1082673E+04  0.7818608E-02  0.9222246E-01
          1   -1    0    0  501    0  0.00000000000E+00  0.00000000000E+00  0.23829969895E+04  0.23829969895E+04  0.00000000000E+00 0. -1.
         -1   -1    0    0    0  501 -0.00000000000E+00 -0.00000000000E+00 -0.57111570054E+03  0.57111570054E+03  0.00000000000E+00 0.  1.
         23    2    1    2    0    0  0.55805331291E-01  0.10771750379E+04  0.10350481917E+04  0.14967959577E+04  0.93633938635E+02 0.  0.
    5000000    2    1    2    0    0 -0.55805331291E-01 -0.10771750379E+04  0.77683309721E+03  0.14573167323E+04  0.59999694326E+03 0.  0.
         23    2    4    4    0    0 -0.60317087365E+01 -0.71272999940E+03  0.80689485913E+03  0.10803311245E+04  0.89529834988E+02 0.  0.
         23    2    4    4    0    0  0.59759034053E+01 -0.36444503850E+03 -0.30061761920E+02  0.37698560778E+03  0.91425059119E+02 0.  0.
          4    1    3    3  502    0 -0.38703706260E+02  0.76871174190E+03  0.76070971424E+03  0.10821714228E+04  0.00000000000E+00 0. -1.
         -4    1    3    3    0  502  0.38759511591E+02  0.30846329600E+03  0.27433847747E+03  0.41462453490E+03  0.00000000000E+00 0.  1.
         13    1    5    5    0    0 -0.46050325303E+02 -0.27914021441E+03  0.31492189262E+03  0.42333874169E+03  0.00000000000E+00 0. -1.
        -13    1    5    5    0    0  0.40018616566E+02 -0.43358978499E+03  0.49197296652E+03  0.65699238283E+03  0.00000000000E+00 0.  1.
          1    1    6    6  503    0 -0.15161027743E+02 -0.20918593106E+03  0.24287669456E+02  0.21113621528E+03  0.00000000000E+00 0. -1.
         -1    1    6    6    0  503  0.21136931148E+02 -0.15525910744E+03 -0.54349431376E+02  0.16584939250E+03  0.00000000000E+00 0.  1.
<mgrwt>
<rscale>  0 0.10826731E+04</rscale>
<asrwt>0</asrwt>
<pdfrwt beam="1">  1        1 0.36661492E+00 0.10826731E+04</pdfrwt>
<pdfrwt beam="2">  1       -1 0.87863955E-01 0.10826731E+04</pdfrwt>
<totfact> 0.20891630E+00</totfact>
</mgrwt>
</event>
<event>
12    1  0.1335216E-007  0.7897808E+03  0.7818608E-02  0.9574928E-01
         -2   -1    0    0    0  501 -0.00000000000E+00  0.00000000000E+00  0.42907909504E+03  0.42907909504E+03  0.00000000000E+00 0.  1.
          2   -1    0    0  501    0  0.00000000000E+00 -0.00000000000E+00 -0.23252726739E+04  0.23252726739E+04  0.00000000000E+00 0. -1.
         23    2    1    2    0    0 -0.54791909651E+03 -0.43824105814E+03 -0.73780356804E+02  0.71143901303E+03  0.91822474619E+02 0.  0.
    5000000    2    1    2    0    0  0.54791909651E+03  0.43824105814E+03 -0.18224132221E+04  0.20429127559E+04  0.60002667855E+03 0.  0.
         23    2    4    4    0    0 -0.80956297149E+02  0.13628697363E+02 -0.50986442950E+03  0.52425776141E+03  0.90248548399E+02 0.  0.
         23    2    4    4    0    0  0.62887539366E+03  0.42461236078E+03 -0.13125487926E+04  0.15186549945E+04  0.88026937950E+02 0.  0.
          2    1    3    3  502    0 -0.21787950260E+03 -0.22425607599E+03 -0.56402997096E+02  0.31771616791E+03  0.00000000000E+00 0.  1.
         -2    1    3    3    0  502 -0.33003959391E+03 -0.21398498215E+03 -0.17377359708E+02  0.39372284512E+03  0.00000000000E+00 0. -1.
         11    1    5    5    0    0 -0.68754640148E+02 -0.23209741402E+02 -0.42216029788E+03  0.42835173602E+03  0.00000000000E+00 0. -1.
        -11    1    5    5    0    0 -0.12201657001E+02  0.36838438765E+02 -0.87704131614E+02  0.95906025391E+02  0.00000000000E+00 0.  1.
          4    1    6    6  503    0  0.18591807823E+03  0.87204394512E+02 -0.40008682553E+03  0.44971058048E+03  0.00000000000E+00 0. -1.
         -4    1    6    6    0  503  0.44295731543E+03  0.33740796626E+03 -0.91246196705E+03  0.10689444140E+04  0.00000000000E+00 0.  1.
<mgrwt>
<rscale>  0 0.78978081E+03</rscale>
<asrwt>0</asrwt>
<pdfrwt beam="1">  1        2 0.35773425E+00 0.78978081E+03</pdfrwt>
<pdfrwt beam="2">  1       -2 0.66012169E-01 0.78978081E+03</pdfrwt>
<totfact> 0.96072171E+00</totfact>
</mgrwt>
</event>
<event>
12    1  0.1335216E-007  0.7384939E+03  0.7818608E-02  0.9653577E-01
         -2   -1    0    0    0  501 -0.00000000000E+00  0.00000000000E+00  0.56898276717E+03  0.56898276717E+03  0.00000000000E+00 0.  1.
          2   -1    0    0  501    0  0.00000000000E+00 -0.00000000000E+00 -0.19084619830E+04  0.19084619830E+04  0.00000000000E+00 0. -1.
         23    2    1    2    0    0 -0.46013432558E+03  0.41456444423E+03  0.24573939736E+03  0.67287847541E+03  0.93756681110E+02 0.  0.
    5000000    2    1    2    0    0  0.46013432558E+03 -0.41456444423E+03 -0.15852186131E+04  0.18045662747E+04  0.59996175911E+03 0.  0.
         23    2    4    4    0    0  0.58173910832E+03 -0.27629409332E+03 -0.11080993710E+04  0.12849842076E+04  0.92419595128E+02 0.  0.
         23    2    4    4    0    0 -0.12160478274E+03 -0.13827035091E+03 -0.47711924214E+03  0.51958206714E+03  0.91740613374E+02 0.  0.
          4    1    3    3  502    0 -0.23125944967E+03  0.15709513564E+03  0.13907122814E+03  0.31225089464E+03  0.00000000000E+00 0. -1.
         -4    1    3    3    0  502 -0.22887487591E+03  0.25746930859E+03  0.10666816922E+03  0.36062758077E+03  0.00000000000E+00 0.  1.
         11    1    5    5    0    0  0.18735130949E+03 -0.45783631998E+02 -0.36114719947E+03  0.40941904427E+03  0.00000000000E+00 0.  1.
        -11    1    5    5    0    0  0.39438779883E+03 -0.23051046133E+03 -0.74695217153E+03  0.87556516331E+03  0.00000000000E+00 0. -1.
          2    1    6    6  503    0  0.13464900872E+02 -0.17345111156E+02 -0.81433189350E+02  0.84341690547E+02  0.00000000000E+00 0.  1.
         -2    1    6    6    0  503 -0.13506968361E+03 -0.12092523975E+03 -0.39568605279E+03  0.43524037659E+03  0.00000000000E+00 0. -1.
<mgrwt>
<rscale>  0 0.73849387E+03</rscale>
<asrwt>0</asrwt>
<pdfrwt beam="1">  1        2 0.29360954E+00 0.73849387E+03</pdfrwt>
<pdfrwt beam="2">  1       -2 0.87535810E-01 0.73849387E+03</pdfrwt>
<totfact> 0.87600220E+00</totfact>
</mgrwt>
</event>
<event>
12    1  0.1335216E-007  0.4352176E+03  0.7818608E-02  0.1032224E+00
         -2   -1    0    0    0  501 -0.00000000000E+00  0.00000000000E+00  0.95857640101E+02  0.95857640101E+02  0.00000000000E+00 0. -1.
          2   -1    0    0  501    0  0.00000000000E+00 -0.00000000000E+00 -0.21869409292E+04  0.21869409292E+04  0.00000000000E+00 0.  1.
         23    2    1    2    0    0  0.24107540145E+03  0.42608552010E+02 -0.72001797634E+03  0.76629164384E+03  0.94043390439E+02 0.  0.
    5000000    2    1    2    0    0 -0.24107540145E+03 -0.42608552010E+02 -0.13710653128E+04  0.15165069255E+04  0.60003360342E+03 0.  0.
         23    2    4    4    0    0 -0.18404047157E+03 -0.29881789695E+03 -0.86987259082E+03  0.94254841080E+03  0.92499468860E+02 0.  0.
         23    2    4    4    0    0 -0.57034929871E+02  0.25620934494E+03 -0.50119272199E+03  0.57395851470E+03  0.96633432951E+02 0.  0.
          3    1    3    3  502    0  0.11157099112E+03 -0.99523261753E+00 -0.20435708070E+03  0.23283232804E+03  0.00000000000E+00 0. -1.
         -3    1    3    3    0  502  0.12950441033E+03  0.43603784628E+02 -0.51566089564E+03  0.53345931581E+03  0.00000000000E+00 0.  1.
         13    1    5    5    0    0 -0.11061855762E+03 -0.23088208665E+03 -0.53581242321E+03  0.59383327298E+03  0.00000000000E+00 0.  1.
        -13    1    5    5    0    0 -0.73421913953E+02 -0.67935810301E+02 -0.33406016761E+03  0.34871513783E+03  0.00000000000E+00 0. -1.
          1    1    6    6  503    0 -0.46582290526E+02  0.10834536883E+03 -0.31244068197E+03  0.33395779447E+03  0.00000000000E+00 0. -1.
         -1    1    6    6    0  503 -0.10452639345E+02  0.14786397611E+03 -0.18875204002E+03  0.24000072023E+03  0.00000000000E+00 0.  1.
<mgrwt>
<rscale>  0 0.43521760E+03</rscale>
<asrwt>0</asrwt>
<pdfrwt beam="1">  1        2 0.33645248E+00 0.43521760E+03</pdfrwt>
<pdfrwt beam="2">  1       -2 0.14747328E-01 0.43521760E+03</pdfrwt>
<totfact> 0.20243658E+02</totfact>
</mgrwt>
</event>
<event>
12    1  0.1335216E-007  0.1131884E+04  0.7818608E-02  0.9174661E-01
          1   -1    0    0  501    0  0.00000000000E+00  0.00000000000E+00  0.15109812105E+04  0.15109812105E+04  0.00000000000E+00 0. -1.
         -1   -1    0    0    0  501 -0.00000000000E+00 -0.00000000000E+00 -0.13779936703E+04  0.13779936703E+04  0.00000000000E+00 0.  1.
         23    2    1    2    0    0 -0.70442784423E+03  0.83651202310E+03  0.90464267871E+03  0.14221784996E+04  0.90787422112E+02 0.  0.
    5000000    2    1    2    0    0  0.70442784423E+03 -0.83651202310E+03 -0.77165513848E+03  0.14667963812E+04  0.60005751282E+03 0.  0.
         23    2    4    4    0    0  0.42029122225E+03 -0.75054448356E+03 -0.76833464129E+03  0.11569992129E+04  0.91363692252E+02 0.  0.
         23    2    4    4    0    0  0.28413662198E+03 -0.85967539541E+02 -0.33204971872E+01  0.30979716835E+03  0.88539381136E+02 0.  0.
          1    1    3    3  502    0 -0.19902375422E+03  0.23926555915E+03  0.31184973697E+03  0.44057771276E+03  0.00000000000E+00 0. -1.
         -1    1    3    3    0  502 -0.50540409001E+03  0.59724646395E+03  0.59279294174E+03  0.98160078682E+03  0.00000000000E+00 0.  1.
         11    1    5    5    0    0  0.16615984030E+03 -0.31410199976E+03 -0.25895032125E+03  0.43968673810E+03  0.00000000000E+00 0.  1.
        -11    1    5    5    0    0  0.25413138195E+03 -0.43644248379E+03 -0.50938432004E+03  0.71731247476E+03  0.00000000000E+00 0. -1.
          1    1    6    6  503    0  0.81199681206E+02 -0.68234041844E+02 -0.18445304812E+00  0.10606274896E+03  0.00000000000E+00 0. -1.
         -1    1    6    6    0  503  0.20293694077E+03 -0.17733497697E+02 -0.31360441391E+01  0.20373441939E+03  0.00000000000E+00 0.  1.
<mgrwt>
<rscale>  0 0.11318843E+04</rscale>
<asrwt>0</asrwt>
<pdfrwt beam="1">  1        1 0.23245865E+00 0.11318843E+04</pdfrwt>
<pdfrwt beam="2">  1       -1 0.21199903E+00 0.11318843E+04</pdfrwt>
<totfact> 0.79202555E-01</totfact>
</mgrwt>
</event>
<event>
12    1  0.1335216E-007  0.4638308E+03  0.7818608E-02  0.1023676E+00
          2   -1    0    0  501    0  0.00000000000E+00  0.00000000000E+00  0.11215017957E+04  0.11215017957E+04  0.00000000000E+00 0.  1.
         -2   -1    0    0    0  501 -0.00000000000E+00 -0.00000000000E+00 -0.25533131532E+03  0.25533131532E+03  0.00000000000E+00 0. -1.
         23    2    1    2    0    0  0.79053548637E+02  0.34731686326E+03  0.23790551578E+03  0.43794979230E+03  0.91227841588E+02 0.  0.
    5000000    2    1    2    0    0 -0.79053548637E+02 -0.34731686326E+03  0.62826496461E+03  0.93888331873E+03  0.59992212276E+03 0.  0.
         23    2    4    4    0    0 -0.16220851937E+03  0.29970542058E+02 -0.85196067194E+01  0.18860862111E+03  0.91053781432E+02 0.  0.
         23    2    4    4    0    0  0.83154970731E+02 -0.37728740531E+03  0.63678457133E+03  0.75027469761E+03  0.90316090640E+02 0.  0.
          4    1    3    3  502    0  0.46965764676E+02  0.16221222004E+03  0.60004706445E+02  0.17921816922E+03  0.00000000000E+00 0. -1.
         -4    1    3    3    0  502  0.32087783961E+02  0.18510464321E+03  0.17790080933E+03  0.25873162308E+03  0.00000000000E+00 0.  1.
         13    1    5    5    0    0 -0.14915869616E+03 -0.37642069718E+00  0.12130184881E+02  0.14965159444E+03  0.00000000000E+00 0. -1.
        -13    1    5    5    0    0 -0.13049823208E+02  0.30346962756E+02 -0.20649791600E+02  0.38957026675E+02  0.00000000000E+00 0.  1.
          3    1    6    6  503    0  0.35904593421E+02 -0.25696635381E+03  0.49169139157E+03  0.55595078142E+03  0.00000000000E+00 0. -1.
         -3    1    6    6    0  503  0.47250377310E+02 -0.12032105151E+03  0.14509317976E+03  0.19432391619E+03  0.00000000000E+00 0.  1.
<mgrwt>
<rscale>  0 0.46383079E+03</rscale>
<asrwt>0</asrwt>
<pdfrwt beam="1">  1        2 0.17253874E+00 0.46383079E+03</pdfrwt>
<pdfrwt beam="2">  1       -2 0.39281741E-01 0.46383079E+03</pdfrwt>
<totfact> 0.13462203E+02</totfact>
</mgrwt>
</event>
<event>
12    1  0.1335216E-007  0.7738732E+03  0.7818608E-02  0.9598624E-01
          2   -1    0    0  501    0  0.00000000000E+00  0.00000000000E+00  0.55142896423E+03  0.55142896423E+03  0.00000000000E+00 0. -1.
         -2   -1    0    0    0  501 -0.00000000000E+00 -0.00000000000E+00 -0.11119639488E+04  0.11119639488E+04  0.00000000000E+00 0.  1.
         23    2    1    2    0    0 -0.26587992399E+03  0.60776052547E+03 -0.28259493679E+03  0.72700388921E+03  0.92788826467E+02 0.  0.
    5000000    2    1    2    0    0  0.26587992399E+03 -0.60776052547E+03 -0.27794004779E+03  0.93638902383E+03  0.59959047981E+03 0.  0.
         23    2    4    4    0    0  0.42193029465E+03 -0.54427576910E+03 -0.17787599280E+03  0.71701906512E+03  0.90637655333E+02 0.  0.
         23    2    4    4    0    0 -0.15605037066E+03 -0.63484756372E+02 -0.10006405499E+03  0.21936995871E+03  0.98632303062E+02 0.  0.
          3    1    3    3  502    0 -0.77373617653E+02  0.97900311411E+02 -0.34451763334E+02  0.12945297092E+03  0.00000000000E+00 0. -1.
         -3    1    3    3    0  502 -0.18850630634E+03  0.50986021406E+03 -0.24814317346E+03  0.59755091829E+03  0.00000000000E+00 0.  1.
         13    1    5    5    0    0  0.15793789030E+03 -0.14830596896E+03 -0.81361211923E+02  0.23142749281E+03  0.00000000000E+00 0. -1.
        -13    1    5    5    0    0  0.26399240434E+03 -0.39596980014E+03 -0.96514780877E+02  0.48559157231E+03  0.00000000000E+00 0.  1.
          2    1    6    6  503    0 -0.95206194538E+02 -0.79345313886E+02 -0.95249338781E+02  0.15630846059E+03  0.00000000000E+00 0. -1.
         -2    1    6    6    0  503 -0.60844176120E+02  0.15860557515E+02 -0.48147162111E+01  0.63061498115E+02  0.00000000000E+00 0.  1.
<mgrwt>
<rscale>  0 0.77387316E+03</rscale>
<asrwt>0</asrwt>
<pdfrwt beam="1">  1        2 0.84835226E-01 0.77387316E+03</pdfrwt>
<pdfrwt beam="2">  1       -2 0.17107138E+00 0.77387316E+03</pdfrwt>
<totfact> 0.11649132E+01</totfact>
</mgrwt>
</event>
<event>
12    1  0.1335216E-007  0.1144473E+04  0.7818608E-02  0.9162897E-01
         -1   -1    0    0    0  501 -0.00000000000E+00  0.00000000000E+00  0.12377178507E+04  0.12377178507E+04  0.00000000000E+00 0.  1.
          1   -1    0    0  501    0  0.00000000000E+00 -0.00000000000E+00 -0.14247682520E+04  0.14247682520E+04  0.00000000000E+00 0. -1.
         23    2    1    2    0    0 -0.11061243011E+04 -0.15261003040E+02  0.51278614659E+03  0.12224467180E+04  0.87649749222E+02 0.  0.
    5000000    2    1    2    0    0  0.11061243011E+04  0.15261003040E+02 -0.69983654790E+03  0.14400393848E+04  0.60016528410E+03 0.  0.
         23    2    4    4    0    0  0.38812897376E+03 -0.17665590936E+03 -0.50208022079E+03  0.66576919015E+03  0.96502102840E+02 0.  0.
         23    2    4    4    0    0  0.71799532734E+03  0.19191691240E+03 -0.19775632711E+03  0.77427019463E+03  0.89651425186E+02 0.  0.
          2    1    3    3  502    0 -0.51191859037E+03 -0.49662570473E+02  0.22691757183E+03  0.56215531526E+03  0.00000000000E+00 0. -1.
         -2    1    3    3    0  502 -0.59420571073E+03  0.34401567432E+02  0.28586857476E+03  0.66029140275E+03  0.00000000000E+00 0.  1.
         13    1    5    5    0    0  0.23983740926E+03 -0.75899758656E+02 -0.34781525551E+03  0.42925308177E+03  0.00000000000E+00 0.  1.
        -13    1    5    5    0    0  0.14829156450E+03 -0.10075615071E+03 -0.15426496528E+03  0.23651610838E+03  0.00000000000E+00 0. -1.
          2    1    6    6  503    0  0.15399876617E+03  0.38236215078E+01 -0.39146306748E+02  0.15894235872E+03  0.00000000000E+00 0. -1.
         -2    1    6    6    0  503  0.56399656116E+03  0.18809329090E+03 -0.15861002036E+03  0.61532783591E+03  0.00000000000E+00 0.  1.
<mgrwt>
<rscale>  0 0.11444732E+04</rscale>
<asrwt>0</asrwt>
<pdfrwt beam="1">  1        1 0.21919511E+00 0.11444732E+04</pdfrwt>
<pdfrwt beam="2">  1       -1 0.19041813E+00 0.11444732E+04</pdfrwt>
<totfact> 0.12781479E+00</totfact>
</mgrwt>
</event>
<event>
12    1  0.1335216E-007  0.1789603E+04  0.7818608E-02  0.8711848E-01
          2   -1    0    0  501    0  0.00000000000E+00  0.00000000000E+00  0.16831736466E+04  0.16831736466E+04  0.00000000000E+00 0. -1.
         -2   -1    0    0    0  501 -0.00000000000E+00 -0.00000000000E+00 -0.24193826237E+04  0.24193826237E+04  0.00000000000E+00 0.  1.
         23    2    1    2    0    0  0.13271781830E+04 -0.11462740554E+04 -0.12775236180E+04  0.21716440477E+04  0.92871610561E+02 0.  0.
    5000000    2    1    2    0    0 -0.13271781830E+04  0.11462740554E+04  0.54131464090E+03  0.19309122225E+04  0.60004527431E+03 0.  0.
         23    2    4    4    0    0 -0.12406543786E+04  0.11787581730E+04  0.44898374075E+03  0.17717631775E+04  0.94150094772E+02 0.  0.
         23    2    4    4    0    0 -0.86523804407E+02 -0.32484117600E+02  0.92330900153E+02  0.15914904499E+03  0.90894646564E+02 0.  0.
          3    1    3    3  502    0  0.50104990074E+03 -0.38580014319E+03 -0.49374538756E+03  0.80229499641E+03  0.00000000000E+00 0. -1.
         -3    1    3    3    0  502  0.82612828222E+03 -0.76047391221E+03 -0.78377823046E+03  0.13693490513E+04  0.00000000000E+00 0.  1.
         11    1    5    5    0    0 -0.88804218655E+03  0.78446953810E+03  0.31728904539E+03  0.12266555016E+04  0.00000000000E+00 0.  1.
        -11    1    5    5    0    0 -0.35261219201E+03  0.39428863490E+03  0.13169469536E+03  0.54510767592E+03  0.00000000000E+00 0. -1.
          4    1    6    6  503    0 -0.36619930850E+01 -0.26803486846E+02  0.67095087598E+02  0.72343540695E+02  0.00000000000E+00 0. -1.
         -4    1    6    6    0  503 -0.82861811322E+02 -0.56806307541E+01  0.25235812555E+02  0.86805504299E+02  0.00000000000E+00 0.  1.
<mgrwt>
<rscale>  0 0.17896034E+04</rscale>
<asrwt>0</asrwt>
<pdfrwt beam="1">  1        2 0.25894979E+00 0.17896034E+04</pdfrwt>
<pdfrwt beam="2">  1       -2 0.37221271E+00 0.17896034E+04</pdfrwt>
<totfact> 0.10253214E-01</totfact>
</mgrwt>
</event>
<event>
12    1  0.1335216E-007  0.1009763E+04  0.7818608E-02  0.9297902E-01
          2   -1    0    0  501    0  0.00000000000E+00  0.00000000000E+00  0.98043808169E+03  0.98043808169E+03  0.00000000000E+00 0. -1.
         -2   -1    0    0    0  501 -0.00000000000E+00 -0.00000000000E+00 -0.11472640447E+04  0.11472640447E+04  0.00000000000E+00 0.  1.
         23    2    1    2    0    0 -0.92848287592E+03 -0.11253373493E+03 -0.34953157662E+03  0.10016379803E+04  0.79762322334E+02 0.  0.
    5000000    2    1    2    0    0  0.92848287592E+03  0.11253373493E+03  0.18270561366E+03  0.11260641461E+04  0.59991234982E+03 0.  0.
         23    2    4    4    0    0  0.58721772822E+03  0.32936978499E+03  0.16414078443E+02  0.67949576858E+03  0.90199567343E+02 0.  0.
         23    2    4    4    0    0  0.34126514770E+03 -0.21683605006E+03  0.16629153522E+03  0.44656837751E+03  0.91053102456E+02 0.  0.
          2    1    3    3  502    0 -0.33744874373E+03 -0.11860142893E+02 -0.15297450148E+03  0.37069329065E+03  0.00000000000E+00 0. -1.
         -2    1    3    3    0  502 -0.59103413219E+03 -0.10067359204E+03 -0.19655707514E+03  0.63094468960E+03  0.00000000000E+00 0.  1.
         13    1    5    5    0    0  0.27842380028E+03  0.14367817643E+03 -0.36021959964E+02  0.31537408350E+03  0.00000000000E+00 0. -1.
        -13    1    5    5    0    0  0.30879392794E+03  0.18569160855E+03  0.52436038407E+02  0.36412168508E+03  0.00000000000E+00 0.  1.
          1    1    6    6  503    0  0.23775738055E+02 -0.36479553595E+02 -0.38887632830E+01  0.43716884958E+02  0.00000000000E+00 0. -1.
         -1    1    6    6    0  503  0.31748940964E+03 -0.18035649646E+03  0.17018029850E+03  0.40285149255E+03  0.00000000000E+00 0.  1.
<mgrwt>
<rscale>  0 0.10097626E+04</rscale>
<asrwt>0</asrwt>
<pdfrwt beam="1">  1        2 0.15083663E+00 0.10097626E+04</pdfrwt>
<pdfrwt beam="2">  1       -2 0.17650216E+00 0.10097626E+04</pdfrwt>
<totfact> 0.49250891E+00</totfact>
</mgrwt>
</event>
<event>
12    1  0.1335216E-007  0.7632806E+03  0.7818608E-02  0.9614742E-01
          4   -1    0    0  501    0  0.00000000000E+00  0.00000000000E+00  0.53794077674E+03  0.53794077674E+03  0.00000000000E+00 0. -1.
         -4   -1    0    0    0  501 -0.00000000000E+00 -0.00000000000E+00 -0.15579774295E+04  0.15579774295E+04  0.00000000000E+00 0.  1.
         23    2    1    2    0    0  0.51021888453E+01  0.66461246115E+03  0.82495871930E+02  0.67572903164E+03  0.89824269993E+02 0.  0.
    5000000    2    1    2    0    0 -0.51021888453E+01 -0.66461246115E+03 -0.11025325247E+04  0.14201891746E+04  0.59968622442E+03 0.  0.
         23    2    4    4    0    0  0.26072394845E+03 -0.31341345204E+03 -0.35663501447E+03  0.54914335545E+03  0.90359958338E+02 0.  0.
         23    2    4    4    0    0 -0.26582613729E+03 -0.35119900911E+03 -0.74589751020E+03  0.87104581912E+03  0.91397177333E+02 0.  0.
          2    1    3    3  502    0 -0.37608165107E+02  0.26396382780E+03  0.52043198087E+02  0.27166113255E+03  0.00000000000E+00 0. -1.
         -2    1    3    3    0  502  0.42710353952E+02  0.40064863335E+03  0.30452673843E+02  0.40406789910E+03  0.00000000000E+00 0.  1.
         11    1    5    5    0    0  0.21796287839E+03 -0.30127618375E+03 -0.30440896090E+03  0.48056214034E+03  0.00000000000E+00 0.  1.
        -11    1    5    5    0    0  0.42761070057E+02 -0.12137268288E+02 -0.52226053567E+02  0.68581215103E+02  0.00000000000E+00 0. -1.
          2    1    6    6  503    0 -0.21354066775E+03 -0.29156512051E+03 -0.53405981586E+03  0.64484860486E+03  0.00000000000E+00 0. -1.
         -2    1    6    6    0  503 -0.52285469541E+02 -0.59633888600E+02 -0.21183769435E+03  0.22619721426E+03  0.00000000000E+00 0.  1.
<mgrwt>
<rscale>  0 0.76328063E+03</rscale>
<asrwt>0</asrwt>
<pdfrwt beam="1">  1        4 0.82760119E-01 0.76328063E+03</pdfrwt>
<pdfrwt beam="2">  1       -4 0.23968884E+00 0.76328063E+03</pdfrwt>
<totfact> 0.18568591E-01</totfact>
</mgrwt>
</event>
<event>
12    1  0.1335216E-007  0.6088195E+03  0.7818608E-02  0.9887275E-01
          1   -1    0    0  501    0  0.00000000000E+00  0.00000000000E+00  0.22778256921E+03  0.22778256921E+03  0.00000000000E+00 0. -1.
         -1   -1    0    0    0  501 -0.00000000000E+00 -0.00000000000E+00 -0.25081915183E+04  0.25081915183E+04  0.00000000000E+00 0.  1.
         23    2    1    2    0    0  0.48652261716E+03  0.13500269108E+03 -0.27354566117E+03  0.58136210128E+03  0.90690024015E+02 0.  0.
    5000000    2    1    2    0    0 -0.48652261716E+03 -0.13500269108E+03 -0.20068632879E+04  0.21546119862E+04  0.59993547251E+03 0.  0.
         23    2    4    4    0    0  0.66439001568E+02 -0.14026528225E+03 -0.23264673593E+03  0.29399070342E+03  0.90650646007E+02 0.  0.
         23    2    4    4    0    0 -0.55296161873E+03  0.52625911705E+01 -0.17742165520E+04  0.18606212828E+04  0.90955692759E+02 0.  0.
          3    1    3    3  502    0  0.27220521454E+02  0.93646194634E+01 -0.44411919450E+02  0.52925149741E+02  0.00000000000E+00 0. -1.
         -3    1    3    3    0  502  0.45930209571E+03  0.12563807162E+03 -0.22913374172E+03  0.52843695154E+03  0.00000000000E+00 0.  1.
         13    1    5    5    0    0  0.94202633406E+01 -0.25662616300E+01  0.68365199108E+01  0.11919105027E+02  0.00000000000E+00 0.  1.
        -13    1    5    5    0    0  0.57018738227E+02 -0.13769902062E+03 -0.23948325584E+03  0.28207159839E+03  0.00000000000E+00 0. -1.
          4    1    6    6  503    0 -0.42759122677E+03 -0.90811802539E+01 -0.14782597413E+04  0.15388855019E+04  0.00000000000E+00 0. -1.
         -4    1    6    6    0  503 -0.12537039195E+03  0.14343771424E+02 -0.29595681063E+03  0.32173578091E+03  0.00000000000E+00 0.  1.
<mgrwt>
<rscale>  0 0.60881949E+03</rscale>
<asrwt>0</asrwt>
<pdfrwt beam="1">  1        1 0.35043475E-01 0.60881949E+03</pdfrwt>
<pdfrwt beam="2">  1       -1 0.38587559E+00 0.60881949E+03</pdfrwt>
<totfact> 0.12254011E+00</totfact>
</mgrwt>
</event>
<event>
12    1  0.1335216E-007  0.4767889E+03  0.7818608E-02  0.1020021E+00
          4   -1    0    0  501    0  0.00000000000E+00  0.00000000000E+00  0.49194679448E+03  0.49194679448E+03  0.00000000000E+00 0. -1.
         -4   -1    0    0    0  501 -0.00000000000E+00 -0.00000000000E+00 -0.51449831214E+03  0.51449831214E+03  0.00000000000E+00 0.  1.
         23    2    1    2    0    0 -0.16384839253E+03 -0.26243598975E+03 -0.67091257033E+02  0.32986208307E+03  0.92675847040E+02 0.  0.
    5000000    2    1    2    0    0  0.16384839253E+03  0.26243598975E+03  0.44539739370E+02  0.67658302355E+03  0.60005154356E+03 0.  0.
         23    2    4    4    0    0  0.31060900763E+03  0.32925894908E+03 -0.58027964269E+02  0.46468781387E+03  0.87624817003E+02 0.  0.
         23    2    4    4    0    0 -0.14676061510E+03 -0.66822959334E+02  0.10256770364E+03  0.21189520968E+03  0.91517539394E+02 0.  0.
          3    1    3    3  502    0 -0.86860875845E+02 -0.19241500648E+03 -0.10430576026E+02  0.21136968417E+03  0.00000000000E+00 0. -1.
         -3    1    3    3    0  502 -0.76987516686E+02 -0.70020983268E+02 -0.56660681007E+02  0.11849239889E+03  0.00000000000E+00 0.  1.
         13    1    5    5    0    0  0.53710570080E+02  0.32154134742E+02 -0.33871821715E+02  0.71175937125E+02  0.00000000000E+00 0.  1.
        -13    1    5    5    0    0  0.25689843755E+03  0.29710481434E+03 -0.24156142554E+02  0.39351187675E+03  0.00000000000E+00 0. -1.
          4    1    6    6  503    0 -0.15200314177E+03 -0.42056924843E+02  0.99297862324E+02  0.18637007672E+03  0.00000000000E+00 0. -1.
         -4    1    6    6    0  503  0.52425266705E+01 -0.24766034491E+02  0.32698413157E+01  0.25525132958E+02  0.00000000000E+00 0.  1.
<mgrwt>
<rscale>  0 0.47678892E+03</rscale>
<asrwt>0</asrwt>
<pdfrwt beam="1">  1        4 0.75684123E-01 0.47678892E+03</pdfrwt>
<pdfrwt beam="2">  1       -4 0.79153586E-01 0.47678892E+03</pdfrwt>
<totfact> 0.43429971E+00</totfact>
</mgrwt>
</event>
<event>
12    1  0.1335216E-007  0.1590595E+04  0.7818608E-02  0.8826347E-01
          2   -1    0    0  501    0  0.00000000000E+00  0.00000000000E+00  0.21311425309E+04  0.21311425309E+04  0.00000000000E+00 0.  1.
         -2   -1    0    0    0  501 -0.00000000000E+00 -0.00000000000E+00 -0.16703485641E+04  0.16703485641E+04  0.00000000000E+00 0. -1.
         23    2    1    2    0    0 -0.30366085211E+03 -0.15137059756E+04  0.12291780254E+04  0.19755929585E+04  0.92591716678E+02 0.  0.
    5000000    2    1    2    0    0  0.30366085211E+03  0.15137059756E+04 -0.76838405863E+03  0.18258981365E+04  0.59997854103E+03 0.  0.
         23    2    4    4    0    0 -0.42829982528E+02  0.10696551883E+04 -0.60245236781E+03  0.12320710075E+04  0.95149791004E+02 0.  0.
         23    2    4    4    0    0  0.34649083464E+03  0.44405078725E+03 -0.16593169083E+03  0.59382712900E+03  0.88658518860E+02 0.  0.
          2    1    3    3  502    0 -0.75029739117E+02 -0.56788112008E+03  0.48544901280E+03  0.75085229728E+03  0.00000000000E+00 0. -1.
         -2    1    3    3    0  502 -0.22863111299E+03 -0.94582485549E+03  0.74372901259E+03  0.12247406612E+04  0.00000000000E+00 0.  1.
         11    1    5    5    0    0 -0.33552459728E+02  0.10117398144E+04 -0.59138589095E+03  0.11723823999E+04  0.00000000000E+00 0. -1.
        -11    1    5    5    0    0 -0.92775228004E+01  0.57915373934E+02 -0.11066476859E+02  0.59688607601E+02  0.00000000000E+00 0.  1.
          4    1    6    6  503    0  0.41497763588E+02  0.73777714877E+02 -0.56562225271E+02  0.10180619295E+03  0.00000000000E+00 0. -1.
         -4    1    6    6    0  503  0.30499307105E+03  0.37027307237E+03 -0.10936946556E+03  0.49202093605E+03  0.00000000000E+00 0.  1.
<mgrwt>
<rscale>  0 0.15905953E+04</rscale>
<asrwt>0</asrwt>
<pdfrwt beam="1">  1        2 0.32786808E+00 0.15905953E+04</pdfrwt>
<pdfrwt beam="2">  1       -2 0.25697670E+00 0.15905953E+04</pdfrwt>
<totfact> 0.30497151E-01</totfact>
</mgrwt>
</event>
<event>
12    1  0.1335216E-007  0.1010342E+04  0.7818608E-02  0.9297274E-01
          2   -1    0    0  501    0  0.00000000000E+00  0.00000000000E+00  0.18109806241E+04  0.18109806241E+04  0.00000000000E+00 0. -1.
         -2   -1    0    0    0  501 -0.00000000000E+00 -0.00000000000E+00 -0.63589807000E+03  0.63589807000E+03  0.00000000000E+00 0.  1.
         23    2    1    2    0    0  0.89339989147E+03  0.24401407231E+03  0.93151340383E+03  0.13167993726E+04  0.92396604337E+02 0.  0.
    5000000    2    1    2    0    0 -0.89339989147E+03 -0.24401407231E+03  0.24356915024E+03  0.11300793215E+04  0.60003925572E+03 0.  0.
         23    2    4    4    0    0 -0.64656693650E+03  0.99147985380E+02  0.22287930734E+03  0.69723136058E+03  0.92613487998E+02 0.  0.
         23    2    4    4    0    0 -0.24683295497E+03 -0.34316205769E+03  0.20689842896E+02  0.43284796094E+03  0.90788667731E+02 0.  0.
          4    1    3    3  502    0  0.13108131035E+03  0.44297488773E+01  0.14648393218E+03  0.19662012864E+03  0.00000000000E+00 0. -1.
         -4    1    3    3    0  502  0.76231858111E+03  0.23958432344E+03  0.78502947166E+03  0.11201792439E+04  0.00000000000E+00 0.  1.
         13    1    5    5    0    0 -0.42482174579E+03  0.30027073305E+02  0.17293516618E+03  0.45965390516E+03  0.00000000000E+00 0. -1.
        -13    1    5    5    0    0 -0.22174519070E+03  0.69120912075E+02  0.49944141167E+02  0.23757745542E+03  0.00000000000E+00 0.  1.
          1    1    6    6  503    0 -0.12873313988E+03 -0.10373761921E+03  0.45090267680E+01  0.16539058699E+03  0.00000000000E+00 0. -1.
         -1    1    6    6    0  503 -0.11809981509E+03 -0.23942443848E+03  0.16180816128E+02  0.26745737394E+03  0.00000000000E+00 0.  1.
<mgrwt>
<rscale>  0 0.10103418E+04</rscale>
<asrwt>0</asrwt>
<pdfrwt beam="1">  1        2 0.27861240E+00 0.10103418E+04</pdfrwt>
<pdfrwt beam="2">  1       -2 0.97830473E-01 0.10103418E+04</pdfrwt>
<totfact> 0.73814996E+00</totfact>
</mgrwt>
</event>
<event>
12    1  0.1335216E-007  0.3764494E+03  0.7818608E-02  0.1052254E+00
         -1   -1    0    0    0  501 -0.00000000000E+00  0.00000000000E+00  0.10190161540E+03  0.10190161540E+03  0.00000000000E+00 0.  1.
          1   -1    0    0  501    0  0.00000000000E+00 -0.00000000000E+00 -0.26422003035E+04  0.26422003035E+04  0.00000000000E+00 0. -1.
         23    2    1    2    0    0 -0.32438624529E+03  0.28319744691E+02 -0.10866713561E+04  0.11380962686E+04  0.91542539411E+02 0.  0.
    5000000    2    1    2    0    0  0.32438624529E+03 -0.28319744691E+02 -0.14536273320E+04  0.16060056502E+04  0.60016104853E+03 0.  0.
         23    2    4    4    0    0  0.30590116712E+03  0.30767493752E+02 -0.14618886363E+04  0.14966012199E+04  0.90413846448E+02 0.  0.
         23    2    4    4    0    0  0.18485078176E+02 -0.59087238443E+02  0.82613043380E+01  0.10940443034E+03  0.89822493653E+02 0.  0.
          4    1    3    3  502    0 -0.22926721551E+03  0.18587022103E+02 -0.89243192308E+03  0.92159843252E+03  0.00000000000E+00 0. -1.
         -4    1    3    3    0  502 -0.95119029781E+02  0.97327225883E+01 -0.19423943298E+03  0.21649783611E+03  0.00000000000E+00 0.  1.
         11    1    5    5    0    0  0.21626436522E+03 -0.19872230682E+02 -0.95920111589E+03  0.98347951780E+03  0.00000000000E+00 0.  1.
        -11    1    5    5    0    0  0.89636801902E+02  0.50639724434E+02 -0.50268752045E+03  0.51312170210E+03  0.00000000000E+00 0. -1.
          2    1    6    6  503    0 -0.11294712976E+02  0.19811132968E+02 -0.66728915332E+01  0.23760871451E+02  0.00000000000E+00 0. -1.
         -2    1    6    6    0  503  0.29779791153E+02 -0.78898371411E+02  0.14934195871E+02  0.85643558887E+02  0.00000000000E+00 0.  1.
<mgrwt>
<rscale>  0 0.37644936E+03</rscale>
<asrwt>0</asrwt>
<pdfrwt beam="1">  1        1 0.40649234E+00 0.37644936E+03</pdfrwt>
<pdfrwt beam="2">  1       -1 0.15677172E-01 0.37644936E+03</pdfrwt>
<totfact> 0.37064646E+01</totfact>
</mgrwt>
</event>
<event>
12    1  0.1335216E-007  0.4180314E+03  0.7818608E-02  0.1037709E+00
          1   -1    0    0  501    0  0.00000000000E+00  0.00000000000E+00  0.50549315577E+03  0.50549315577E+03  0.00000000000E+00 0. -1.
         -1   -1    0    0    0  501 -0.00000000000E+00 -0.00000000000E+00 -0.78946810385E+03  0.78946810385E+03  0.00000000000E+00 0.  1.
         23    2    1    2    0    0 -0.10101492646E+03  0.23666985169E+03 -0.53104970690E+03  0.59686553357E+03  0.89543508382E+02 0.  0.
    5000000    2    1    2    0    0  0.10101492646E+03 -0.23666985169E+03  0.24707475883E+03  0.69809572605E+03  0.60006255692E+03 0.  0.
         23    2    4    4    0    0  0.17460705061E+03 -0.37894798008E+03  0.28102900478E+03  0.51124891525E+03  0.91153486402E+02 0.  0.
         23    2    4    4    0    0 -0.73592124157E+02  0.14227812839E+03 -0.33954245950E+02  0.18684681080E+03  0.89999851845E+02 0.  0.
          4    1    3    3  502    0 -0.18608588666E+02  0.43631562089E+02 -0.37259857845E+02  0.60318237616E+02  0.00000000000E+00 0. -1.
         -4    1    3    3    0  502 -0.82406337790E+02  0.19303828960E+03 -0.49378984906E+03  0.53654729595E+03  0.00000000000E+00 0.  1.
         13    1    5    5    0    0  0.98568026177E+02 -0.24737114288E+03  0.12753355025E+03  0.29525064700E+03  0.00000000000E+00 0. -1.
        -13    1    5    5    0    0  0.76039024436E+02 -0.13157683721E+03  0.15349545453E+03  0.21599826825E+03  0.00000000000E+00 0.  1.
          1    1    6    6  503    0 -0.48374078855E+02  0.10318607969E+03 -0.64735133552E+02  0.13106508331E+03  0.00000000000E+00 0. -1.
         -1    1    6    6    0  503 -0.25218045303E+02  0.39092048704E+02  0.30780887601E+02  0.55781727495E+02  0.00000000000E+00 0.  1.
<mgrwt>
<rscale>  0 0.41803141E+03</rscale>
<asrwt>0</asrwt>
<pdfrwt beam="1">  1        1 0.77768178E-01 0.41803141E+03</pdfrwt>
<pdfrwt beam="2">  1       -1 0.12145663E+00 0.41803141E+03</pdfrwt>
<totfact> 0.28084343E+01</totfact>
</mgrwt>
</event>
<event>
12    1  0.1335216E-007  0.7523637E+03  0.7818608E-02  0.9631649E-01
          2   -1    0    0  501    0  0.00000000000E+00  0.00000000000E+00  0.46810553421E+03  0.46810553421E+03  0.00000000000E+00 0. -1.
         -2   -1    0    0    0  501 -0.00000000000E+00 -0.00000000000E+00 -0.12908335473E+04  0.12908335473E+04  0.00000000000E+00 0.  1.
         23    2    1    2    0    0  0.17065770969E+03  0.62688737963E+03 -0.23317646549E+03  0.69606058488E+03  0.89539003528E+02 0.  0.
    5000000    2    1    2    0    0 -0.17065770969E+03 -0.62688737963E+03 -0.58955154760E+03  0.10628784966E+04  0.60002319182E+03 0.  0.
         23    2    4    4    0    0 -0.29668442529E+03 -0.62833036784E+03 -0.36534222276E+03  0.79017475537E+03  0.89891628743E+02 0.  0.
         23    2    4    4    0    0  0.12602671560E+03  0.14429882142E+01 -0.22420932484E+03  0.27270374127E+03  0.90623914602E+02 0.  0.
          3    1    3    3  502    0  0.11207419449E+03  0.52567410831E+03 -0.17369278380E+03  0.56485668657E+03  0.00000000000E+00 0. -1.
         -3    1    3    3    0  502  0.58583515207E+02  0.10121327132E+03 -0.59483681696E+02  0.13120389831E+03  0.00000000000E+00 0.  1.
         13    1    5    5    0    0 -0.64300411587E+01 -0.40075474136E+02 -0.43545302842E+02  0.59527997246E+02  0.00000000000E+00 0.  1.
        -13    1    5    5    0    0 -0.29025438414E+03 -0.58825489371E+03 -0.32179691992E+03  0.73064675812E+03  0.00000000000E+00 0. -1.
          1    1    6    6  503    0  0.70741266005E+02  0.44580026299E+02 -0.14055508618E+03  0.16354643900E+03  0.00000000000E+00 0. -1.
         -1    1    6    6    0  503  0.55285449598E+02 -0.43137038085E+02 -0.83654238659E+02  0.10915730226E+03  0.00000000000E+00 0.  1.
<mgrwt>
<rscale>  0 0.75236372E+03</rscale>
<asrwt>0</asrwt>
<pdfrwt beam="1">  1        2 0.72016235E-01 0.75236372E+03</pdfrwt>
<pdfrwt beam="2">  1       -2 0.19858978E+00 0.75236372E+03</pdfrwt>
<totfact> 0.91995442E+00</totfact>
</mgrwt>
</event>
<event>
12    1  0.1335216E-007  0.4099775E+03  0.7818608E-02  0.1040379E+00
          1   -1    0    0  501    0  0.00000000000E+00  0.00000000000E+00  0.31118605289E+03  0.31118605289E+03  0.00000000000E+00 0.  1.
         -1   -1    0    0    0  501 -0.00000000000E+00 -0.00000000000E+00 -0.62260247451E+03  0.62260247451E+03  0.00000000000E+00 0. -1.
         23    2    1    2    0    0 -0.20241898489E+03  0.91391341197E+02 -0.79723042886E+02  0.25332559282E+03  0.92153511701E+02 0.  0.
    5000000    2    1    2    0    0  0.20241898489E+03 -0.91391341197E+02 -0.23169337874E+03  0.68046293458E+03  0.60001846713E+03 0.  0.
         23    2    4    4    0    0 -0.11351191474E+03 -0.19599984493E+03  0.32463401791E+02  0.24604020945E+03  0.90448981273E+02 0.  0.
         23    2    4    4    0    0  0.31593089963E+03  0.10460850373E+03 -0.26415678053E+03  0.43442272513E+03  0.90493242933E+02 0.  0.
          4    1    3    3  502    0 -0.11891888725E+03  0.84520853306E+01 -0.61777109981E+02  0.13427416285E+03  0.00000000000E+00 0. -1.
         -4    1    3    3    0  502 -0.83500097647E+02  0.82939255866E+02 -0.17945932905E+02  0.11905142997E+03  0.00000000000E+00 0.  1.
         13    1    5    5    0    0 -0.89749757207E+02 -0.74345651347E+02 -0.46937796160E+01  0.11663758554E+03  0.00000000000E+00 0. -1.
        -13    1    5    5    0    0 -0.23762157530E+02 -0.12165419358E+03  0.37157181407E+02  0.12940262392E+03  0.00000000000E+00 0.  1.
          4    1    6    6  503    0  0.29382536060E+03  0.11807731634E+03 -0.22911642583E+03  0.39085794318E+03  0.00000000000E+00 0. -1.
         -4    1    6    6    0  503  0.22105539035E+02 -0.13468812604E+02 -0.35040354696E+02  0.43564781949E+02  0.00000000000E+00 0.  1.
<mgrwt>
<rscale>  0 0.40997750E+03</rscale>
<asrwt>0</asrwt>
<pdfrwt beam="1">  1        1 0.47874778E-01 0.40997750E+03</pdfrwt>
<pdfrwt beam="2">  1       -1 0.95784995E-01 0.40997750E+03</pdfrwt>
<totfact> 0.91951809E+01</totfact>
</mgrwt>
</event>
<event>
12    1  0.1335216E-007  0.5001803E+03  0.7818608E-02  0.1013732E+00
          2   -1    0    0  501    0  0.00000000000E+00  0.00000000000E+00  0.61298850232E+03  0.61298850232E+03  0.00000000000E+00 0. -1.
         -2   -1    0    0    0  501 -0.00000000000E+00 -0.00000000000E+00 -0.98526738813E+03  0.98526738813E+03  0.00000000000E+00 0.  1.
         23    2    1    2    0    0  0.41555503575E+03 -0.46188302869E+02  0.36293655844E+03  0.56107130362E+03  0.90877473722E+02 0.  0.
    5000000    2    1    2    0    0 -0.41555503575E+03  0.46188302869E+02 -0.73521544424E+03  0.10371845868E+04  0.60032555389E+03 0.  0.
         23    2    4    4    0    0 -0.36285393510E+03 -0.11767241210E+03 -0.74543578575E+03  0.84265012663E+03  0.94206955452E+02 0.  0.
         23    2    4    4    0    0 -0.52701100653E+02  0.16386071497E+03  0.10220341503E+02  0.19453446020E+03  0.90063649182E+02 0.  0.
          3    1    3    3  502    0  0.21465621511E+03 -0.19334403712E+02  0.24605477833E+03  0.32709947079E+03  0.00000000000E+00 0. -1.
         -3    1    3    3    0  502  0.20089882064E+03 -0.26853899158E+02  0.11688178011E+03  0.23397183283E+03  0.00000000000E+00 0.  1.
         13    1    5    5    0    0 -0.23037593377E+03 -0.10981417917E+03 -0.42379784401E+03  0.49470884103E+03  0.00000000000E+00 0.  1.
        -13    1    5    5    0    0 -0.13247800133E+03 -0.78582329295E+01 -0.32163794174E+03  0.34794128560E+03  0.00000000000E+00 0. -1.
          2    1    6    6  503    0  0.25675648743E+02  0.35071424025E+02  0.38704795574E+01  0.43637418960E+02  0.00000000000E+00 0. -1.
         -2    1    6    6    0  503 -0.78376749396E+02  0.12878929095E+03  0.63498619452E+01  0.15089704124E+03  0.00000000000E+00 0.  1.
<mgrwt>
<rscale>  0 0.50018033E+03</rscale>
<asrwt>0</asrwt>
<pdfrwt beam="1">  1        2 0.94305925E-01 0.50018033E+03</pdfrwt>
<pdfrwt beam="2">  1       -2 0.15157960E+00 0.50018033E+03</pdfrwt>
<totfact> 0.14721678E+01</totfact>
</mgrwt>
</event>
<event>
12    1  0.1335216E-007  0.8098110E+03  0.7818608E-02  0.9545924E-01
         -4   -1    0    0    0  501 -0.00000000000E+00  0.00000000000E+00  0.56546465985E+03  0.56546465985E+03  0.00000000000E+00 0.  1.
          4   -1    0    0  501    0  0.00000000000E+00 -0.00000000000E+00 -0.12233976730E+04  0.12233976730E+04  0.00000000000E+00 0. -1.
         23    2    1    2    0    0  0.27986821151E+03  0.66438759849E+03 -0.26959989454E+03  0.77368056400E+03  0.78488312078E+02 0.  0.
    5000000    2    1    2    0    0 -0.27986821151E+03 -0.66438759849E+03 -0.38833311857E+03  0.10151817688E+04  0.60004526154E+03 0.  0.
         23    2    4    4    0    0 -0.52065727579E+02 -0.64310783196E+03 -0.14184190494E+03  0.66706374726E+03  0.92500775089E+02 0.  0.
         23    2    4    4    0    0 -0.22780248393E+03 -0.21279766533E+02 -0.24649121363E+03  0.34811802155E+03  0.89896820761E+02 0.  0.
          3    1    3    3  502    0  0.23465435823E+03  0.59819211753E+03 -0.25906395661E+03  0.69282798077E+03  0.00000000000E+00 0. -1.
         -3    1    3    3    0  502  0.45213853278E+02  0.66195480959E+02 -0.10535937923E+02  0.80852583234E+02  0.00000000000E+00 0.  1.
         11    1    5    5    0    0  0.25819082741E+02 -0.16416442561E+03 -0.26144649870E+02  0.16822641405E+03  0.00000000000E+00 0.  1.
        -11    1    5    5    0    0 -0.77884810321E+02 -0.47894340635E+03 -0.11569725507E+03  0.49883733320E+03  0.00000000000E+00 0. -1.
          2    1    6    6  503    0 -0.10778060048E+03 -0.54723320156E+02 -0.13067009800E+03  0.17800554520E+03  0.00000000000E+00 0. -1.
         -2    1    6    6    0  503 -0.12002188346E+03  0.33443553623E+02 -0.11582111562E+03  0.17011247635E+03  0.00000000000E+00 0.  1.
<mgrwt>
<rscale>  0 0.80981102E+03</rscale>
<asrwt>0</asrwt>
<pdfrwt beam="1">  1        4 0.18821502E+00 0.80981102E+03</pdfrwt>
<pdfrwt beam="2">  1       -4 0.86994564E-01 0.80981102E+03</pdfrwt>
<totfact> 0.35349074E-01</totfact>
</mgrwt>
</event>
<event>
12    1  0.1335216E-007  0.1204012E+04  0.7818608E-02  0.9109352E-01
          1   -1    0    0  501    0  0.00000000000E+00  0.00000000000E+00  0.11426841274E+04  0.11426841274E+04  0.00000000000E+00 0. -1.
         -1   -1    0    0    0  501 -0.00000000000E+00 -0.00000000000E+00 -0.17940993543E+04  0.17940993543E+04  0.00000000000E+00 0.  1.
         23    2    1    2    0    0  0.10002908367E+04 -0.63921374039E+03  0.38406773000E+03  0.12511206781E+04  0.92838386984E+02 0.  0.
    5000000    2    1    2    0    0 -0.10002908367E+04  0.63921374039E+03 -0.10354829568E+04  0.16856628036E+04  0.60004847270E+03 0.  0.
         23    2    4    4    0    0 -0.89758486204E+03  0.65666237013E+03 -0.10646879025E+04  0.15427068368E+04  0.97570496538E+02 0.  0.
         23    2    4    4    0    0 -0.10270597467E+03 -0.17448629749E+02  0.29204945690E+02  0.14295596673E+03  0.93437185624E+02 0.  0.
          4    1    3    3  502    0  0.86042761515E+03 -0.55773253487E+03  0.29805069389E+03  0.10678180920E+04  0.00000000000E+00 0.  1.
         -4    1    3    3    0  502  0.13986322156E+03 -0.81481205513E+02  0.86017036105E+02  0.18330258617E+03  0.00000000000E+00 0. -1.
         13    1    5    5    0    0 -0.68724077814E+03  0.45417752211E+03 -0.76190790947E+03  0.11220876843E+04  0.00000000000E+00 0. -1.
        -13    1    5    5    0    0 -0.21034408390E+03  0.20248484803E+03 -0.30277999304E+03  0.42061915256E+03  0.00000000000E+00 0.  1.
          1    1    6    6  503    0 -0.99595861486E+02 -0.19277811631E+02 -0.11497517750E+02  0.10209389091E+03  0.00000000000E+00 0. -1.
         -1    1    6    6    0  503 -0.31101131882E+01  0.18291818814E+01  0.40702463440E+02  0.40862075822E+02  0.00000000000E+00 0.  1.
<mgrwt>
<rscale>  0 0.12040115E+04</rscale>
<asrwt>0</asrwt>
<pdfrwt beam="1">  1        1 0.17579756E+00 0.12040115E+04</pdfrwt>
<pdfrwt beam="2">  1       -1 0.27601529E+00 0.12040115E+04</pdfrwt>
<totfact> 0.54655054E-01</totfact>
</mgrwt>
</event>
<event>
12    1  0.1335216E-007  0.1161658E+04  0.7818608E-02  0.9147095E-01
         -2   -1    0    0    0  501 -0.00000000000E+00  0.00000000000E+00  0.70878848923E+03  0.70878848923E+03  0.00000000000E+00 0.  1.
          2   -1    0    0  501    0  0.00000000000E+00 -0.00000000000E+00 -0.25087331929E+04  0.25087331929E+04  0.00000000000E+00 0. -1.
         23    2    1    2    0    0  0.53803238977E+03 -0.97676748301E+03 -0.13669915013E+03  0.11270864012E+04  0.89908451884E+02 0.  0.
    5000000    2    1    2    0    0 -0.53803238977E+03  0.97676748301E+03 -0.16632455535E+04  0.20904352809E+04  0.59998360330E+03 0.  0.
         23    2    4    4    0    0  0.61680797643E+02  0.11047658187E+03 -0.53261977400E+02  0.16419816264E+03  0.90081088115E+02 0.  0.
         23    2    4    4    0    0 -0.59971318741E+03  0.86629090114E+03 -0.16099835761E+04  0.19262371183E+04  0.90699989266E+02 0.  0.
          2    1    3    3  502    0  0.39482449019E+03 -0.73401560860E+03 -0.63447933736E+02  0.83587734269E+03  0.00000000000E+00 0. -1.
         -2    1    3    3    0  502  0.14320789957E+03 -0.24275187441E+03 -0.73251216397E+02  0.29120905847E+03  0.00000000000E+00 0.  1.
         11    1    5    5    0    0  0.79913964279E+02  0.10486461305E+03 -0.32077957828E+02  0.13569017700E+03  0.00000000000E+00 0.  1.
        -11    1    5    5    0    0 -0.18233166636E+02  0.56119688275E+01 -0.21184019572E+02  0.28507985634E+02  0.00000000000E+00 0. -1.
          4    1    6    6  503    0 -0.68209220879E+02  0.57135102152E+02 -0.12073379800E+03  0.14997855743E+03  0.00000000000E+00 0. -1.
         -4    1    6    6    0  503 -0.53150396653E+03  0.80915579899E+03 -0.14892497781E+04  0.17762585609E+04  0.00000000000E+00 0.  1.
<mgrwt>
<rscale>  0 0.11616580E+04</rscale>
<asrwt>0</asrwt>
<pdfrwt beam="1">  1        2 0.38595895E+00 0.11616580E+04</pdfrwt>
<pdfrwt beam="2">  1       -2 0.10904438E+00 0.11616580E+04</pdfrwt>
<totfact> 0.22784312E+00</totfact>
</mgrwt>
</event>
<event>
12    1  0.1335216E-007  0.1023776E+04  0.7818608E-02  0.9282845E-01
          1   -1    0    0  501    0  0.00000000000E+00  0.00000000000E+00  0.10935463199E+04  0.10935463199E+04  0.00000000000E+00 0. -1.
         -1   -1    0    0    0  501 -0.00000000000E+00 -0.00000000000E+00 -0.10129089572E+04  0.10129089572E+04  0.00000000000E+00 0.  1.
         23    2    1    2    0    0 -0.50214633977E+03 -0.82333754015E+03  0.15337745082E+02  0.96885919312E+03  0.91745507214E+02 0.  0.
    5000000    2    1    2    0    0  0.50214633977E+03  0.82333754015E+03  0.65299617583E+02  0.11375960839E+04  0.59985428111E+03 0.  0.
         23    2    4    4    0    0  0.48077150152E+03  0.88323705071E+03  0.10818550464E+03  0.10154862789E+04  0.90880992343E+02 0.  0.
         23    2    4    4    0    0  0.21374838251E+02 -0.59899510561E+02 -0.42885887054E+02  0.12210980505E+03  0.95009315887E+02 0.  0.
          1    1    3    3  502    0 -0.28409932997E+03 -0.47127439537E+03 -0.36592112311E+02  0.55149883744E+03  0.00000000000E+00 0. -1.
         -1    1    3    3    0  502 -0.21804700980E+03 -0.35206314478E+03  0.51929857394E+02  0.41736035567E+03  0.00000000000E+00 0.  1.
         11    1    5    5    0    0  0.31938511427E+03  0.50871043003E+03  0.39836773513E+02  0.60198016692E+03  0.00000000000E+00 0. -1.
        -11    1    5    5    0    0  0.16138638725E+03  0.37452662069E+03  0.68348731124E+02  0.41350611197E+03  0.00000000000E+00 0.  1.
          2    1    6    6  503    0  0.32651090793E+02 -0.38479463508E+02  0.20338535959E+02  0.54409731545E+02  0.00000000000E+00 0. -1.
         -2    1    6    6    0  503 -0.11276252542E+02 -0.21420047053E+02 -0.63224423014E+02  0.67700073505E+02  0.00000000000E+00 0.  1.
<mgrwt>
<rscale>  0 0.10237759E+04</rscale>
<asrwt>0</asrwt>
<pdfrwt beam="1">  1        1 0.16823790E+00 0.10237759E+04</pdfrwt>
<pdfrwt beam="2">  1       -1 0.15583215E+00 0.10237759E+04</pdfrwt>
<totfact> 0.40325878E+00</totfact>
</mgrwt>
</event>
<event>
12    1  0.1335216E-007  0.8469171E+03  0.7818608E-02  0.9494484E-01
         -2   -1    0    0    0  501 -0.00000000000E+00  0.00000000000E+00  0.10802797425E+04  0.10802797425E+04  0.00000000000E+00 0.  1.
          2   -1    0    0  501    0  0.00000000000E+00 -0.00000000000E+00 -0.70691195227E+03  0.70691195227E+03  0.00000000000E+00 0. -1.
         23    2    1    2    0    0 -0.13268732540E+03 -0.73738054642E+03  0.33700621633E+03  0.82660712081E+03  0.91488500714E+02 0.  0.
    5000000    2    1    2    0    0  0.13268732540E+03  0.73738054642E+03  0.36361573946E+02  0.96058457400E+03  0.60005380024E+03 0.  0.
         23    2    4    4    0    0 -0.19225065701E+03  0.48117649434E+03 -0.47555151587E+02  0.52871763389E+03  0.93753453892E+02 0.  0.
         23    2    4    4    0    0  0.32493798241E+03  0.25620405208E+03  0.83916725533E+02  0.43186694011E+03  0.90784516419E+02 0.  0.
          3    1    3    3  502    0 -0.47524127394E+02 -0.21968262281E+03  0.56873824450E+02  0.23184828953E+03  0.00000000000E+00 0. -1.
         -3    1    3    3    0  502 -0.85163198007E+02 -0.51769792361E+03  0.28013239188E+03  0.59475883128E+03  0.00000000000E+00 0.  1.
         11    1    5    5    0    0 -0.11772426937E+03  0.17128018965E+03 -0.17469027509E+02  0.20856911058E+03  0.00000000000E+00 0. -1.
        -11    1    5    5    0    0 -0.74526387635E+02  0.30989630469E+03 -0.30086124077E+02  0.32014852331E+03  0.00000000000E+00 0.  1.
          3    1    6    6  503    0  0.45377305572E+02  0.64528772297E+02 -0.11532061375E+02  0.79724844024E+02  0.00000000000E+00 0. -1.
         -3    1    6    6    0  503  0.27956067684E+03  0.19167527978E+03  0.95448786908E+02  0.35214209609E+03  0.00000000000E+00 0.  1.
<mgrwt>
<rscale>  0 0.84691711E+03</rscale>
<asrwt>0</asrwt>
<pdfrwt beam="1">  1        2 0.10875569E+00 0.84691711E+03</pdfrwt>
<pdfrwt beam="2">  1       -2 0.16619688E+00 0.84691711E+03</pdfrwt>
<totfact> 0.92415401E+00</totfact>
</mgrwt>
</event>
<event>
12    1  0.1335216E-007  0.8731880E+03  0.7818608E-02  0.9459733E-01
          1   -1    0    0  501    0  0.00000000000E+00  0.00000000000E+00  0.60118106743E+03  0.60118106743E+03  0.00000000000E+00 0. -1.
         -1   -1    0    0    0  501 -0.00000000000E+00 -0.00000000000E+00 -0.14107359459E+04  0.14107359459E+04  0.00000000000E+00 0.  1.
         23    2    1    2    0    0 -0.13471206168E+03 -0.78834071722E+03 -0.15844595675E+03  0.81885172165E+03  0.76056524065E+02 0.  0.
    5000000    2    1    2    0    0  0.13471206168E+03  0.78834071722E+03 -0.65110892176E+03  0.11930652917E+04  0.59986126424E+03 0.  0.
         23    2    4    4    0    0 -0.69384099978E+02  0.72084011823E+03 -0.35141312022E+03  0.81013365341E+03  0.91655474170E+02 0.  0.
         23    2    4    4    0    0  0.20409616166E+03  0.67500598989E+02 -0.29969580154E+03  0.38293163832E+03  0.10299267982E+03 0.  0.
          2    1    3    3  502    0 -0.23478544742E+02 -0.26299070217E+03 -0.81769180665E+02  0.27640830378E+03  0.00000000000E+00 0. -1.
         -2    1    3    3    0  502 -0.11123351694E+03 -0.52535001505E+03 -0.76676776083E+02  0.54244341787E+03  0.00000000000E+00 0.  1.
         13    1    5    5    0    0  0.14782676244E+02  0.30643182776E+03 -0.13647341889E+03  0.33577371345E+03  0.00000000000E+00 0.  1.
        -13    1    5    5    0    0 -0.84166776222E+02  0.41440829047E+03 -0.21493970133E+03  0.47435993996E+03  0.00000000000E+00 0. -1.
          4    1    6    6  503    0  0.89742911882E+02  0.38891414338E+02 -0.21965754696E+03  0.24044910122E+03  0.00000000000E+00 0. -1.
         -4    1    6    6    0  503  0.11435324978E+03  0.28609184651E+02 -0.80038254580E+02  0.14248253709E+03  0.00000000000E+00 0.  1.
<mgrwt>
<rscale>  0 0.87318802E+03</rscale>
<asrwt>0</asrwt>
<pdfrwt beam="1">  1        1 0.92489394E-01 0.87318802E+03</pdfrwt>
<pdfrwt beam="2">  1       -1 0.21703630E+00 0.87318802E+03</pdfrwt>
<totfact> 0.40162790E+00</totfact>
</mgrwt>
</event>
<event>
12    1  0.1335216E-007  0.5375258E+03  0.7818608E-02  0.1004423E+00
         -1   -1    0    0    0  501 -0.00000000000E+00  0.00000000000E+00  0.18852911493E+03  0.18852911493E+03  0.00000000000E+00 0.  1.
          1   -1    0    0  501    0  0.00000000000E+00 -0.00000000000E+00 -0.20868549326E+04  0.20868549326E+04  0.00000000000E+00 0. -1.
         23    2    1    2    0    0 -0.33030062057E+03  0.18024810321E+03 -0.12741473643E+04  0.13313952033E+04  0.87027597794E+02 0.  0.
    5000000    2    1    2    0    0  0.33030062057E+03 -0.18024810321E+03 -0.62417845330E+03  0.94398884415E+03  0.59994026173E+03 0.  0.
         23    2    4    4    0    0 -0.12689246585E+03 -0.18326722721E+03 -0.24949014526E+03  0.34613165421E+03  0.88731138855E+02 0.  0.
         23    2    4    4    0    0  0.45719308643E+03  0.30191239964E+01 -0.37468830804E+03  0.59785718994E+03  0.89483283334E+02 0.  0.
          4    1    3    3  502    0 -0.13618884406E+03  0.79293300566E+02 -0.39134293200E+03  0.42188164120E+03  0.00000000000E+00 0. -1.
         -4    1    3    3    0  502 -0.19411177652E+03  0.10095480264E+03 -0.88280443232E+03  0.90951356212E+03  0.00000000000E+00 0.  1.
         11    1    5    5    0    0 -0.14155747274E+02 -0.94804093777E+02 -0.86627484279E+02  0.12919954493E+03  0.00000000000E+00 0. -1.
        -11    1    5    5    0    0 -0.11273671858E+03 -0.88463133429E+02 -0.16286266098E+03  0.21693210928E+03  0.00000000000E+00 0.  1.
          2    1    6    6  503    0  0.13620868677E+03 -0.20144498549E+02 -0.69065914743E+02  0.15404125341E+03  0.00000000000E+00 0. -1.
         -2    1    6    6    0  503  0.32098439966E+03  0.23163622545E+02 -0.30562239330E+03  0.44381593653E+03  0.00000000000E+00 0.  1.
<mgrwt>
<rscale>  0 0.53752579E+03</rscale>
<asrwt>0</asrwt>
<pdfrwt beam="1">  1        1 0.32105461E+00 0.53752579E+03</pdfrwt>
<pdfrwt beam="2">  1       -1 0.29004478E-01 0.53752579E+03</pdfrwt>
<totfact> 0.30242124E+01</totfact>
</mgrwt>
</event>
<event>
12    1  0.1335216E-007  0.7129656E+03  0.7818608E-02  0.9695313E-01
          1   -1    0    0  501    0  0.00000000000E+00  0.00000000000E+00  0.10152799750E+04  0.10152799750E+04  0.00000000000E+00 0. -1.
         -1   -1    0    0    0  501 -0.00000000000E+00 -0.00000000000E+00 -0.65938106260E+03  0.65938106260E+03  0.00000000000E+00 0.  1.
         23    2    1    2    0    0 -0.41094456659E+03 -0.56677225747E+03  0.74819903071E+02  0.71047524598E+03  0.95240897697E+02 0.  0.
    5000000    2    1    2    0    0  0.41094456659E+03  0.56677225747E+03  0.28107900936E+03  0.96418579164E+03  0.60045199862E+03 0.  0.
         23    2    4    4    0    0  0.88925901632E+02  0.18751669333E+03  0.38542907600E+03  0.44702431573E+03  0.90580571717E+02 0.  0.
         23    2    4    4    0    0  0.32201866496E+03  0.37925556414E+03 -0.10435006664E+03  0.51716147591E+03  0.95059203877E+02 0.  0.
          2    1    3    3  502    0 -0.37956487837E+03 -0.48416013493E+03  0.86781551618E+02  0.62129829458E+03  0.00000000000E+00 0. -1.
         -2    1    3    3    0  502 -0.31379688225E+02 -0.82612122546E+02 -0.11961648547E+02  0.89176951398E+02  0.00000000000E+00 0.  1.
         13    1    5    5    0    0  0.10193142130E+03  0.18527354605E+03  0.34660997962E+03  0.40602312678E+03  0.00000000000E+00 0.  1.
        -13    1    5    5    0    0 -0.13005519664E+02  0.22431472832E+01  0.38819096379E+02  0.41001188948E+02  0.00000000000E+00 0. -1.
          2    1    6    6  503    0  0.18151743268E+03  0.20384284927E+03 -0.10491246862E+03  0.29241599073E+03  0.00000000000E+00 0. -1.
         -2    1    6    6    0  503  0.14050123228E+03  0.17541271487E+03  0.56240197813E+00  0.22474548518E+03  0.00000000000E+00 0.  1.
<mgrwt>
<rscale>  0 0.71296559E+03</rscale>
<asrwt>0</asrwt>
<pdfrwt beam="1">  1        1 0.15619692E+00 0.71296559E+03</pdfrwt>
<pdfrwt beam="2">  1       -1 0.10144324E+00 0.71296559E+03</pdfrwt>
<totfact> 0.14066666E+01</totfact>
</mgrwt>
</event>
<event>
12    1  0.1335216E-007  0.1448236E+04  0.7818608E-02  0.8919624E-01
          2   -1    0    0  501    0  0.00000000000E+00  0.00000000000E+00  0.50304746637E+04  0.50304746637E+04  0.00000000000E+00 0. -1.
         -2   -1    0    0    0  501 -0.00000000000E+00 -0.00000000000E+00 -0.42400961784E+03  0.42400961784E+03  0.00000000000E+00 0.  1.
         23    2    1    2    0    0 -0.51465100833E+03  0.12966186171E+04  0.23598264303E+04  0.27427630576E+04  0.88785757290E+02 0.  0.
    5000000    2    1    2    0    0  0.51465100833E+03 -0.12966186171E+04  0.22466386156E+04  0.27117212239E+04  0.59996785640E+03 0.  0.
         23    2    4    4    0    0  0.62157585950E+03 -0.10485065519E+04  0.16764948434E+04  0.20747436091E+04  0.90573424012E+02 0.  0.
         23    2    4    4    0    0 -0.10692485117E+03 -0.24811206515E+03  0.57014377224E+03  0.63697761484E+03  0.87658656764E+02 0.  0.
          3    1    3    3  502    0 -0.30271244735E+03  0.86213015116E+03  0.15839577967E+04  0.18286130058E+04  0.00000000000E+00 0. -1.
         -3    1    3    3    0  502 -0.21193856098E+03  0.43448846592E+03  0.77586863356E+03  0.91415005179E+03  0.00000000000E+00 0.  1.
         11    1    5    5    0    0  0.28119927615E+03 -0.49218069201E+03  0.85498424016E+03  0.10258230439E+04  0.00000000000E+00 0.  1.
        -11    1    5    5    0    0  0.34037658335E+03 -0.55632585993E+03  0.82151060320E+03  0.10489205652E+04  0.00000000000E+00 0. -1.
          1    1    6    6  503    0 -0.64224934247E+02 -0.21993742620E+03  0.42109204542E+03  0.47939109748E+03  0.00000000000E+00 0. -1.
         -1    1    6    6    0  503 -0.42699916925E+02 -0.28174638947E+02  0.14905172682E+03  0.15758651736E+03  0.00000000000E+00 0.  1.
<mgrwt>
<rscale>  0 0.14482364E+04</rscale>
<asrwt>0</asrwt>
<pdfrwt beam="1">  1        2 0.77391914E+00 0.14482364E+04</pdfrwt>
<pdfrwt beam="2">  1       -2 0.65232252E-01 0.14482364E+04</pdfrwt>
<totfact> 0.68868292E-02</totfact>
</mgrwt>
</event>
<event>
12    1  0.1335216E-007  0.8579346E+03  0.7818608E-02  0.9479749E-01
         -2   -1    0    0    0  501 -0.00000000000E+00  0.00000000000E+00  0.35462878554E+03  0.35462878554E+03  0.00000000000E+00 0.  1.
          2   -1    0    0  501    0  0.00000000000E+00 -0.00000000000E+00 -0.33343839945E+04  0.33343839945E+04  0.00000000000E+00 0. -1.
         23    2    1    2    0    0  0.59539738793E+03  0.60983852978E+03 -0.48418148360E+03  0.98451008021E+03  0.91800365005E+02 0.  0.
    5000000    2    1    2    0    0 -0.59539738793E+03 -0.60983852978E+03 -0.24955737254E+04  0.27045026998E+04  0.60003795936E+03 0.  0.
         23    2    4    4    0    0 -0.23729510344E+03 -0.20244284885E+03 -0.17413360534E+04  0.17714180889E+04  0.91535357424E+02 0.  0.
         23    2    4    4    0    0 -0.35810228449E+03 -0.40739568093E+03 -0.75423767199E+03  0.93308461095E+03  0.86970905158E+02 0.  0.
          4    1    3    3  502    0  0.12654214252E+03  0.13553597374E+03 -0.15023482888E+03  0.23864915215E+03  0.00000000000E+00 0.  1.
         -4    1    3    3    0  502  0.46885524541E+03  0.47430255604E+03 -0.33394665472E+03  0.74586092806E+03  0.00000000000E+00 0. -1.
         11    1    5    5    0    0 -0.10465818495E+03 -0.13712574827E+03 -0.78576871820E+03  0.80448075491E+03  0.00000000000E+00 0.  1.
        -11    1    5    5    0    0 -0.13263691849E+03 -0.65317100582E+02 -0.95556733516E+03  0.96693733395E+03  0.00000000000E+00 0. -1.
          2    1    6    6  503    0 -0.14830857319E+03 -0.14755947397E+03 -0.36034093894E+03  0.41667112152E+03  0.00000000000E+00 0. -1.
         -2    1    6    6    0  503 -0.20979371130E+03 -0.25983620696E+03 -0.39389673305E+03  0.51641348942E+03  0.00000000000E+00 0.  1.
<mgrwt>
<rscale>  0 0.85793461E+03</rscale>
<asrwt>0</asrwt>
<pdfrwt beam="1">  1        2 0.51298217E+00 0.85793461E+03</pdfrwt>
<pdfrwt beam="2">  1       -2 0.54558273E-01 0.85793461E+03</pdfrwt>
<totfact> 0.35286478E+00</totfact>
</mgrwt>
</event>
<event>
12    1  0.1335216E-007  0.6397356E+03  0.7818608E-02  0.9826233E-01
          2   -1    0    0  501    0  0.00000000000E+00  0.00000000000E+00  0.84823888924E+03  0.84823888924E+03  0.00000000000E+00 0.  1.
         -2   -1    0    0    0  501 -0.00000000000E+00 -0.00000000000E+00 -0.74084961804E+03  0.74084961804E+03  0.00000000000E+00 0. -1.
         23    2    1    2    0    0 -0.34356602121E+03  0.41340260230E+03  0.45630859360E+03  0.71123610335E+03  0.93273466766E+02 0.  0.
    5000000    2    1    2    0    0  0.34356602121E+03 -0.41340260230E+03 -0.34891932240E+03  0.87785240393E+03  0.59995068717E+03 0.  0.
         23    2    4    4    0    0  0.76573110098E+02  0.10779861752E+03  0.47946868107E+02  0.16439457962E+03  0.85104009988E+02 0.  0.
         23    2    4    4    0    0  0.26699291111E+03 -0.52120121982E+03 -0.39686619050E+03  0.71345782432E+03  0.92646466656E+02 0.  0.
          2    1    3    3  502    0 -0.25258036821E+03  0.36093105889E+03  0.36843273673E+03  0.57429152281E+03  0.00000000000E+00 0. -1.
         -2    1    3    3    0  502 -0.90985653001E+02  0.52471543408E+02  0.87875856864E+02  0.13694458054E+03  0.00000000000E+00 0.  1.
         11    1    5    5    0    0  0.41683220479E+02  0.10507223257E+03  0.11108045316E+02  0.11358280503E+03  0.00000000000E+00 0.  1.
        -11    1    5    5    0    0  0.34889889618E+02  0.27263849542E+01  0.36838822791E+02  0.50811774591E+02  0.00000000000E+00 0. -1.
          3    1    6    6  503    0  0.15118163161E+03 -0.31413136952E+03 -0.18151558656E+03  0.39304237840E+03  0.00000000000E+00 0. -1.
         -3    1    6    6    0  503  0.11581127951E+03 -0.20706985030E+03 -0.21535060394E+03  0.32041544592E+03  0.00000000000E+00 0.  1.
<mgrwt>
<rscale>  0 0.63973559E+03</rscale>
<asrwt>0</asrwt>
<pdfrwt beam="1">  1        2 0.13049829E+00 0.63973559E+03</pdfrwt>
<pdfrwt beam="2">  1       -2 0.11397686E+00 0.63973559E+03</pdfrwt>
<totfact> 0.19703128E+01</totfact>
</mgrwt>
</event>
<event>
12    1  0.1335216E-007  0.6980188E+03  0.7818608E-02  0.9720626E-01
          1   -1    0    0  501    0  0.00000000000E+00  0.00000000000E+00  0.21327794416E+04  0.21327794416E+04  0.00000000000E+00 0. -1.
         -1   -1    0    0    0  501 -0.00000000000E+00 -0.00000000000E+00 -0.25893330702E+03  0.25893330702E+03  0.00000000000E+00 0.  1.
         23    2    1    2    0    0  0.17757192341E+03  0.55877000243E+03  0.11034936759E+04  0.12527593443E+04  0.89173866693E+02 0.  0.
    5000000    2    1    2    0    0 -0.17757192341E+03 -0.55877000243E+03  0.77035245866E+03  0.11389534042E+04  0.60001353557E+03 0.  0.
         23    2    4    4    0    0  0.12426273453E+03 -0.46068065147E+03  0.58661305760E+03  0.76164348848E+03  0.91203258501E+02 0.  0.
         23    2    4    4    0    0 -0.30183465794E+03 -0.98089350959E+02  0.18373940106E+03  0.37730991577E+03  0.88752033921E+02 0.  0.
          1    1    3    3  502    0  0.14974560227E+03  0.33983480420E+03  0.72665620406E+03  0.81605188465E+03  0.00000000000E+00 0. -1.
         -1    1    3    3    0  502  0.27826321146E+02  0.21893519823E+03  0.37683747183E+03  0.43670745969E+03  0.00000000000E+00 0.  1.
         13    1    5    5    0    0  0.61330135092E+02 -0.37208687347E+03  0.45387729478E+03  0.59009713234E+03  0.00000000000E+00 0. -1.
        -13    1    5    5    0    0  0.62932599439E+02 -0.88593777997E+02  0.13273576282E+03  0.17154635614E+03  0.00000000000E+00 0.  1.
          4    1    6    6  503    0 -0.18966675084E+03 -0.49927617489E+02  0.63973328559E+02  0.20629791596E+03  0.00000000000E+00 0. -1.
         -4    1    6    6    0  503 -0.11216790710E+03 -0.48161733471E+02  0.11976607250E+03  0.17101199980E+03  0.00000000000E+00 0.  1.
<mgrwt>
<rscale>  0 0.69801884E+03</rscale>
<asrwt>0</asrwt>
<pdfrwt beam="1">  1        1 0.32811990E+00 0.69801884E+03</pdfrwt>
<pdfrwt beam="2">  1       -1 0.39835895E-01 0.69801884E+03</pdfrwt>
<totfact> 0.15644438E+01</totfact>
</mgrwt>
</event>
<event>
12    1  0.1335216E-007  0.9522946E+03  0.7818608E-02  0.9362473E-01
          2   -1    0    0  501    0  0.00000000000E+00  0.00000000000E+00  0.11328440448E+04  0.11328440448E+04  0.00000000000E+00 0.  1.
         -2   -1    0    0    0  501 -0.00000000000E+00 -0.00000000000E+00 -0.97509098861E+03  0.97509098861E+03  0.00000000000E+00 0. -1.
         23    2    1    2    0    0  0.61034674841E+03  0.60938532340E+03 -0.35714545200E+03  0.93789645862E+03  0.90682233882E+02 0.  0.
    5000000    2    1    2    0    0 -0.61034674841E+03 -0.60938532340E+03  0.51489850815E+03  0.11700385747E+04  0.59999680586E+03 0.  0.
         23    2    4    4    0    0 -0.47468931771E+03 -0.74371255342E+02  0.28333382627E+03  0.56510870061E+03  0.90602176712E+02 0.  0.
         23    2    4    4    0    0 -0.13565743070E+03 -0.53501406806E+03  0.23156468188E+03  0.60492987414E+03  0.87606844568E+02 0.  0.
          1    1    3    3  502    0  0.37608517156E+03  0.32106425447E+03 -0.22877354719E+03  0.54484827949E+03  0.00000000000E+00 0. -1.
         -1    1    3    3    0  502  0.23426157685E+03  0.28832106893E+03 -0.12837190481E+03  0.39304817913E+03  0.00000000000E+00 0.  1.
         13    1    5    5    0    0 -0.20997864070E+03 -0.37627402524E+02  0.17806726977E+03  0.27787551806E+03  0.00000000000E+00 0.  1.
        -13    1    5    5    0    0 -0.26471067700E+03 -0.36743852817E+02  0.10526655650E+03  0.28723318255E+03  0.00000000000E+00 0. -1.
          2    1    6    6  503    0 -0.76904399114E+02 -0.15004977486E+03  0.85171926893E+02  0.18890071114E+03  0.00000000000E+00 0. -1.
         -2    1    6    6    0  503 -0.58753031589E+02 -0.38496429320E+03  0.14639275498E+03  0.41602916301E+03  0.00000000000E+00 0.  1.
<mgrwt>
<rscale>  0 0.95229461E+03</rscale>
<asrwt>0</asrwt>
<pdfrwt beam="1">  1        2 0.17428370E+00 0.95229461E+03</pdfrwt>
<pdfrwt beam="2">  1       -2 0.15001400E+00 0.95229461E+03</pdfrwt>
<totfact> 0.62055354E+00</totfact>
</mgrwt>
</event>
<event>
12    1  0.1335216E-007  0.3743238E+03  0.7818608E-02  0.1053052E+00
         -2   -1    0    0    0  501 -0.00000000000E+00  0.00000000000E+00  0.38311583166E+03  0.38311583166E+03  0.00000000000E+00 0.  1.
          2   -1    0    0  501    0  0.00000000000E+00 -0.00000000000E+00 -0.90288845708E+03  0.90288845708E+03  0.00000000000E+00 0. -1.
         23    2    1    2    0    0  0.15990435219E+03 -0.18390525628E+03 -0.57990926405E+03  0.63531385963E+03  0.89097702371E+02 0.  0.
    5000000    2    1    2    0    0 -0.15990435219E+03  0.18390525628E+03  0.60136638627E+02  0.65069042911E+03  0.60032580662E+03 0.  0.
         23    2    4    4    0    0 -0.12450976342E+03  0.31324547387E+03  0.22853396271E+03  0.41570537063E+03  0.83413278166E+02 0.  0.
         23    2    4    4    0    0 -0.35394588769E+02 -0.12934021759E+03 -0.16839732408E+03  0.23498505848E+03  0.94226589399E+02 0.  0.
          2    1    3    3  502    0  0.42748381100E+02 -0.38610775621E+02 -0.24725025603E+03  0.25387182827E+03  0.00000000000E+00 0. -1.
         -2    1    3    3    0  502  0.11715597109E+03 -0.14529448066E+03 -0.33265900802E+03  0.38144203136E+03  0.00000000000E+00 0.  1.
         11    1    5    5    0    0 -0.12350682519E+03  0.21921595319E+03  0.14810957223E+03  0.29196920281E+03  0.00000000000E+00 0. -1.
        -11    1    5    5    0    0 -0.10029382305E+01  0.94029520684E+02  0.80424390472E+02  0.12373616783E+03  0.00000000000E+00 0.  1.
          1    1    6    6  503    0  0.28317883751E+02 -0.41263732780E+02 -0.27746819502E+02  0.57223108755E+02  0.00000000000E+00 0. -1.
         -1    1    6    6    0  503 -0.63712472520E+02 -0.88076484811E+02 -0.14065050458E+03  0.17776194972E+03  0.00000000000E+00 0.  1.
<mgrwt>
<rscale>  0 0.37432382E+03</rscale>
<asrwt>0</asrwt>
<pdfrwt beam="1">  1        2 0.13890592E+00 0.37432382E+03</pdfrwt>
<pdfrwt beam="2">  1       -2 0.58940897E-01 0.37432382E+03</pdfrwt>
<totfact> 0.82675633E+01</totfact>
</mgrwt>
</event>
<event>
12    1  0.1335216E-007  0.1026913E+04  0.7818608E-02  0.9279510E-01
          1   -1    0    0  501    0  0.00000000000E+00  0.00000000000E+00  0.15374003069E+04  0.15374003069E+04  0.00000000000E+00 0. -1.
         -1   -1    0    0    0  501 -0.00000000000E+00 -0.00000000000E+00 -0.69538019181E+03  0.69538019181E+03  0.00000000000E+00 0.  1.
         23    2    1    2    0    0  0.27868940207E+03  0.90109726257E+03  0.33121377121E+03  0.10037239351E+04  0.90083940302E+02 0.  0.
    5000000    2    1    2    0    0 -0.27868940207E+03 -0.90109726257E+03  0.51080634385E+03  0.12290565635E+04  0.60001071327E+03 0.  0.
         23    2    4    4    0    0  0.17025507210E+03 -0.20053483830E+03  0.95393238102E+02  0.29424896238E+03  0.91003137524E+02 0.  0.
         23    2    4    4    0    0 -0.44894447416E+03 -0.70056242427E+03  0.41541310574E+03  0.93480760116E+03  0.94648568859E+02 0.  0.
          3    1    3    3  502    0  0.16937203772E+03  0.54052527666E+03  0.24530246301E+03  0.61727446102E+03  0.00000000000E+00 0. -1.
         -3    1    3    3    0  502  0.10931736434E+03  0.36057198591E+03  0.85911308198E+02  0.38644947412E+03  0.00000000000E+00 0.  1.
         13    1    5    5    0    0  0.54149028904E+02 -0.13002058741E+03  0.64638275872E+02  0.15496960086E+03  0.00000000000E+00 0.  1.
        -13    1    5    5    0    0  0.11610604319E+03 -0.70514250886E+02  0.30754962231E+02  0.13927936152E+03  0.00000000000E+00 0. -1.
          4    1    6    6  503    0 -0.35727404644E+03 -0.51296749389E+03  0.34765598443E+03  0.71529370021E+03  0.00000000000E+00 0. -1.
         -4    1    6    6    0  503 -0.91670427720E+02 -0.18759493038E+03  0.67757121308E+02  0.21951390095E+03  0.00000000000E+00 0.  1.
<mgrwt>
<rscale>  0 0.10269127E+04</rscale>
<asrwt>0</asrwt>
<pdfrwt beam="1">  1        1 0.23652312E+00 0.10269127E+04</pdfrwt>
<pdfrwt beam="2">  1       -1 0.10698157E+00 0.10269127E+04</pdfrwt>
<totfact> 0.50354165E+00</totfact>
</mgrwt>
</event>
<event>
12    1  0.1335216E-007  0.8013102E+03  0.7818608E-02  0.9558123E-01
          2   -1    0    0  501    0  0.00000000000E+00  0.00000000000E+00  0.28028110221E+04  0.28028110221E+04  0.00000000000E+00 0.  1.
         -2   -1    0    0    0  501 -0.00000000000E+00 -0.00000000000E+00 -0.40044187775E+03  0.40044187775E+03  0.00000000000E+00 0. -1.
         23    2    1    2    0    0 -0.64031742692E+03  0.28250313010E+03  0.86407058012E+02  0.71055637752E+03  0.87233939692E+02 0.  0.
    5000000    2    1    2    0    0  0.64031742692E+03 -0.28250313010E+03  0.23159620863E+04  0.24926965223E+04  0.60003428350E+03 0.  0.
         23    2    4    4    0    0  0.72474282259E+02 -0.31698423507E+03  0.69203480793E+03  0.76939492000E+03  0.85585282924E+02 0.  0.
         23    2    4    4    0    0  0.56784314466E+03  0.34481104966E+02  0.16239272784E+04  0.17233016023E+04  0.94835771447E+02 0.  0.
          4    1    3    3  502    0 -0.40395837420E+03  0.18332032017E+03  0.12485059423E+02  0.44378438975E+03  0.00000000000E+00 0.  1.
         -4    1    3    3    0  502 -0.23635905272E+03  0.99182809928E+02  0.73921998589E+02  0.26677198778E+03  0.00000000000E+00 0. -1.
         11    1    5    5    0    0 -0.13620759473E+02 -0.84933351085E+02  0.13839949731E+03  0.16295281547E+03  0.00000000000E+00 0. -1.
        -11    1    5    5    0    0  0.86095041732E+02 -0.23205088398E+03  0.55363531062E+03  0.60644210452E+03  0.00000000000E+00 0.  1.
          4    1    6    6  503    0  0.21268481323E+03  0.44047943755E+01  0.47747105869E+03  0.52271679127E+03  0.00000000000E+00 0. -1.
         -4    1    6    6    0  503  0.35515833143E+03  0.30076310591E+02  0.11464562197E+04  0.12005848111E+04  0.00000000000E+00 0.  1.
<mgrwt>
<rscale>  0 0.80131023E+03</rscale>
<asrwt>0</asrwt>
<pdfrwt beam="1">  1        2 0.43120168E+00 0.80131023E+03</pdfrwt>
<pdfrwt beam="2">  1       -2 0.61606444E-01 0.80131023E+03</pdfrwt>
<totfact> 0.59187690E+00</totfact>
</mgrwt>
</event>
<event>
12    1  0.1335216E-007  0.5418587E+03  0.7818608E-02  0.1003396E+00
          3   -1    0    0  501    0  0.00000000000E+00  0.00000000000E+00  0.66361538717E+03  0.66361538717E+03  0.00000000000E+00 0. -1.
         -3   -1    0    0    0  501 -0.00000000000E+00 -0.00000000000E+00 -0.45426071521E+03  0.45426071521E+03  0.00000000000E+00 0.  1.
         23    2    1    2    0    0 -0.25991321729E+03  0.26576588326E+03  0.11724143478E+03  0.40621866717E+03  0.11437511224E+03 0.  0.
    5000000    2    1    2    0    0  0.25991321729E+03 -0.26576588326E+03  0.92113237180E+02  0.71165743521E+03  0.59982086609E+03 0.  0.
         23    2    4    4    0    0  0.28836433517E+03 -0.42230279653E+03  0.76774274229E+02  0.52535766687E+03  0.92804887833E+02 0.  0.
         23    2    4    4    0    0 -0.28451117879E+02  0.15653691327E+03  0.15338962951E+02  0.18629976833E+03  0.95702918305E+02 0.  0.
          1    1    3    3  502    0 -0.16862043491E+02  0.82773750106E+02  0.31169963962E+02  0.90041039925E+02  0.00000000000E+00 0. -1.
         -1    1    3    3    0  502 -0.24305117380E+03  0.18299213315E+03  0.86071470822E+02  0.31617762725E+03  0.00000000000E+00 0.  1.
         11    1    5    5    0    0  0.93818956107E+02 -0.21617252942E+03  0.22035198502E+02  0.23668145043E+03  0.00000000000E+00 0. -1.
        -11    1    5    5    0    0  0.19454537906E+03 -0.20613026711E+03  0.54739075727E+02  0.28867621645E+03  0.00000000000E+00 0.  1.
          2    1    6    6  503    0 -0.52148732716E+02  0.77579699151E+02 -0.21638521758E+02  0.95949599625E+02  0.00000000000E+00 0. -1.
         -2    1    6    6    0  503  0.23697614836E+02  0.78957214118E+02  0.36977484709E+02  0.90350168708E+02  0.00000000000E+00 0.  1.
<mgrwt>
<rscale>  0 0.54185872E+03</rscale>
<asrwt>0</asrwt>
<pdfrwt beam="1">  1        3 0.10209468E+00 0.54185872E+03</pdfrwt>
<pdfrwt beam="2">  1       -3 0.69886263E-01 0.54185872E+03</pdfrwt>
<totfact> 0.42654624E+00</totfact>
</mgrwt>
</event>
<event>
12    1  0.1335216E-007  0.1364480E+04  0.7818608E-02  0.8979939E-01
          2   -1    0    0  501    0  0.00000000000E+00  0.00000000000E+00  0.28750580525E+04  0.28750580525E+04  0.00000000000E+00 0. -1.
         -2   -1    0    0    0  501 -0.00000000000E+00 -0.00000000000E+00 -0.14554138056E+04  0.14554138056E+04  0.00000000000E+00 0.  1.
         23    2    1    2    0    0  0.95853853453E+03  0.87865032672E+03  0.23041102129E+04  0.26473350363E+04  0.92932247460E+02 0.  0.
    5000000    2    1    2    0    0 -0.95853853453E+03 -0.87865032672E+03 -0.88446596602E+03  0.16831368218E+04  0.59987248402E+03 0.  0.
         23    2    4    4    0    0 -0.34149083720E+03  0.13069777547E+01 -0.21807218137E+03  0.41526879378E+03  0.90966997961E+02 0.  0.
         23    2    4    4    0    0 -0.61704769733E+03 -0.87995730448E+03 -0.66639378465E+03  0.12678680280E+04  0.91301379025E+02 0.  0.
          3    1    3    3  502    0  0.58379175287E+03  0.56461042277E+03  0.15171953203E+04  0.17208949359E+04  0.00000000000E+00 0. -1.
         -3    1    3    3    0  502  0.37474678165E+03  0.31403990395E+03  0.78691489253E+03  0.92644010045E+03  0.00000000000E+00 0.  1.
         11    1    5    5    0    0  0.15451739923E+01 -0.97364950132E+01 -0.33045095461E+01  0.10397436278E+02  0.00000000000E+00 0. -1.
        -11    1    5    5    0    0 -0.34303601119E+03  0.11043472768E+02 -0.21476767182E+03  0.40487135750E+03  0.00000000000E+00 0.  1.
          2    1    6    6  503    0 -0.13899752357E+03 -0.20615644903E+03 -0.11042262700E+03  0.27205504882E+03  0.00000000000E+00 0. -1.
         -2    1    6    6    0  503 -0.47805017376E+03 -0.67380085545E+03 -0.55597115765E+03  0.99581297922E+03  0.00000000000E+00 0.  1.
<mgrwt>
<rscale>  0 0.13644797E+04</rscale>
<asrwt>0</asrwt>
<pdfrwt beam="1">  1        2 0.44231662E+00 0.13644797E+04</pdfrwt>
<pdfrwt beam="2">  1       -2 0.22390982E+00 0.13644797E+04</pdfrwt>
<totfact> 0.18606019E-01</totfact>
</mgrwt>
</event>
<event>
12    1  0.3343992E-007  0.1379288E+04  0.7818608E-02  0.8968949E-01
         -1   -1    0    0    0  501 -0.00000000000E+00  0.00000000000E+00  0.19139083698E+04  0.19139083698E+04  0.00000000000E+00 0.  1.
          1   -1    0    0  501    0  0.00000000000E+00 -0.00000000000E+00 -0.13436995762E+04  0.13436995762E+04  0.00000000000E+00 0. -1.
         23    2    1    2    0    0  0.30607623272E+02  0.13343167606E+04  0.10681484934E+04  0.17118882528E+04  0.91006272752E+02 0.  0.
    5000000    2    1    2    0    0 -0.30607623272E+02 -0.13343167606E+04 -0.49793969979E+03  0.15457196932E+04  0.59997281683E+03 0.  0.
         23    2    4    4    0    0  0.13761933918E+03 -0.11453388306E+04 -0.53348384801E+03  0.12742064502E+04  0.90867718571E+02 0.  0.
         23    2    4    4    0    0 -0.16822696245E+03 -0.18897793008E+03  0.35544148222E+02  0.27151324300E+03  0.91886265025E+02 0.  0.
          4    1    3    3  502    0 -0.29049840707E+02  0.70226500157E+03  0.56785996597E+03  0.90359557691E+03  0.00000000000E+00 0. -1.
         -4    1    3    3    0  502  0.59657463978E+02  0.63205175907E+03  0.50028852746E+03  0.80829267587E+03  0.00000000000E+00 0.  1.
         11    1    5    5    0    0  0.84478745159E+02 -0.57783293011E+03 -0.31720068653E+03  0.66456288569E+03  0.00000000000E+00 0. -1.
        -11    1    5    5    0    0  0.53140594024E+02 -0.56750590044E+03 -0.21628316148E+03  0.60964356448E+03  0.00000000000E+00 0.  1.
          1    1    6    6  503    0 -0.10790630697E+03 -0.17398426845E+03  0.42095515252E+02  0.20901274879E+03  0.00000000000E+00 0. -1.
         -1    1    6    6    0  503 -0.60320655480E+02 -0.14993661625E+02 -0.65513670305E+01  0.62500494210E+02  0.00000000000E+00 0.  1.
<mgrwt>
<rscale>  0 0.13792883E+04</rscale>
<asrwt>0</asrwt>
<pdfrwt beam="1">  1        1 0.20672301E+00 0.13792883E+04</pdfrwt>
<pdfrwt beam="2">  1       -1 0.29444744E+00 0.13792883E+04</pdfrwt>
<totfact> 0.29019013E-01</totfact>
</mgrwt>
</event>
<event>
12    1  0.1335216E-007  0.5160407E+03  0.7818608E-02  0.1009675E+00
         -1   -1    0    0    0  501 -0.00000000000E+00  0.00000000000E+00  0.17559348707E+04  0.17559348707E+04  0.00000000000E+00 0.  1.
          1   -1    0    0  501    0  0.00000000000E+00 -0.00000000000E+00 -0.22107647019E+03  0.22107647019E+03  0.00000000000E+00 0. -1.
         23    2    1    2    0    0 -0.24861668886E+03  0.38700583894E+03  0.41640665334E+03  0.62707805755E+03  0.90821869370E+02 0.  0.
    5000000    2    1    2    0    0  0.24861668886E+03 -0.38700583894E+03  0.11184517472E+04  0.13499332833E+04  0.59983479506E+03 0.  0.
         23    2    4    4    0    0 -0.10623783364E+02  0.22347250870E+02  0.69182790287E+03  0.69801714546E+03  0.89385814180E+02 0.  0.
         23    2    4    4    0    0  0.25924047222E+03 -0.40935308981E+03  0.42662384431E+03  0.65191613788E+03  0.90615515908E+02 0.  0.
          1    1    3    3  502    0 -0.69017457773E+02  0.91169671517E+02  0.15860270057E+03  0.19552527998E+03  0.00000000000E+00 0. -1.
         -1    1    3    3    0  502 -0.17959923108E+03  0.29583616742E+03  0.25780395277E+03  0.43155277756E+03  0.00000000000E+00 0.  1.
         13    1    5    5    0    0  0.12604835675E+02  0.45957038310E+02  0.22372563344E+03  0.22874459624E+03  0.00000000000E+00 0. -1.
        -13    1    5    5    0    0 -0.23228619039E+02 -0.23609787439E+02  0.46810226943E+03  0.46927254922E+03  0.00000000000E+00 0.  1.
          3    1    6    6  503    0  0.16153552435E+03 -0.18160056249E+03  0.24104262032E+03  0.34230693059E+03  0.00000000000E+00 0. -1.
         -3    1    6    6    0  503  0.97704947876E+02 -0.22775252732E+03  0.18558122399E+03  0.30960920729E+03  0.00000000000E+00 0.  1.
<mgrwt>
<rscale>  0 0.51604072E+03</rscale>
<asrwt>0</asrwt>
<pdfrwt beam="1">  1        1 0.34011766E-01 0.51604072E+03</pdfrwt>
<pdfrwt beam="2">  1       -1 0.27014382E+00 0.51604072E+03</pdfrwt>
<totfact> 0.72529109E+00</totfact>
</mgrwt>
</event>
<event>
12    1  0.1335216E-007  0.2059515E+04  0.7818608E-02  0.8579290E-01
          2   -1    0    0  501    0  0.00000000000E+00  0.00000000000E+00  0.24520686853E+04  0.24520686853E+04  0.00000000000E+00 0. -1.
         -2   -1    0    0    0  501 -0.00000000000E+00 -0.00000000000E+00 -0.19361458097E+04  0.19361458097E+04  0.00000000000E+00 0.  1.
         23    2    1    2    0    0 -0.18544349143E+02 -0.20181591584E+04  0.95925905445E+03  0.22365205556E+04  0.92390368799E+02 0.  0.
    5000000    2    1    2    0    0  0.18544349143E+02  0.20181591584E+04 -0.44333617883E+03  0.21516939394E+04  0.59994129694E+03 0.  0.
         23    2    4    4    0    0  0.28360215502E+03  0.78601814085E+03 -0.13486325884E+03  0.85097835240E+03  0.87871255765E+02 0.  0.
         23    2    4    4    0    0 -0.26505780588E+03  0.12321410176E+04 -0.30847292000E+03  0.13007155870E+04  0.90985538724E+02 0.  0.
          3    1    3    3  502    0 -0.38628451659E+02 -0.36511628937E+03  0.17970282394E+03  0.40877275714E+03  0.00000000000E+00 0. -1.
         -3    1    3    3    0  502  0.20084102516E+02 -0.16530428691E+04  0.77955623051E+03  0.18277477984E+04  0.00000000000E+00 0.  1.
         11    1    5    5    0    0  0.21152182722E+03  0.49011526293E+03 -0.58589485591E+02  0.53701692913E+03  0.00000000000E+00 0.  1.
        -11    1    5    5    0    0  0.72080327797E+02  0.29590287793E+03 -0.76273773245E+02  0.31396142328E+03  0.00000000000E+00 0. -1.
          1    1    6    6  503    0 -0.22247785808E+03  0.10231539706E+04 -0.22063971959E+03  0.10700571624E+04  0.00000000000E+00 0.  1.
         -1    1    6    6    0  503 -0.42579947797E+02  0.20898704694E+03 -0.87833200405E+02  0.23065842459E+03  0.00000000000E+00 0. -1.
<mgrwt>
<rscale>  0 0.20595146E+04</rscale>
<asrwt>0</asrwt>
<pdfrwt beam="1">  1        2 0.37724134E+00 0.20595146E+04</pdfrwt>
<pdfrwt beam="2">  1       -2 0.29786858E+00 0.20595146E+04</pdfrwt>
<totfact> 0.10719400E-01</totfact>
</mgrwt>
</event>
<event>
12    1  0.1335216E-007  0.4867291E+03  0.7818608E-02  0.1017302E+00
         -2   -1    0    0    0  501 -0.00000000000E+00  0.00000000000E+00  0.39645762722E+03  0.39645762722E+03  0.00000000000E+00 0. -1.
          2   -1    0    0  501    0  0.00000000000E+00 -0.00000000000E+00 -0.80913497215E+03  0.80913497215E+03  0.00000000000E+00 0.  1.
         23    2    1    2    0    0  0.37051285115E+03 -0.55370732372E+02 -0.54868137260E+01  0.38947122065E+03  0.10635805434E+03 0.  0.
    5000000    2    1    2    0    0 -0.37051285115E+03  0.55370732372E+02 -0.40719053121E+03  0.81612137872E+03  0.59992023239E+03 0.  0.
         23    2    4    4    0    0 -0.16818945796E+03 -0.19918474552E+03  0.13511594276E+02  0.27691297514E+03  0.92390345855E+02 0.  0.
         23    2    4    4    0    0 -0.20232339319E+03  0.25455547789E+03 -0.42070212548E+03  0.53920840358E+03  0.89566608424E+02 0.  0.
          1    1    3    3  502    0  0.30429883511E+03 -0.31348185237E+02  0.35523976661E+02  0.30796500237E+03  0.00000000000E+00 0. -1.
         -1    1    3    3    0  502  0.66214016035E+02 -0.24022547135E+02 -0.41010790387E+02  0.81506218281E+02  0.00000000000E+00 0.  1.
         13    1    5    5    0    0 -0.17136491650E+03 -0.16751787103E+03  0.29229079822E+02  0.24141771027E+03  0.00000000000E+00 0. -1.
        -13    1    5    5    0    0  0.31754585466E+01 -0.31666874485E+02 -0.15717485545E+02  0.35495264874E+02  0.00000000000E+00 0.  1.
          1    1    6    6  503    0 -0.16822180330E+03  0.22163078459E+03 -0.29817775260E+03  0.40783422114E+03  0.00000000000E+00 0. -1.
         -1    1    6    6    0  503 -0.34101589893E+02  0.32924693303E+02 -0.12252437288E+03  0.13137418244E+03  0.00000000000E+00 0.  1.
<mgrwt>
<rscale>  0 0.48672907E+03</rscale>
<asrwt>0</asrwt>
<pdfrwt beam="1">  1        2 0.12448230E+00 0.48672907E+03</pdfrwt>
<pdfrwt beam="2">  1       -2 0.60993482E-01 0.48672907E+03</pdfrwt>
<totfact> 0.87879944E+01</totfact>
</mgrwt>
</event>
<event>
12    1  0.1335216E-007  0.2050462E+04  0.7818608E-02  0.8583385E-01
          1   -1    0    0  501    0  0.00000000000E+00  0.00000000000E+00  0.25969809918E+04  0.25969809918E+04  0.00000000000E+00 0. -1.
         -1   -1    0    0    0  501 -0.00000000000E+00 -0.00000000000E+00 -0.16755806255E+04  0.16755806255E+04  0.00000000000E+00 0.  1.
         23    2    1    2    0    0 -0.10327677983E+04 -0.17576238759E+04  0.33228892655E+03  0.20673639063E+04  0.87900945968E+02 0.  0.
    5000000    2    1    2    0    0  0.10327677983E+04  0.17576238759E+04  0.58911143972E+03  0.22051977110E+04  0.59999470159E+03 0.  0.
         23    2    4    4    0    0  0.48144032325E+03  0.10843708736E+04  0.79443690119E+02  0.11925893902E+04  0.91176627289E+02 0.  0.
         23    2    4    4    0    0  0.55132747503E+03  0.67325300229E+03  0.50966774960E+03  0.10126083208E+04  0.91557667903E+02 0.  0.
          4    1    3    3  502    0 -0.74818936680E+03 -0.13459703844E+04  0.25952637434E+03  0.15616585873E+04  0.00000000000E+00 0. -1.
         -4    1    3    3    0  502 -0.28457843148E+03 -0.41165349145E+03  0.72762552207E+02  0.50570531903E+03  0.00000000000E+00 0.  1.
         11    1    5    5    0    0  0.33292882824E+03  0.64486688912E+03  0.35719704013E+02  0.72661599667E+03  0.00000000000E+00 0.  1.
        -11    1    5    5    0    0  0.14851149501E+03  0.43950398447E+03  0.43723986106E+02  0.46597339353E+03  0.00000000000E+00 0. -1.
          2    1    6    6  503    0  0.10104207129E+03  0.14544440416E+03  0.14461933199E+03  0.22864454084E+03  0.00000000000E+00 0. -1.
         -2    1    6    6    0  503  0.45028540374E+03  0.52780859813E+03  0.36504841761E+03  0.78396377996E+03  0.00000000000E+00 0.  1.
<mgrwt>
<rscale>  0 0.20504623E+04</rscale>
<asrwt>0</asrwt>
<pdfrwt beam="1">  1        1 0.39953554E+00 0.20504623E+04</pdfrwt>
<pdfrwt beam="2">  1       -1 0.25778163E+00 0.20504623E+04</pdfrwt>
<totfact> 0.63718707E-02</totfact>
</mgrwt>
</event>
<event>
12    1  0.1335216E-007  0.1348617E+04  0.7818608E-02  0.8991876E-01
          1   -1    0    0  501    0  0.00000000000E+00  0.00000000000E+00  0.17523998084E+04  0.17523998084E+04  0.00000000000E+00 0. -1.
         -1   -1    0    0    0  501 -0.00000000000E+00 -0.00000000000E+00 -0.11747073386E+04  0.11747073386E+04  0.00000000000E+00 0.  1.
         23    2    1    2    0    0  0.80066662985E+03 -0.10340862315E+04  0.69468833603E+03  0.14834245069E+04  0.86919486525E+02 0.  0.
    5000000    2    1    2    0    0 -0.80066662985E+03  0.10340862315E+04 -0.11699586628E+03  0.14436826401E+04  0.60010844528E+03 0.  0.
         23    2    4    4    0    0 -0.43309089989E+03  0.88005173199E+03  0.87470903532E+02  0.98872775820E+03  0.88727911770E+02 0.  0.
         23    2    4    4    0    0 -0.36757572996E+03  0.15403449952E+03 -0.20446676981E+03  0.45495488185E+03  0.79616206017E+02 0.  0.
          1    1    3    3  502    0  0.25242328997E+03 -0.39087034306E+03  0.23270474943E+03  0.52023902469E+03  0.00000000000E+00 0. -1.
         -1    1    3    3    0  502  0.54824333988E+03 -0.64321588846E+03  0.46198358659E+03  0.96318548223E+03  0.00000000000E+00 0.  1.
         11    1    5    5    0    0 -0.16141145601E+03  0.39512751777E+03  0.70635375752E+02  0.43263006107E+03  0.00000000000E+00 0. -1.
        -11    1    5    5    0    0 -0.27167944388E+03  0.48492421422E+03  0.16835527780E+02  0.55609769713E+03  0.00000000000E+00 0.  1.
          4    1    6    6  503    0 -0.34751246714E+03  0.12602378994E+03 -0.17238624039E+03  0.40787734225E+03  0.00000000000E+00 0. -1.
         -4    1    6    6    0  503 -0.20063262824E+02  0.28010709582E+02 -0.32080529422E+02  0.47077539596E+02  0.00000000000E+00 0.  1.
<mgrwt>
<rscale>  0 0.13486170E+04</rscale>
<asrwt>0</asrwt>
<pdfrwt beam="1">  1        1 0.26959997E+00 0.13486170E+04</pdfrwt>
<pdfrwt beam="2">  1       -1 0.18072421E+00 0.13486170E+04</pdfrwt>
<totfact> 0.86943168E-01</totfact>
</mgrwt>
</event>
<event>
12    1  0.1335216E-007  0.6877812E+03  0.7818608E-02  0.9738359E-01
         -1   -1    0    0    0  501 -0.00000000000E+00  0.00000000000E+00  0.40721732939E+03  0.40721732939E+03  0.00000000000E+00 0. -1.
          1   -1    0    0  501    0  0.00000000000E+00 -0.00000000000E+00 -0.14761138514E+04  0.14761138514E+04  0.00000000000E+00 0.  1.
         23    2    1    2    0    0  0.37880501278E+03 -0.48858341230E+03 -0.19198862559E+03  0.65383714282E+03  0.91849814857E+02 0.  0.
    5000000    2    1    2    0    0 -0.37880501278E+03  0.48858341230E+03 -0.87690789644E+03  0.12294940380E+04  0.60040081788E+03 0.  0.
         23    2    4    4    0    0 -0.20244852215E+02  0.35285805337E+03 -0.71708962461E+03  0.80471043619E+03  0.91775250073E+02 0.  0.
         23    2    4    4    0    0 -0.35856016057E+03  0.13572535894E+03 -0.15981827182E+03  0.42478360179E+03  0.88952046265E+02 0.  0.
          2    1    3    3  502    0  0.23060127217E+03 -0.32165687985E+03 -0.78760561181E+02  0.40353850012E+03  0.00000000000E+00 0. -1.
         -2    1    3    3    0  502  0.14820374061E+03 -0.16692653245E+03 -0.11322806441E+03  0.25029864270E+03  0.00000000000E+00 0.  1.
         11    1    5    5    0    0 -0.54281549567E+02  0.21332761609E+03 -0.39880513199E+03  0.45552243821E+03  0.00000000000E+00 0. -1.
        -11    1    5    5    0    0  0.34036697352E+02  0.13953043728E+03 -0.31828449262E+03  0.34918799799E+03  0.00000000000E+00 0.  1.
          2    1    6    6  503    0 -0.11225256684E+03  0.14041489192E+01 -0.57721663582E+02  0.12623153664E+03  0.00000000000E+00 0. -1.
         -2    1    6    6    0  503 -0.24630759372E+03  0.13432121002E+03 -0.10209660824E+03  0.29855206514E+03  0.00000000000E+00 0.  1.
<mgrwt>
<rscale>  0 0.68778120E+03</rscale>
<asrwt>0</asrwt>
<pdfrwt beam="1">  1        1 0.22709444E+00 0.68778120E+03</pdfrwt>
<pdfrwt beam="2">  1       -1 0.62648820E-01 0.68778120E+03</pdfrwt>
<totfact> 0.18335321E+01</totfact>
</mgrwt>
</event>
<event>
12    1  0.1335216E-007  0.6502846E+03  0.7818608E-02  0.9806245E-01
         -1   -1    0    0    0  501 -0.00000000000E+00  0.00000000000E+00  0.19195849591E+03  0.19195849591E+03  0.00000000000E+00 0.  1.
          1   -1    0    0  501    0  0.00000000000E+00 -0.00000000000E+00 -0.22637941798E+04  0.22637941798E+04  0.00000000000E+00 0. -1.
         23    2    1    2    0    0  0.42699044965E+03 -0.28836586402E+03 -0.73501977438E+03  0.90247191139E+03  0.93411811357E+02 0.  0.
    5000000    2    1    2    0    0 -0.42699044965E+03  0.28836586402E+03 -0.13368159095E+04  0.15532807643E+04  0.60010719147E+03 0.  0.
         23    2    4    4    0    0 -0.40373112745E+03  0.43874481491E+03 -0.11290412878E+04  0.12800804985E+04  0.91520583369E+02 0.  0.
         23    2    4    4    0    0 -0.23259322198E+02 -0.15037895089E+03 -0.20777462161E+03  0.27320026574E+03  0.91177118149E+02 0.  0.
          4    1    3    3  502    0  0.31791836382E+03 -0.25132283638E+03 -0.52842959456E+03  0.66593775276E+03  0.00000000000E+00 0. -1.
         -4    1    3    3    0  502  0.10907208583E+03 -0.37043027640E+02 -0.20659017982E+03  0.23653415863E+03  0.00000000000E+00 0.  1.
         11    1    5    5    0    0 -0.33134767567E+03  0.40447838311E+03 -0.99153789984E+03  0.11209555974E+04  0.00000000000E+00 0. -1.
        -11    1    5    5    0    0 -0.72383451776E+02  0.34266431794E+02 -0.13750338800E+03  0.15912490110E+03  0.00000000000E+00 0.  1.
          4    1    6    6  503    0 -0.56970096254E+02 -0.71782048577E+02 -0.10052948095E+03  0.13603099244E+03  0.00000000000E+00 0. -1.
         -4    1    6    6    0  503  0.33710774057E+02 -0.78596902312E+02 -0.10724514066E+03  0.13716927330E+03  0.00000000000E+00 0.  1.
<mgrwt>
<rscale>  0 0.65028456E+03</rscale>
<asrwt>0</asrwt>
<pdfrwt beam="1">  1        1 0.34827602E+00 0.65028456E+03</pdfrwt>
<pdfrwt beam="2">  1       -1 0.29532077E-01 0.65028456E+03</pdfrwt>
<totfact> 0.21902601E+01</totfact>
</mgrwt>
</event>
<event>
12    1  0.1335216E-007  0.9284034E+03  0.7818608E-02  0.9390756E-01
          2   -1    0    0  501    0  0.00000000000E+00  0.00000000000E+00  0.51559999555E+03  0.51559999555E+03  0.00000000000E+00 0. -1.
         -2   -1    0    0    0  501 -0.00000000000E+00 -0.00000000000E+00 -0.18558668903E+04  0.18558668903E+04  0.00000000000E+00 0.  1.
         23    2    1    2    0    0  0.48764584664E+03 -0.72498588274E+03 -0.44874605035E+03  0.98650943518E+03  0.91786960274E+02 0.  0.
    5000000    2    1    2    0    0 -0.48764584664E+03  0.72498588274E+03 -0.89152084437E+03  0.13849574506E+04  0.59991226210E+03 0.  0.
         23    2    4    4    0    0 -0.53309258648E+03  0.45666638937E+03 -0.83152622852E+03  0.10918568660E+04  0.89351274040E+02 0.  0.
         23    2    4    4    0    0  0.45446739838E+02  0.26831949337E+03 -0.59994615848E+02  0.29310058464E+03  0.90817631003E+02 0.  0.
          2    1    3    3  502    0  0.29839897156E+03 -0.43941714944E+03 -0.32253417292E+03  0.62141585927E+03  0.00000000000E+00 0. -1.
         -2    1    3    3    0  502  0.18924687508E+03 -0.28556873331E+03 -0.12621187743E+03  0.36509357591E+03  0.00000000000E+00 0.  1.
         11    1    5    5    0    0 -0.23492803850E+03  0.25769765158E+03 -0.42941415148E+03  0.55316884981E+03  0.00000000000E+00 0.  1.
        -11    1    5    5    0    0 -0.29816454798E+03  0.19896873779E+03 -0.40211207704E+03  0.53868801620E+03  0.00000000000E+00 0. -1.
          1    1    6    6  503    0  0.98437606159E+01  0.18535525112E+03 -0.16802476326E+01  0.18562406087E+03  0.00000000000E+00 0. -1.
         -1    1    6    6    0  503  0.35602979222E+02  0.82964242248E+02 -0.58314368216E+02  0.10747652377E+03  0.00000000000E+00 0.  1.
<mgrwt>
<rscale>  0 0.92840339E+03</rscale>
<asrwt>0</asrwt>
<pdfrwt beam="1">  1        2 0.79323077E-01 0.92840339E+03</pdfrwt>
<pdfrwt beam="2">  1       -2 0.28551798E+00 0.92840339E+03</pdfrwt>
<totfact> 0.23457107E+00</totfact>
</mgrwt>
</event>
<event>
12    1  0.1335216E-007  0.1783891E+04  0.7818608E-02  0.8714913E-01
         -2   -1    0    0    0  501 -0.00000000000E+00  0.00000000000E+00  0.93273650659E+03  0.93273650659E+03  0.00000000000E+00 0.  1.
          2   -1    0    0  501    0  0.00000000000E+00 -0.00000000000E+00 -0.35748858369E+04  0.35748858369E+04  0.00000000000E+00 0. -1.
         23    2    1    2    0    0 -0.91011466712E+03  0.15207655311E+04 -0.14160452425E+04  0.22706642277E+04  0.98465214160E+02 0.  0.
    5000000    2    1    2    0    0  0.91011466712E+03 -0.15207655311E+04 -0.12261040878E+04  0.22369581157E+04  0.59967813809E+03 0.  0.
         23    2    4    4    0    0  0.48567775712E+03 -0.58121208933E+03 -0.21938036645E+03  0.79317825742E+03  0.85519742275E+02 0.  0.
         23    2    4    4    0    0  0.42443691000E+03 -0.93955344181E+03 -0.10067237213E+04  0.14437798583E+04  0.90001486021E+02 0.  0.
          1    1    3    3  502    0 -0.79382344189E+03  0.12630090772E+04 -0.11705041234E+04  0.18961612508E+04  0.00000000000E+00 0. -1.
         -1    1    3    3    0  502 -0.11629122523E+03  0.25775645391E+03 -0.24554111907E+03  0.37450297696E+03  0.00000000000E+00 0.  1.
         11    1    5    5    0    0  0.33869771660E+03 -0.36075296547E+03 -0.17290165201E+03  0.52416965440E+03  0.00000000000E+00 0.  1.
        -11    1    5    5    0    0  0.14698004051E+03 -0.22045912386E+03 -0.46478714446E+02  0.26900860302E+03  0.00000000000E+00 0. -1.
          2    1    6    6  503    0  0.32767966411E+03 -0.79076982514E+03 -0.80413837575E+03  0.11744485540E+04  0.00000000000E+00 0. -1.
         -2    1    6    6    0  503  0.96757245897E+02 -0.14878361667E+03 -0.20258534560E+03  0.26933130430E+03  0.00000000000E+00 0.  1.
<mgrwt>
<rscale>  0 0.17838912E+04</rscale>
<asrwt>0</asrwt>
<pdfrwt beam="1">  1        2 0.54998244E+00 0.17838912E+04</pdfrwt>
<pdfrwt beam="2">  1       -2 0.14349792E+00 0.17838912E+04</pdfrwt>
<totfact> 0.22396593E-01</totfact>
</mgrwt>
</event>
<event>
12    1  0.1335216E-007  0.1237141E+04  0.7818608E-02  0.9080954E-01
         -2   -1    0    0    0  501 -0.00000000000E+00  0.00000000000E+00  0.12701558103E+04  0.12701558103E+04  0.00000000000E+00 0.  1.
          2   -1    0    0  501    0  0.00000000000E+00 -0.00000000000E+00 -0.16942874074E+04  0.16942874074E+04  0.00000000000E+00 0. -1.
         23    2    1    2    0    0 -0.10682294813E+04  0.54813185594E+03  0.53190361256E+03  0.13164718212E+04  0.92810811359E+02 0.  0.
    5000000    2    1    2    0    0  0.10682294813E+04 -0.54813185594E+03 -0.95603520968E+03  0.16479713964E+04  0.60020300310E+03 0.  0.
         23    2    4    4    0    0  0.52445813642E+02 -0.17181702574E+03  0.12202611791E+01  0.19977640351E+03  0.87392612152E+02 0.  0.
         23    2    4    4    0    0  0.10157836677E+04 -0.37631483020E+03 -0.95725547086E+03  0.14481949929E+04  0.86610564996E+02 0.  0.
          1    1    3    3  502    0 -0.15467544295E+03  0.86037017857E+02  0.44001781157E+02  0.18238151726E+03  0.00000000000E+00 0. -1.
         -1    1    3    3    0  502 -0.91355403839E+03  0.46209483809E+03  0.48790183140E+03  0.11340903040E+04  0.00000000000E+00 0.  1.
         11    1    5    5    0    0  0.19211681404E+02 -0.14621177526E+03 -0.26031458603E+02  0.14974848502E+03  0.00000000000E+00 0.  1.
        -11    1    5    5    0    0  0.33234132238E+02 -0.25605250479E+02  0.27251719782E+02  0.50027918493E+02  0.00000000000E+00 0. -1.
          1    1    6    6  503    0  0.84829453487E+03 -0.29711635696E+03 -0.75429213141E+03  0.11733875604E+04  0.00000000000E+00 0. -1.
         -1    1    6    6    0  503  0.16748913283E+03 -0.79198473240E+02 -0.20296333945E+03  0.27480743247E+03  0.00000000000E+00 0.  1.
<mgrwt>
<rscale>  0 0.12371414E+04</rscale>
<asrwt>0</asrwt>
<pdfrwt beam="1">  1        2 0.26065960E+00 0.12371414E+04</pdfrwt>
<pdfrwt beam="2">  1       -2 0.19540859E+00 0.12371414E+04</pdfrwt>
<totfact> 0.13612552E+00</totfact>
</mgrwt>
</event>
<event>
12    1  0.1335216E-007  0.6011930E+03  0.7818608E-02  0.9902934E-01
          2   -1    0    0  501    0  0.00000000000E+00  0.00000000000E+00  0.14945345825E+04  0.14945345825E+04  0.00000000000E+00 0. -1.
         -2   -1    0    0    0  501 -0.00000000000E+00 -0.00000000000E+00 -0.30884444668E+03  0.30884444668E+03  0.00000000000E+00 0.  1.
         23    2    1    2    0    0  0.15786529038E+03 -0.44525999401E+03  0.11757073217E+03  0.49036420476E+03  0.58789999815E+02 0.  0.
    5000000    2    1    2    0    0 -0.15786529038E+03  0.44525999401E+03  0.10681194036E+04  0.13130148244E+04  0.59995912904E+03 0.  0.
         23    2    4    4    0    0 -0.40533044340E+02  0.56131198544E+03  0.74526317321E+03  0.93829121749E+03  0.90879804118E+02 0.  0.
         23    2    4    4    0    0 -0.11733224604E+03 -0.11605199143E+03  0.32285623041E+03  0.37472360690E+03  0.94587078304E+02 0.  0.
          3    1    3    3  502    0  0.24011353582E+02 -0.12612081726E+03  0.14123714843E+02  0.12916069436E+03  0.00000000000E+00 0. -1.
         -3    1    3    3    0  502  0.13385393680E+03 -0.31913917675E+03  0.10344701733E+03  0.36120351040E+03  0.00000000000E+00 0.  1.
         13    1    5    5    0    0 -0.51861586745E+01  0.69520596236E+02  0.49356345121E+02  0.85416967556E+02  0.00000000000E+00 0. -1.
        -13    1    5    5    0    0 -0.35346885666E+02  0.49179138920E+03  0.69590682809E+03  0.85287424994E+03  0.00000000000E+00 0.  1.
          2    1    6    6  503    0 -0.32098724106E+02 -0.35815036790E+02  0.23979457744E+02  0.53740667499E+02  0.00000000000E+00 0. -1.
         -2    1    6    6    0  503 -0.85233521932E+02 -0.80236954637E+02  0.29887677266E+03  0.32098293940E+03  0.00000000000E+00 0.  1.
<mgrwt>
<rscale>  0 0.60119297E+03</rscale>
<asrwt>0</asrwt>
<pdfrwt beam="1">  1        2 0.22992839E+00 0.60119297E+03</pdfrwt>
<pdfrwt beam="2">  1       -2 0.47514531E-01 0.60119297E+03</pdfrwt>
<totfact> 0.55746017E+01</totfact>
</mgrwt>
</event>
<event>
12    1  0.1335216E-007  0.1289985E+04  0.7818608E-02  0.9037545E-01
          1   -1    0    0  501    0  0.00000000000E+00  0.00000000000E+00  0.23508127645E+04  0.23508127645E+04  0.00000000000E+00 0. -1.
         -1   -1    0    0    0  501 -0.00000000000E+00 -0.00000000000E+00 -0.76487234617E+03  0.76487234617E+03  0.00000000000E+00 0.  1.
         23    2    1    2    0    0 -0.10359988219E+04 -0.70058958720E+03  0.10245918366E+04  0.16193987355E+04  0.92436488097E+02 0.  0.
    5000000    2    1    2    0    0  0.10359988219E+04  0.70058958720E+03  0.56134858167E+03  0.14962863751E+04  0.59970105678E+03 0.  0.
         23    2    4    4    0    0  0.50857720410E+03  0.59370309241E+03  0.12448291582E+03  0.79727530767E+03  0.94962020913E+02 0.  0.
         23    2    4    4    0    0  0.52742161779E+03  0.10688649480E+03  0.43686566584E+03  0.69901106743E+03  0.90369113729E+02 0.  0.
          4    1    3    3  502    0 -0.55197760955E+03 -0.34745413108E+03  0.48108504996E+03  0.81046065910E+03  0.00000000000E+00 0. -1.
         -4    1    3    3    0  502 -0.48402121234E+03 -0.35313545612E+03  0.54350678667E+03  0.80893807645E+03  0.00000000000E+00 0.  1.
         13    1    5    5    0    0  0.45284555313E+03  0.48395004154E+03  0.12345022812E+03  0.67417853460E+03  0.00000000000E+00 0. -1.
        -13    1    5    5    0    0  0.55731650974E+02  0.10975305087E+03  0.10326877051E+01  0.12309677307E+03  0.00000000000E+00 0.  1.
          1    1    6    6  503    0  0.23846831931E+03  0.84112845351E+02  0.23998787525E+03  0.34862055352E+03  0.00000000000E+00 0. -1.
         -1    1    6    6    0  503  0.28895329848E+03  0.22773649446E+02  0.19687779059E+03  0.35039051391E+03  0.00000000000E+00 0.  1.
<mgrwt>
<rscale>  0 0.12899846E+04</rscale>
<asrwt>0</asrwt>
<pdfrwt beam="1">  1        1 0.36166350E+00 0.12899846E+04</pdfrwt>
<pdfrwt beam="2">  1       -1 0.11767267E+00 0.12899846E+04</pdfrwt>
<totfact> 0.10889497E+00</totfact>
</mgrwt>
</event>
<event>
12    1  0.1335216E-007  0.1533895E+04  0.7818608E-02  0.8862221E-01
          2   -1    0    0  501    0  0.00000000000E+00  0.00000000000E+00  0.15159090999E+04  0.15159090999E+04  0.00000000000E+00 0. -1.
         -2   -1    0    0    0  501 -0.00000000000E+00 -0.00000000000E+00 -0.16316956548E+04  0.16316956548E+04  0.00000000000E+00 0.  1.
         23    2    1    2    0    0 -0.14130135546E+04  0.54273712066E+03 -0.83082221334E+02  0.15191254479E+04  0.98328955938E+02 0.  0.
    5000000    2    1    2    0    0  0.14130135546E+04 -0.54273712066E+03 -0.32704333650E+02  0.16284793068E+04  0.59975360907E+03 0.  0.
         23    2    4    4    0    0  0.91357996068E+02 -0.24088460340E+01 -0.14487079929E+03  0.19320316995E+03  0.89374663123E+02 0.  0.
         23    2    4    4    0    0  0.13216555585E+04 -0.54032827463E+03  0.11216646564E+03  0.14352761368E+04  0.93317807669E+02 0.  0.
          1    1    3    3  502    0 -0.76291726165E+03  0.25611680019E+03 -0.91394260406E+01  0.80481183675E+03  0.00000000000E+00 0. -1.
         -1    1    3    3    0  502 -0.65009629290E+03  0.28662032047E+03 -0.73942795293E+02  0.71431361118E+03  0.00000000000E+00 0.  1.
         11    1    5    5    0    0  0.59804049811E+02  0.39848771658E+02 -0.10431931256E+03  0.12667662748E+03  0.00000000000E+00 0.  1.
        -11    1    5    5    0    0  0.31553946257E+02 -0.42257617692E+02 -0.40551486724E+02  0.66526542470E+02  0.00000000000E+00 0. -1.
          3    1    6    6  503    0  0.47821916622E+03 -0.18628322620E+03 -0.37187937420E+01  0.51323370966E+03  0.00000000000E+00 0. -1.
         -3    1    6    6    0  503  0.84343639226E+03 -0.35404504843E+03  0.11588525938E+03  0.92204242714E+03  0.00000000000E+00 0.  1.
<mgrwt>
<rscale>  0 0.15338950E+04</rscale>
<asrwt>0</asrwt>
<pdfrwt beam="1">  1        2 0.23321678E+00 0.15338950E+04</pdfrwt>
<pdfrwt beam="2">  1       -2 0.25103010E+00 0.15338950E+04</pdfrwt>
<totfact> 0.73801060E-01</totfact>
</mgrwt>
</event>
<event>
12    1  0.1335216E-007  0.7061683E+03  0.7818608E-02  0.9706741E-01
          2   -1    0    0  501    0  0.00000000000E+00  0.00000000000E+00  0.13658756950E+04  0.13658756950E+04  0.00000000000E+00 0. -1.
         -2   -1    0    0    0  501 -0.00000000000E+00 -0.00000000000E+00 -0.53389595973E+03  0.53389595973E+03  0.00000000000E+00 0.  1.
         23    2    1    2    0    0  0.28684844721E+03  0.58480698052E+03  0.76910751048E+03  0.10119512142E+04  0.90761561564E+02 0.  0.
    5000000    2    1    2    0    0 -0.28684844721E+03 -0.58480698052E+03  0.62872224824E+02  0.88782044059E+03  0.59999248491E+03 0.  0.
         23    2    4    4    0    0 -0.34615451262E+03 -0.51662571406E+03  0.23667484400E+03  0.67171691864E+03  0.91997619342E+02 0.  0.
         23    2    4    4    0    0  0.59306065405E+02 -0.68181266456E+02 -0.17380261918E+03  0.21610352196E+03  0.91255067146E+02 0.  0.
          1    1    3    3  502    0  0.11897409287E+03  0.33481304304E+03  0.44674966843E+03  0.57082385620E+03  0.00000000000E+00 0. -1.
         -1    1    3    3    0  502  0.16787435434E+03  0.24999393748E+03  0.32235784205E+03  0.44112735797E+03  0.00000000000E+00 0.  1.
         13    1    5    5    0    0 -0.11674782022E+03 -0.25292298300E+03  0.11893649863E+03  0.30289598802E+03  0.00000000000E+00 0. -1.
        -13    1    5    5    0    0 -0.22940669240E+03 -0.26370273107E+03  0.11773834537E+03  0.36882093062E+03  0.00000000000E+00 0.  1.
          3    1    6    6  503    0  0.76007687902E+02 -0.77596442855E+02 -0.13943627111E+03  0.17675081404E+03  0.00000000000E+00 0. -1.
         -3    1    6    6    0  503 -0.16701622497E+02  0.94151763984E+01 -0.34366348065E+02  0.39352707912E+02  0.00000000000E+00 0.  1.
<mgrwt>
<rscale>  0 0.70616831E+03</rscale>
<asrwt>0</asrwt>
<pdfrwt beam="1">  1        2 0.21013472E+00 0.70616831E+03</pdfrwt>
<pdfrwt beam="2">  1       -2 0.82137840E-01 0.70616831E+03</pdfrwt>
<totfact> 0.20251111E+01</totfact>
</mgrwt>
</event>
<event>
12    1  0.1335216E-007  0.5286923E+03  0.7818608E-02  0.1006550E+00
         -1   -1    0    0    0  501 -0.00000000000E+00  0.00000000000E+00  0.11882262737E+03  0.11882262737E+03  0.00000000000E+00 0.  1.
          1   -1    0    0  501    0  0.00000000000E+00 -0.00000000000E+00 -0.27587887398E+04  0.27587887398E+04  0.00000000000E+00 0. -1.
         23    2    1    2    0    0  0.36759124806E+03  0.58145040689E+02 -0.54025104108E+03  0.66236932902E+03  0.91420835813E+02 0.  0.
    5000000    2    1    2    0    0 -0.36759124806E+03 -0.58145040689E+02 -0.20997150713E+04  0.22152420381E+04  0.59999144604E+03 0.  0.
         23    2    4    4    0    0 -0.40678521033E+03 -0.25030763627E+03 -0.14999686403E+04  0.15767385413E+04  0.89835324856E+02 0.  0.
         23    2    4    4    0    0  0.39193962271E+02  0.19216259558E+03 -0.59974643100E+03  0.63850349681E+03  0.97613032556E+02 0.  0.
          2    1    3    3  502    0  0.19481181808E+03  0.10209730349E+02 -0.21032018564E+03  0.28686314428E+03  0.00000000000E+00 0. -1.
         -2    1    3    3    0  502  0.17277942998E+03  0.47935310340E+02 -0.32993085545E+03  0.37550618474E+03  0.00000000000E+00 0.  1.
         13    1    5    5    0    0 -0.10442621786E+03 -0.33371804606E+02 -0.26096615130E+03  0.28305802310E+03  0.00000000000E+00 0.  1.
        -13    1    5    5    0    0 -0.30235899247E+03 -0.21693583166E+03 -0.12390024890E+04  0.12936805182E+04  0.00000000000E+00 0. -1.
          3    1    6    6  503    0  0.49473205676E+02  0.15975288953E+03 -0.56755257658E+03  0.59167939881E+03  0.00000000000E+00 0. -1.
         -3    1    6    6    0  503 -0.10279243405E+02  0.32409706049E+02 -0.32193854415E+02  0.46824097997E+02  0.00000000000E+00 0.  1.
<mgrwt>
<rscale>  0 0.52869227E+03</rscale>
<asrwt>0</asrwt>
<pdfrwt beam="1">  1        1 0.42442901E+00 0.52869227E+03</pdfrwt>
<pdfrwt beam="2">  1       -1 0.18280406E-01 0.52869227E+03</pdfrwt>
<totfact> 0.23161326E+01</totfact>
</mgrwt>
</event>
<event>
12    1  0.1335216E-007  0.1232632E+04  0.7818608E-02  0.9084764E-01
         -1   -1    0    0    0  501 -0.00000000000E+00  0.00000000000E+00  0.89701490340E+03  0.89701490340E+03  0.00000000000E+00 0.  1.
          1   -1    0    0  501    0  0.00000000000E+00 -0.00000000000E+00 -0.30116335683E+04  0.30116335683E+04  0.00000000000E+00 0. -1.
         23    2    1    2    0    0  0.11835209127E+04  0.12683712413E+03 -0.22719447352E+04  0.25664511777E+04  0.90162968298E+02 0.  0.
    5000000    2    1    2    0    0 -0.11835209127E+04 -0.12683712413E+03  0.15732607026E+03  0.13421972941E+04  0.59994389490E+03 0.  0.
         23    2    4    4    0    0 -0.70463080541E+03 -0.29356961566E+03 -0.83084272389E+02  0.77336011539E+03  0.92169303942E+02 0.  0.
         23    2    4    4    0    0 -0.47889010725E+03  0.16673249153E+03  0.24041034265E+03  0.56883717866E+03  0.92968513073E+02 0.  0.
          1    1    3    3  502    0  0.68558023087E+03  0.11413682608E+03 -0.13630304820E+04  0.15299998572E+04  0.00000000000E+00 0. -1.
         -1    1    3    3    0  502  0.49794068180E+03  0.12700298056E+02 -0.90891425317E+03  0.10364513205E+04  0.00000000000E+00 0.  1.
         13    1    5    5    0    0 -0.68291649172E+03 -0.27426397069E+03 -0.64243189226E+02  0.73873056498E+03  0.00000000000E+00 0.  1.
        -13    1    5    5    0    0 -0.21714313695E+02 -0.19305644966E+02 -0.18841083164E+02  0.34629550410E+02  0.00000000000E+00 0. -1.
          2    1    6    6  503    0 -0.24346663424E+03  0.89306164362E+02  0.17390178298E+03  0.31223936828E+03  0.00000000000E+00 0. -1.
         -2    1    6    6    0  503 -0.23542347301E+03  0.77426327165E+02  0.66508559669E+02  0.25659781038E+03  0.00000000000E+00 0.  1.
<mgrwt>
<rscale>  0 0.12326319E+04</rscale>
<asrwt>0</asrwt>
<pdfrwt beam="1">  1        1 0.46332825E+00 0.12326319E+04</pdfrwt>
<pdfrwt beam="2">  1       -1 0.13800229E+00 0.12326319E+04</pdfrwt>
<totfact> 0.25217570E-01</totfact>
</mgrwt>
</event>
<event>
12    1  0.1335216E-007  0.5582283E+03  0.7818608E-02  0.9996071E-01
         -2   -1    0    0    0  501 -0.00000000000E+00  0.00000000000E+00  0.20874543215E+03  0.20874543215E+03  0.00000000000E+00 0.  1.
          2   -1    0    0  501    0  0.00000000000E+00 -0.00000000000E+00 -0.19984157963E+04  0.19984157963E+04  0.00000000000E+00 0. -1.
         23    2    1    2    0    0  0.22155056747E+03  0.44599372215E+03 -0.60870866418E+03  0.79173665695E+03  0.91244955859E+02 0.  0.
    5000000    2    1    2    0    0 -0.22155056747E+03 -0.44599372215E+03 -0.11809617000E+04  0.14154245715E+04  0.60063393733E+03 0.  0.
         23    2    4    4    0    0 -0.28703926796E+03 -0.19278172671E+03 -0.22943590153E+03  0.42460187436E+03  0.89942110787E+02 0.  0.
         23    2    4    4    0    0  0.65488700489E+02 -0.25321199544E+03 -0.95152579843E+03  0.99082269714E+03  0.89012288834E+02 0.  0.
          3    1    3    3  502    0  0.14206920597E+03  0.34625150599E+03 -0.49724573548E+03  0.62235607664E+03  0.00000000000E+00 0. -1.
         -3    1    3    3    0  502  0.79481361501E+02  0.99742216157E+02 -0.11146292871E+03  0.16938058031E+03  0.00000000000E+00 0.  1.
         11    1    5    5    0    0 -0.16118204709E+03 -0.12450589786E+03 -0.83403785574E+02  0.22008535243E+03  0.00000000000E+00 0.  1.
        -11    1    5    5    0    0 -0.12585722087E+03 -0.68275828846E+02 -0.14603211596E+03  0.20451652193E+03  0.00000000000E+00 0. -1.
          2    1    6    6  503    0  0.84032482308E+01 -0.14683352179E+03 -0.39853480191E+03  0.42480664547E+03  0.00000000000E+00 0. -1.
         -2    1    6    6    0  503  0.57085452258E+02 -0.10637847365E+03 -0.55299099652E+03  0.56601605167E+03  0.00000000000E+00 0.  1.
<mgrwt>
<rscale>  0 0.55822833E+03</rscale>
<asrwt>0</asrwt>
<pdfrwt beam="1">  1        2 0.30744860E+00 0.55822833E+03</pdfrwt>
<pdfrwt beam="2">  1       -2 0.32114680E-01 0.55822833E+03</pdfrwt>
<totfact> 0.63739024E+01</totfact>
</mgrwt>
</event>
<event>
12    1  0.1335216E-007  0.4968964E+03  0.7818608E-02  0.1014592E+00
          2   -1    0    0  501    0  0.00000000000E+00  0.00000000000E+00  0.22133424789E+04  0.22133424789E+04  0.00000000000E+00 0.  1.
         -2   -1    0    0    0  501 -0.00000000000E+00 -0.00000000000E+00 -0.13469061403E+03  0.13469061403E+03  0.00000000000E+00 0. -1.
         23    2    1    2    0    0 -0.31900929232E+03 -0.61072311039E+02  0.11357709997E+04  0.11844835113E+04  0.86767904276E+02 0.  0.
    5000000    2    1    2    0    0  0.31900929232E+03  0.61072311039E+02  0.94288086524E+03  0.11635495816E+04  0.59943852652E+03 0.  0.
         23    2    4    4    0    0  0.46068805951E+03  0.12990683836E+03  0.58672191011E+03  0.76336563085E+03  0.96825677014E+02 0.  0.
         23    2    4    4    0    0 -0.14167876720E+03 -0.68834527319E+02  0.35615895513E+03  0.40018395077E+03  0.92124523896E+02 0.  0.
          2    1    3    3  502    0 -0.14249790164E+03 -0.52032301941E+02  0.65263482630E+03  0.67003375207E+03  0.00000000000E+00 0.  1.
         -2    1    3    3    0  502 -0.17651139068E+03 -0.90400090984E+01  0.48313617336E+03  0.51444975927E+03  0.00000000000E+00 0. -1.
         13    1    5    5    0    0  0.10986386474E+03 -0.13476869280E+01  0.95148981867E+02  0.14534515398E+03  0.00000000000E+00 0. -1.
        -13    1    5    5    0    0  0.35082419477E+03  0.13125452529E+03  0.49157292824E+03  0.61802047686E+03  0.00000000000E+00 0.  1.
          1    1    6    6  503    0 -0.63432609294E+02 -0.79749223210E+02  0.17421832338E+03  0.20183076754E+03  0.00000000000E+00 0. -1.
         -1    1    6    6    0  503 -0.78246157904E+02  0.10914695892E+02  0.18194063175E+03  0.19835318322E+03  0.00000000000E+00 0.  1.
<mgrwt>
<rscale>  0 0.49689635E+03</rscale>
<asrwt>0</asrwt>
<pdfrwt beam="1">  1        2 0.34051420E+00 0.49689635E+03</pdfrwt>
<pdfrwt beam="2">  1       -2 0.20721635E-01 0.49689635E+03</pdfrwt>
<totfact> 0.10848875E+02</totfact>
</mgrwt>
</event>
<event>
12    1  0.1335216E-007  0.1129633E+04  0.7818608E-02  0.9176781E-01
          2   -1    0    0  501    0  0.00000000000E+00  0.00000000000E+00  0.22399115692E+04  0.22399115692E+04  0.00000000000E+00 0. -1.
         -2   -1    0    0    0  501 -0.00000000000E+00 -0.00000000000E+00 -0.60773948019E+03  0.60773948019E+03  0.00000000000E+00 0.  1.
         23    2    1    2    0    0 -0.97741322843E+03 -0.42053105239E+03  0.10391681509E+04  0.14900257124E+04  0.90128754859E+02 0.  0.
    5000000    2    1    2    0    0  0.97741322843E+03  0.42053105239E+03  0.59300393808E+03  0.13576253370E+04  0.59942464086E+03 0.  0.
         23    2    4    4    0    0  0.56337023110E+03  0.51081145223E+03  0.25224665230E+03  0.80632969533E+03  0.90690941962E+02 0.  0.
         23    2    4    4    0    0  0.41404299732E+03 -0.90280399838E+02  0.34075728578E+03  0.55129564171E+03  0.90714952077E+02 0.  0.
          4    1    3    3  502    0 -0.72099221891E+03 -0.34060579138E+03  0.73819367149E+03  0.10866333243E+04  0.00000000000E+00 0. -1.
         -4    1    3    3    0  502 -0.25642100951E+03 -0.79925261015E+02  0.30097447945E+03  0.40339238806E+03  0.00000000000E+00 0.  1.
         11    1    5    5    0    0  0.22834751161E+03  0.14982128819E+03  0.99889657321E+02  0.29080396850E+03  0.00000000000E+00 0.  1.
        -11    1    5    5    0    0  0.33502271949E+03  0.36099016404E+03  0.15235699498E+03  0.51552572683E+03  0.00000000000E+00 0. -1.
          2    1    6    6  503    0  0.26845436605E+03 -0.86463579602E+02  0.18100741199E+03  0.33512293334E+03  0.00000000000E+00 0. -1.
         -2    1    6    6    0  503  0.14558863127E+03 -0.38168202362E+01  0.15974987379E+03  0.21617270837E+03  0.00000000000E+00 0.  1.
<mgrwt>
<rscale>  0 0.11296334E+04</rscale>
<asrwt>0</asrwt>
<pdfrwt beam="1">  1        2 0.34460178E+00 0.11296334E+04</pdfrwt>
<pdfrwt beam="2">  1       -2 0.93498383E-01 0.11296334E+04</pdfrwt>
<totfact> 0.46913994E+00</totfact>
</mgrwt>
</event>
<event>
12    1  0.1335216E-007  0.3859809E+03  0.7818608E-02  0.1048745E+00
         -2   -1    0    0    0  501 -0.00000000000E+00  0.00000000000E+00  0.16931114012E+03  0.16931114012E+03  0.00000000000E+00 0.  1.
          2   -1    0    0  501    0  0.00000000000E+00 -0.00000000000E+00 -0.10236455922E+04  0.10236455922E+04  0.00000000000E+00 0. -1.
         23    2    1    2    0    0 -0.15794551213E+03  0.21102430172E+02 -0.34080218125E+03  0.38707069585E+03  0.91024719065E+02 0.  0.
    5000000    2    1    2    0    0  0.15794551213E+03 -0.21102430172E+02 -0.51353227082E+03  0.80588603646E+03  0.60028727558E+03 0.  0.
         23    2    4    4    0    0  0.35987951527E+03 -0.95352154497E+02 -0.27114855414E+03  0.46967032810E+03  0.91996629310E+02 0.  0.
         23    2    4    4    0    0 -0.20193400314E+03  0.74249724324E+02 -0.24238371668E+03  0.33621570836E+03  0.89447041584E+02 0.  0.
          2    1    3    3  502    0 -0.11759826416E+03 -0.66940105825E+01 -0.15360679508E+03  0.19356964898E+03  0.00000000000E+00 0. -1.
         -2    1    3    3    0  502 -0.40347247972E+02  0.27796440755E+02 -0.18719538617E+03  0.19350104687E+03  0.00000000000E+00 0.  1.
         13    1    5    5    0    0  0.26910087050E+03 -0.58539354924E+02 -0.24420480245E+03  0.36807352542E+03  0.00000000000E+00 0. -1.
        -13    1    5    5    0    0  0.90778644771E+02 -0.36812799572E+02 -0.26943751697E+02  0.10159680268E+03  0.00000000000E+00 0.  1.
          2    1    6    6  503    0 -0.13841831120E+02  0.37771308774E+02 -0.30013296784E+02  0.50190298257E+02  0.00000000000E+00 0. -1.
         -2    1    6    6    0  503 -0.18809217202E+03  0.36478415550E+02 -0.21237041990E+03  0.28602541010E+03  0.00000000000E+00 0.  1.
<mgrwt>
<rscale>  0 0.38598094E+03</rscale>
<asrwt>0</asrwt>
<pdfrwt beam="1">  1        2 0.15748393E+00 0.38598094E+03</pdfrwt>
<pdfrwt beam="2">  1       -2 0.26047868E-01 0.38598094E+03</pdfrwt>
<totfact> 0.33391320E+02</totfact>
</mgrwt>
</event>
<event>
12    1  0.1335216E-007  0.6370789E+03  0.7818608E-02  0.9831331E-01
          2   -1    0    0  501    0  0.00000000000E+00  0.00000000000E+00  0.56605049133E+03  0.56605049133E+03  0.00000000000E+00 0. -1.
         -2   -1    0    0    0  501 -0.00000000000E+00 -0.00000000000E+00 -0.84782570173E+03  0.84782570173E+03  0.00000000000E+00 0.  1.
         23    2    1    2    0    0 -0.49876276654E+03  0.11245529366E+03 -0.34425274178E+03  0.62301669670E+03  0.90715840825E+02 0.  0.
    5000000    2    1    2    0    0  0.49876276654E+03 -0.11245529366E+03  0.62477531389E+02  0.79085949637E+03  0.60012066345E+03 0.  0.
         23    2    4    4    0    0  0.49465022106E+03 -0.28545308156E+03  0.11968225210E+03  0.59018142693E+03  0.88475828646E+02 0.  0.
         23    2    4    4    0    0  0.41125454835E+01  0.17299778791E+03 -0.57204720709E+02  0.20067806944E+03  0.83989045901E+02 0.  0.
          3    1    3    3  502    0 -0.43011703565E+02 -0.12279457259E+02 -0.46462958663E+02  0.64494947414E+02  0.00000000000E+00 0. -1.
         -3    1    3    3    0  502 -0.45575106298E+03  0.12473475092E+03 -0.29778978312E+03  0.55852174928E+03  0.00000000000E+00 0.  1.
         13    1    5    5    0    0  0.28697478739E+03 -0.18419872463E+03  0.11229858600E+03  0.35901904012E+03  0.00000000000E+00 0. -1.
        -13    1    5    5    0    0  0.20767543367E+03 -0.10125435694E+03  0.73836660946E+01  0.23116238681E+03  0.00000000000E+00 0.  1.
          2    1    6    6  503    0  0.33400509941E+02  0.11697974532E+03 -0.10546536297E+02  0.12211095081E+03  0.00000000000E+00 0. -1.
         -2    1    6    6    0  503 -0.29287964458E+02  0.56018042588E+02 -0.46658184412E+02  0.78567118632E+02  0.00000000000E+00 0.  1.
<mgrwt>
<rscale>  0 0.63707893E+03</rscale>
<asrwt>0</asrwt>
<pdfrwt beam="1">  1        2 0.87084691E-01 0.63707893E+03</pdfrwt>
<pdfrwt beam="2">  1       -2 0.13043472E+00 0.63707893E+03</pdfrwt>
<totfact> 0.23452377E+01</totfact>
</mgrwt>
</event>
<event>
12    1  0.1335216E-007  0.1121534E+04  0.7818608E-02  0.9184454E-01
         -1   -1    0    0    0  501 -0.00000000000E+00  0.00000000000E+00  0.62439624745E+03  0.62439624745E+03  0.00000000000E+00 0.  1.
          1   -1    0    0  501    0  0.00000000000E+00 -0.00000000000E+00 -0.24793899849E+04  0.24793899849E+04  0.00000000000E+00 0. -1.
         23    2    1    2    0    0  0.82838526432E+03  0.64589660895E+03 -0.15176502067E+04  0.18479654482E+04  0.91156854955E+02 0.  0.
    5000000    2    1    2    0    0 -0.82838526432E+03 -0.64589660895E+03 -0.33734353071E+03  0.12558207841E+04  0.59990049889E+03 0.  0.
         23    2    4    4    0    0 -0.79979095438E+02 -0.38265381056E+03 -0.32077864280E+02  0.40088354519E+03  0.82813241558E+02 0.  0.
         23    2    4    4    0    0 -0.74840616888E+03 -0.26324279838E+03 -0.30526566643E+03  0.85493723895E+03  0.91224946847E+02 0.  0.
          1    1    3    3  502    0  0.47556776202E+03  0.39409803099E+03 -0.81920657145E+03  0.10259519292E+04  0.00000000000E+00 0.  1.
         -1    1    3    3    0  502  0.35281750230E+03  0.25179857796E+03 -0.69844363529E+03  0.82201351902E+03  0.00000000000E+00 0. -1.
         11    1    5    5    0    0  0.67713088017E+01 -0.10647116955E+03  0.14522563079E+02  0.10767016953E+03  0.00000000000E+00 0.  1.
        -11    1    5    5    0    0 -0.86750404239E+02 -0.27618264102E+03 -0.46600427359E+02  0.29321337566E+03  0.00000000000E+00 0. -1.
          3    1    6    6  503    0 -0.21792702809E+03 -0.46974020503E+02 -0.11800344010E+03  0.25223711077E+03  0.00000000000E+00 0. -1.
         -3    1    6    6    0  503 -0.53047914079E+03 -0.21626877788E+03 -0.18726222633E+03  0.60270012818E+03  0.00000000000E+00 0.  1.
<mgrwt>
<rscale>  0 0.11215343E+04</rscale>
<asrwt>0</asrwt>
<pdfrwt beam="1">  1        1 0.38144462E+00 0.11215343E+04</pdfrwt>
<pdfrwt beam="2">  1       -1 0.96060960E-01 0.11215343E+04</pdfrwt>
<totfact> 0.14629732E+00</totfact>
</mgrwt>
</event>
<event>
12    1  0.1335216E-007  0.7181403E+03  0.7818608E-02  0.9686703E-01
         -2   -1    0    0    0  501 -0.00000000000E+00  0.00000000000E+00  0.21183261771E+03  0.21183261771E+03  0.00000000000E+00 0. -1.
          2   -1    0    0  501    0  0.00000000000E+00 -0.00000000000E+00 -0.30087430530E+04  0.30087430530E+04  0.00000000000E+00 0.  1.
         23    2    1    2    0    0  0.35928644434E+03  0.57946911502E+03 -0.12653665730E+04  0.14400732217E+04  0.88244633770E+02 0.  0.
    5000000    2    1    2    0    0 -0.35928644434E+03 -0.57946911502E+03 -0.15315438623E+04  0.17805024491E+04  0.59974258186E+03 0.  0.
         23    2    4    4    0    0 -0.27837280321E+03 -0.16951157419E+03 -0.11791479927E+04  0.12264386114E+04  0.86810641446E+02 0.  0.
         23    2    4    4    0    0 -0.80913641131E+02 -0.40995754083E+03 -0.35239586964E+03  0.55406383767E+03  0.90507926036E+02 0.  0.
          4    1    3    3  502    0  0.56610356764E+02  0.14532943028E+03 -0.24090473014E+03  0.28698512994E+03  0.00000000000E+00 0. -1.
         -4    1    3    3    0  502  0.30267608758E+03  0.43413968474E+03 -0.10244618428E+04  0.11530880917E+04  0.00000000000E+00 0.  1.
         13    1    5    5    0    0 -0.23865477485E+03 -0.13814887973E+03 -0.85513252078E+03  0.89849476494E+03  0.00000000000E+00 0. -1.
        -13    1    5    5    0    0 -0.39718028356E+02 -0.31362694460E+02 -0.32401547191E+03  0.32794384643E+03  0.00000000000E+00 0.  1.
          4    1    6    6  503    0 -0.86804350257E+02 -0.40972638368E+03 -0.33696887934E+03  0.53754881671E+03  0.00000000000E+00 0. -1.
         -4    1    6    6    0  503  0.58907091261E+01 -0.23115715005E+00 -0.15426990299E+02  0.16515020960E+02  0.00000000000E+00 0.  1.
<mgrwt>
<rscale>  0 0.71814030E+03</rscale>
<asrwt>0</asrwt>
<pdfrwt beam="1">  1        2 0.46288350E+00 0.71814030E+03</pdfrwt>
<pdfrwt beam="2">  1       -2 0.32589637E-01 0.71814030E+03</pdfrwt>
<totfact> 0.16091158E+01</totfact>
</mgrwt>
</event>
<event>
12    1  0.1335216E-007  0.3362803E+03  0.7818608E-02  0.1068391E+00
          1   -1    0    0  501    0  0.00000000000E+00  0.00000000000E+00  0.14447459655E+03  0.14447459655E+03  0.00000000000E+00 0. -1.
         -1   -1    0    0    0  501 -0.00000000000E+00 -0.00000000000E+00 -0.11934529039E+04  0.11934529039E+04  0.00000000000E+00 0.  1.
         23    2    1    2    0    0 -0.16079375347E+03 -0.75617950718E+02 -0.19453779266E+03  0.27882239910E+03  0.91237447575E+02 0.  0.
    5000000    2    1    2    0    0  0.16079375347E+03  0.75617950718E+02 -0.85444051474E+03  0.10591051014E+04  0.60005192856E+03 0.  0.
         23    2    4    4    0    0 -0.14443441583E+03 -0.27337122854E+02 -0.46629129023E+02  0.18452683040E+03  0.10132747258E+03 0.  0.
         23    2    4    4    0    0  0.30522816931E+03  0.10295507357E+03 -0.80781138571E+03  0.87457827101E+03  0.92541529698E+02 0.  0.
          3    1    3    3  502    0 -0.55996756366E+02 -0.73892763727E+02 -0.70764528265E+02  0.11663359600E+03  0.00000000000E+00 0. -1.
         -3    1    3    3    0  502 -0.10479699711E+03 -0.17251869906E+01 -0.12377326439E+03  0.16218880310E+03  0.00000000000E+00 0.  1.
         11    1    5    5    0    0 -0.12596069940E+02 -0.17059715902E+01  0.28091889280E+02  0.30833837911E+02  0.00000000000E+00 0.  1.
        -11    1    5    5    0    0 -0.13183834589E+03 -0.25631151264E+02 -0.74721018303E+02  0.15369299249E+03  0.00000000000E+00 0. -1.
          3    1    6    6  503    0  0.19556293330E+02  0.25305070043E+02 -0.14773095452E+03  0.15115300229E+03  0.00000000000E+00 0. -1.
         -3    1    6    6    0  503  0.28567187598E+03  0.77650003529E+02 -0.66008043120E+03  0.72342526872E+03  0.00000000000E+00 0.  1.
<mgrwt>
<rscale>  0 0.33628034E+03</rscale>
<asrwt>0</asrwt>
<pdfrwt beam="1">  1        1 0.22226860E-01 0.33628034E+03</pdfrwt>
<pdfrwt beam="2">  1       -1 0.18360815E+00 0.33628034E+03</pdfrwt>
<totfact> 0.47797964E+01</totfact>
</mgrwt>
</event>
<event>
12    1  0.1335216E-007  0.5625243E+03  0.7818608E-02  0.9986359E-01
          2   -1    0    0  501    0  0.00000000000E+00  0.00000000000E+00  0.11969358310E+04  0.11969358310E+04  0.00000000000E+00 0.  1.
         -2   -1    0    0    0  501 -0.00000000000E+00 -0.00000000000E+00 -0.55548149179E+03  0.55548149179E+03  0.00000000000E+00 0. -1.
         23    2    1    2    0    0  0.27345184019E+03 -0.30285627902E+03  0.89163624311E+03  0.98481456696E+03  0.91360312086E+02 0.  0.
    5000000    2    1    2    0    0 -0.27345184019E+03  0.30285627902E+03 -0.25018190393E+03  0.76760275580E+03  0.60010430011E+03 0.  0.
         23    2    4    4    0    0  0.12528903889E+03  0.27334531492E+03 -0.87536873833E+02  0.32608139364E+03  0.90837032880E+02 0.  0.
         23    2    4    4    0    0 -0.39874087908E+03  0.29510964098E+02 -0.16264503010E+03  0.44152136216E+03  0.92857534858E+02 0.  0.
          1    1    3    3  502    0  0.11057351377E+03 -0.18807447915E+03  0.49468450398E+03  0.54065818234E+03  0.00000000000E+00 0. -1.
         -1    1    3    3    0  502  0.16287832642E+03 -0.11478179987E+03  0.39695173913E+03  0.44415638462E+03  0.00000000000E+00 0.  1.
         11    1    5    5    0    0  0.93446882887E+02  0.21726293234E+03 -0.27730386684E+02  0.23812701660E+03  0.00000000000E+00 0.  1.
        -11    1    5    5    0    0  0.31842156000E+02  0.56082382578E+02 -0.59806487149E+02  0.87954377034E+02  0.00000000000E+00 0. -1.
          3    1    6    6  503    0 -0.17254974506E+03 -0.23931390574E+02 -0.40027714473E+02  0.17874099670E+03  0.00000000000E+00 0. -1.
         -3    1    6    6    0  503 -0.22619113401E+03  0.53442354672E+02 -0.12261731563E+03  0.26278036546E+03  0.00000000000E+00 0.  1.
<mgrwt>
<rscale>  0 0.56252431E+03</rscale>
<asrwt>0</asrwt>
<pdfrwt beam="1">  1        2 0.18414397E+00 0.56252431E+03</pdfrwt>
<pdfrwt beam="2">  1       -2 0.85458691E-01 0.56252431E+03</pdfrwt>
<totfact> 0.23617934E+01</totfact>
</mgrwt>
</event>
<event>
12    1  0.1335216E-007  0.1183397E+04  0.7818608E-02  0.9127515E-01
          2   -1    0    0  501    0  0.00000000000E+00  0.00000000000E+00  0.28017647816E+04  0.28017647816E+04  0.00000000000E+00 0. -1.
         -2   -1    0    0    0  501 -0.00000000000E+00 -0.00000000000E+00 -0.52669066701E+03  0.52669066701E+03  0.00000000000E+00 0.  1.
         23    2    1    2    0    0  0.77499968379E+03  0.80386975759E+03  0.76242095668E+03  0.13549210542E+04  0.87716879199E+02 0.  0.
    5000000    2    1    2    0    0 -0.77499968379E+03 -0.80386975759E+03  0.15126531579E+04  0.19735343944E+04  0.59990610326E+03 0.  0.
         23    2    4    4    0    0 -0.45462432705E+01 -0.33901136586E+03  0.55380749440E+03  0.65545780759E+03  0.89290661137E+02 0.  0.
         23    2    4    4    0    0 -0.77045344052E+03 -0.46485839173E+03  0.95884566351E+03  0.13180765868E+04  0.90824302463E+02 0.  0.
          4    1    3    3  502    0  0.59852248060E+03  0.63484771436E+03  0.63670197367E+03  0.10801158195E+04  0.00000000000E+00 0. -1.
         -4    1    3    3    0  502  0.17647720319E+03  0.16902204323E+03  0.12571898301E+03  0.27480523472E+03  0.00000000000E+00 0.  1.
         11    1    5    5    0    0 -0.37057789996E+02 -0.22156972399E+03  0.30937901571E+03  0.38233728271E+03  0.00000000000E+00 0.  1.
        -11    1    5    5    0    0  0.32511546725E+02 -0.11744164187E+03  0.24442847869E+03  0.27312052488E+03  0.00000000000E+00 0. -1.
          4    1    6    6  503    0 -0.11956353451E+03 -0.39706654020E+02  0.11321358305E+03  0.16937937461E+03  0.00000000000E+00 0. -1.
         -4    1    6    6    0  503 -0.65088990601E+03 -0.42515173771E+03  0.84563208046E+03  0.11486972122E+04  0.00000000000E+00 0.  1.
<mgrwt>
<rscale>  0 0.11833969E+04</rscale>
<asrwt>0</asrwt>
<pdfrwt beam="1">  1        2 0.43104073E+00 0.11833969E+04</pdfrwt>
<pdfrwt beam="2">  1       -2 0.81029335E-01 0.11833969E+04</pdfrwt>
<totfact> 0.30737124E+00</totfact>
</mgrwt>
</event>
<event>
12    1  0.1335216E-007  0.1115631E+04  0.7818608E-02  0.9190090E-01
          1   -1    0    0  501    0  0.00000000000E+00  0.00000000000E+00  0.22092899603E+04  0.22092899603E+04  0.00000000000E+00 0. -1.
         -1   -1    0    0    0  501 -0.00000000000E+00 -0.00000000000E+00 -0.61576950920E+03  0.61576950920E+03  0.00000000000E+00 0.  1.
         23    2    1    2    0    0 -0.50738552350E+03 -0.95602032587E+03  0.62342725035E+03  0.12525044308E+04  0.93224888579E+02 0.  0.
    5000000    2    1    2    0    0  0.50738552350E+03  0.95602032587E+03  0.97009320078E+03  0.15725550387E+04  0.60036122342E+03 0.  0.
         23    2    4    4    0    0  0.62455853423E+02  0.49036947599E+03  0.14714327092E+03  0.52346410706E+03  0.89445919991E+02 0.  0.
         23    2    4    4    0    0  0.44492967007E+03  0.46565084988E+03  0.82294992986E+03  0.10490909316E+04  0.92477405104E+02 0.  0.
          2    1    3    3  502    0 -0.38851587503E+03 -0.64152638661E+03  0.43894733453E+03  0.86900831547E+03  0.00000000000E+00 0. -1.
         -2    1    3    3    0  502 -0.11886964847E+03 -0.31449393926E+03  0.18447991582E+03  0.38349611536E+03  0.00000000000E+00 0.  1.
         11    1    5    5    0    0  0.57106820659E+02  0.27765038612E+03  0.43506796311E+02  0.28678174141E+03  0.00000000000E+00 0. -1.
        -11    1    5    5    0    0  0.53490327641E+01  0.21271908986E+03  0.10363647461E+03  0.23668236565E+03  0.00000000000E+00 0.  1.
          1    1    6    6  503    0  0.26864421587E+03  0.22456675074E+03  0.48330746979E+03  0.59681324601E+03  0.00000000000E+00 0. -1.
         -1    1    6    6    0  503  0.17628545421E+03  0.24108409914E+03  0.33964246007E+03  0.45227768562E+03  0.00000000000E+00 0.  1.
<mgrwt>
<rscale>  0 0.11156307E+04</rscale>
<asrwt>0</asrwt>
<pdfrwt beam="1">  1        1 0.33989076E+00 0.11156307E+04</pdfrwt>
<pdfrwt beam="2">  1       -1 0.94733772E-01 0.11156307E+04</pdfrwt>
<totfact> 0.23096969E+00</totfact>
</mgrwt>
</event>
<event>
12    1  0.1335216E-007  0.7578020E+03  0.7818608E-02  0.9623189E-01
          1   -1    0    0  501    0  0.00000000000E+00  0.00000000000E+00  0.21362558113E+04  0.21362558113E+04  0.00000000000E+00 0. -1.
         -1   -1    0    0    0  501 -0.00000000000E+00 -0.00000000000E+00 -0.42433126920E+03  0.42433126920E+03  0.00000000000E+00 0.  1.
         23    2    1    2    0    0 -0.69720245864E+03 -0.94520145319E+02  0.11949354861E+03  0.71917001541E+03  0.88890250889E+02 0.  0.
    5000000    2    1    2    0    0  0.69720245864E+03  0.94520145319E+02  0.15924309935E+04  0.18414170651E+04  0.59996250915E+03 0.  0.
         23    2    4    4    0    0 -0.30455850391E+02  0.62453931098E+02  0.34015389089E+02  0.11908422296E+03  0.90531503530E+02 0.  0.
         23    2    4    4    0    0  0.72765830903E+03  0.32066214221E+02  0.15584156045E+04  0.17223328422E+04  0.85184307454E+02 0.  0.
          2    1    3    3  502    0 -0.66506695191E+03 -0.97933709951E+02  0.13096649909E+03  0.68487757004E+03  0.00000000000E+00 0. -1.
         -2    1    3    3    0  502 -0.32135506729E+02  0.34135646321E+01 -0.11472950485E+02  0.34292445364E+02  0.00000000000E+00 0.  1.
         13    1    5    5    0    0 -0.31034145195E+02  0.20606413205E+02 -0.26350218675E+02  0.45629775995E+02  0.00000000000E+00 0. -1.
        -13    1    5    5    0    0  0.57829480333E+00  0.41847517893E+02  0.60365607765E+02  0.73454446969E+02  0.00000000000E+00 0.  1.
          2    1    6    6  503    0  0.20600010008E+03 -0.23497946516E+02  0.39504653519E+03  0.44615015375E+03  0.00000000000E+00 0. -1.
         -2    1    6    6    0  503  0.52165820895E+03  0.55564160736E+02  0.11633690693E+04  0.12761826884E+04  0.00000000000E+00 0.  1.
<mgrwt>
<rscale>  0 0.75780204E+03</rscale>
<asrwt>0</asrwt>
<pdfrwt beam="1">  1        1 0.32865473E+00 0.75780204E+03</pdfrwt>
<pdfrwt beam="2">  1       -1 0.65281735E-01 0.75780204E+03</pdfrwt>
<totfact> 0.60127243E+00</totfact>
</mgrwt>
</event>
<event>
12    1  0.1335216E-007  0.1851837E+04  0.7818608E-02  0.8679209E-01
         -2   -1    0    0    0  501 -0.00000000000E+00  0.00000000000E+00  0.10489741199E+04  0.10489741199E+04  0.00000000000E+00 0. -1.
          2   -1    0    0  501    0  0.00000000000E+00 -0.00000000000E+00 -0.32995512140E+04  0.32995512140E+04  0.00000000000E+00 0.  1.
         23    2    1    2    0    0  0.20126588662E+03 -0.17981196174E+04 -0.10087026853E+04  0.20734508370E+04  0.89303699592E+02 0.  0.
    5000000    2    1    2    0    0 -0.20126588662E+03  0.17981196174E+04 -0.12418744089E+04  0.22750744969E+04  0.59997483604E+03 0.  0.
         23    2    4    4    0    0 -0.23520237354E+03  0.25622131187E+03 -0.27062462707E+03  0.45018763222E+03  0.91987489655E+02 0.  0.
         23    2    4    4    0    0  0.33936486926E+02  0.15418983055E+04 -0.97124978178E+03  0.18248868647E+04  0.91015717590E+02 0.  0.
          4    1    3    3  502    0  0.13602035956E+03 -0.10847999982E+04 -0.65634690189E+03  0.12751799206E+04  0.00000000000E+00 0. -1.
         -4    1    3    3    0  502  0.65245527054E+02 -0.71331961916E+03 -0.35235578337E+03  0.79827091639E+03  0.00000000000E+00 0.  1.
         11    1    5    5    0    0 -0.22038174266E+03  0.22092598886E+03 -0.20235924395E+03  0.37192158940E+03  0.00000000000E+00 0. -1.
        -11    1    5    5    0    0 -0.14820630882E+02  0.35295323011E+02 -0.68265383121E+02  0.78266042821E+02  0.00000000000E+00 0.  1.
          3    1    6    6  503    0 -0.19751838511E+02  0.59768335957E+03 -0.34129818106E+03  0.68854918620E+03  0.00000000000E+00 0. -1.
         -3    1    6    6    0  503  0.53688325436E+02  0.94421494592E+03 -0.62995160073E+03  0.11363376785E+04  0.00000000000E+00 0.  1.
<mgrwt>
<rscale>  0 0.18518370E+04</rscale>
<asrwt>0</asrwt>
<pdfrwt beam="1">  1        2 0.50762325E+00 0.18518370E+04</pdfrwt>
<pdfrwt beam="2">  1       -2 0.16138064E+00 0.18518370E+04</pdfrwt>
<totfact> 0.25038787E-01</totfact>
</mgrwt>
</event>
<event>
12    1  0.1335216E-007  0.4252264E+03  0.7818608E-02  0.1035379E+00
          2   -1    0    0  501    0  0.00000000000E+00  0.00000000000E+00  0.66299745246E+03  0.66299745246E+03  0.00000000000E+00 0.  1.
         -2   -1    0    0    0  501 -0.00000000000E+00 -0.00000000000E+00 -0.41503314016E+03  0.41503314016E+03  0.00000000000E+00 0. -1.
         23    2    1    2    0    0 -0.52619973711E+02  0.33398008578E+03  0.20721391138E+02  0.35273732103E+03  0.98400621262E+02 0.  0.
    5000000    2    1    2    0    0  0.52619973711E+02 -0.33398008578E+03  0.22724292116E+03  0.72529327159E+03  0.60008284867E+03 0.  0.
         23    2    4    4    0    0 -0.15780688731E+03 -0.21891838894E+03  0.34164199881E+03  0.44373697664E+03  0.85761147299E+02 0.  0.
         23    2    4    4    0    0  0.21042686103E+03 -0.11506169684E+03 -0.11439907764E+03  0.28155629495E+03  0.93102848191E+02 0.  0.
          2    1    3    3  502    0 -0.38989969489E+02  0.19321985295E+03 -0.35986615215E+02  0.20037256741E+03  0.00000000000E+00 0. -1.
         -2    1    3    3    0  502 -0.13630004222E+02  0.14076023283E+03  0.56708006353E+02  0.15236475362E+03  0.00000000000E+00 0.  1.
         13    1    5    5    0    0 -0.11178716329E+03 -0.17966109361E+03  0.31038125838E+03  0.37564744640E+03  0.00000000000E+00 0.  1.
        -13    1    5    5    0    0 -0.46019724025E+02 -0.39257295336E+02  0.31260740432E+02  0.68089530244E+02  0.00000000000E+00 0. -1.
          4    1    6    6  503    0  0.10980234584E+03 -0.59948796825E+02 -0.84446490092E+01  0.12538630504E+03  0.00000000000E+00 0.  1.
         -4    1    6    6    0  503  0.10062451518E+03 -0.55112900014E+02 -0.10595442863E+03  0.15616998992E+03  0.00000000000E+00 0. -1.
<mgrwt>
<rscale>  0 0.42522635E+03</rscale>
<asrwt>0</asrwt>
<pdfrwt beam="1">  1        2 0.10199961E+00 0.42522635E+03</pdfrwt>
<pdfrwt beam="2">  1       -2 0.63851252E-01 0.42522635E+03</pdfrwt>
<totfact> 0.10324177E+02</totfact>
</mgrwt>
</event>
<event>
12    1  0.1335216E-007  0.9564784E+03  0.7818608E-02  0.9357610E-01
         -1   -1    0    0    0  501 -0.00000000000E+00  0.00000000000E+00  0.58529423815E+03  0.58529423815E+03  0.00000000000E+00 0.  1.
          1   -1    0    0  501    0  0.00000000000E+00 -0.00000000000E+00 -0.17718045461E+04  0.17718045461E+04  0.00000000000E+00 0. -1.
         23    2    1    2    0    0 -0.74782992553E+03  0.52525600070E+03 -0.72663816157E+03  0.11711163714E+04  0.91471710130E+02 0.  0.
    5000000    2    1    2    0    0  0.74782992553E+03 -0.52525600070E+03 -0.45987214643E+03  0.11859824129E+04  0.59994035439E+03 0.  0.
         23    2    4    4    0    0  0.75502383159E+03 -0.42665872193E+03 -0.19928551979E+03  0.89457372401E+03  0.91917234626E+02 0.  0.
         23    2    4    4    0    0 -0.71939060586E+01 -0.98597278776E+02 -0.26058662664E+03  0.29140868888E+03  0.85090882622E+02 0.  0.
          2    1    3    3  502    0 -0.53700583121E+03  0.41963009895E+03 -0.56456166711E+03  0.88498280134E+03  0.00000000000E+00 0. -1.
         -2    1    3    3    0  502 -0.21082409433E+03  0.10562590176E+03 -0.16207649446E+03  0.28613357008E+03  0.00000000000E+00 0.  1.
         13    1    5    5    0    0  0.41435550003E+03 -0.28629124490E+03 -0.11469196628E+03  0.51653403028E+03  0.00000000000E+00 0.  1.
        -13    1    5    5    0    0  0.34066833157E+03 -0.14036747702E+03 -0.84593553508E+02  0.37803969373E+03  0.00000000000E+00 0. -1.
          2    1    6    6  503    0 -0.34125768654E+02 -0.18035663423E+02 -0.42754454098E+02  0.57600317591E+02  0.00000000000E+00 0. -1.
         -2    1    6    6    0  503  0.26931862595E+02 -0.80561615353E+02 -0.21783217254E+03  0.23380837129E+03  0.00000000000E+00 0.  1.
<mgrwt>
<rscale>  0 0.95647837E+03</rscale>
<asrwt>0</asrwt>
<pdfrwt beam="1">  1        1 0.27258531E+00 0.95647837E+03</pdfrwt>
<pdfrwt beam="2">  1       -1 0.90045268E-01 0.95647837E+03</pdfrwt>
<totfact> 0.52102610E+00</totfact>
</mgrwt>
</event>
<event>
12    1  0.1335216E-007  0.1145196E+04  0.7818608E-02  0.9162227E-01
          2   -1    0    0  501    0  0.00000000000E+00  0.00000000000E+00  0.30273411842E+04  0.30273411842E+04  0.00000000000E+00 0.  1.
         -2   -1    0    0    0  501 -0.00000000000E+00 -0.00000000000E+00 -0.48205662584E+03  0.48205662584E+03  0.00000000000E+00 0. -1.
         23    2    1    2    0    0  0.99583039935E+03  0.53548054185E+03  0.12608272442E+04  0.16960173265E+04  0.91497743897E+02 0.  0.
    5000000    2    1    2    0    0 -0.99583039935E+03 -0.53548054185E+03  0.12844573142E+04  0.18133804835E+04  0.60008382012E+03 0.  0.
         23    2    4    4    0    0 -0.48827424222E+03 -0.17127973002E+03  0.98069154793E+03  0.11125439607E+04  0.90827697700E+02 0.  0.
         23    2    4    4    0    0 -0.50755615713E+03 -0.36420081182E+03  0.30376576626E+03  0.70083652290E+03  0.92966161044E+02 0.  0.
          2    1    3    3  502    0  0.11126495389E+03  0.90985844021E+02  0.17984044900E+03  0.23021924523E+03  0.00000000000E+00 0.  1.
         -2    1    3    3    0  502  0.88456544545E+03  0.44449469783E+03  0.10809867952E+04  0.14657980812E+04  0.00000000000E+00 0. -1.
         11    1    5    5    0    0 -0.13537806347E+02  0.10336713023E+02  0.34024836000E+02  0.38050089378E+02  0.00000000000E+00 0. -1.
        -11    1    5    5    0    0 -0.47473643587E+03 -0.18161644305E+03  0.94666671193E+03  0.10744938713E+04  0.00000000000E+00 0.  1.
          1    1    6    6  503    0 -0.49081754824E+02 -0.57716317828E+01  0.28721323850E+02  0.57159818350E+02  0.00000000000E+00 0. -1.
         -1    1    6    6    0  503 -0.45847440231E+03 -0.35842918004E+03  0.27504444241E+03  0.64367670455E+03  0.00000000000E+00 0.  1.
<mgrwt>
<rscale>  0 0.11451963E+04</rscale>
<asrwt>0</asrwt>
<pdfrwt beam="1">  1        2 0.46574478E+00 0.11451963E+04</pdfrwt>
<pdfrwt beam="2">  1       -2 0.74162560E-01 0.11451963E+04</pdfrwt>
<totfact> 0.27447841E+00</totfact>
</mgrwt>
</event>
<event>
12    1  0.1335216E-007  0.1164973E+04  0.7818608E-02  0.9144081E-01
         -2   -1    0    0    0  501 -0.00000000000E+00  0.00000000000E+00  0.14045094912E+04  0.14045094912E+04  0.00000000000E+00 0.  1.
          2   -1    0    0  501    0  0.00000000000E+00 -0.00000000000E+00 -0.10133155312E+04  0.10133155312E+04  0.00000000000E+00 0. -1.
         23    2    1    2    0    0  0.69351587467E+02 -0.11120274617E+04  0.24244127116E+03  0.11439094288E+04  0.91303303300E+02 0.  0.
    5000000    2    1    2    0    0 -0.69351587467E+02  0.11120274617E+04  0.14875268883E+03  0.12739155935E+04  0.59943211359E+03 0.  0.
         23    2    4    4    0    0 -0.26553516109E+03  0.55119282079E+03 -0.94549747592E+02  0.62544438645E+03  0.88986393958E+02 0.  0.
         23    2    4    4    0    0  0.19618357362E+03  0.56083464089E+03  0.24330243642E+03  0.64847120709E+03  0.91078767376E+02 0.  0.
          2    1    3    3  502    0  0.21063675237E+02 -0.88155266530E+03  0.20704519911E+03  0.90578501566E+03  0.00000000000E+00 0. -1.
         -2    1    3    3    0  502  0.48287912230E+02 -0.23047479638E+03  0.35396072055E+02  0.23812441318E+03  0.00000000000E+00 0.  1.
         13    1    5    5    0    0 -0.21489156206E+03  0.44334533020E+03 -0.39693394278E+02  0.49427626972E+03  0.00000000000E+00 0.  1.
        -13    1    5    5    0    0 -0.50643599029E+02  0.10784749059E+03 -0.54856353314E+02  0.13116811673E+03  0.00000000000E+00 0. -1.
          3    1    6    6  503    0  0.10466809405E+03  0.17172156794E+03  0.90502237517E+02  0.22053199723E+03  0.00000000000E+00 0. -1.
         -3    1    6    6    0  503  0.91515479568E+02  0.38911307296E+03  0.15280019891E+03  0.42793920986E+03  0.00000000000E+00 0.  1.
<mgrwt>
<rscale>  0 0.11649729E+04</rscale>
<asrwt>0</asrwt>
<pdfrwt beam="1">  1        2 0.15589470E+00 0.11649729E+04</pdfrwt>
<pdfrwt beam="2">  1       -2 0.21607838E+00 0.11649729E+04</pdfrwt>
<totfact> 0.25232165E+00</totfact>
</mgrwt>
</event>
<event>
12    1  0.1335216E-007  0.7033340E+03  0.7818608E-02  0.9711547E-01
          1   -1    0    0  501    0  0.00000000000E+00  0.00000000000E+00  0.12213078576E+04  0.12213078576E+04  0.00000000000E+00 0. -1.
         -1   -1    0    0    0  501 -0.00000000000E+00 -0.00000000000E+00 -0.60591036124E+03  0.60591036124E+03  0.00000000000E+00 0.  1.
         23    2    1    2    0    0 -0.63554552203E+03  0.14638961666E+03  0.67047015219E+03  0.93934849011E+03  0.86587126463E+02 0.  0.
    5000000    2    1    2    0    0  0.63554552203E+03 -0.14638961666E+03 -0.55072655817E+02  0.88786972873E+03  0.59994302008E+03 0.  0.
         23    2    4    4    0    0  0.64996779573E+03 -0.10267173890E+03 -0.21473125775E+03  0.69854317238E+03  0.94092662659E+02 0.  0.
         23    2    4    4    0    0 -0.14422273700E+02 -0.43717877762E+02  0.15965860193E+03  0.18932655636E+03  0.90743710281E+02 0.  0.
          3    1    3    3  502    0 -0.53558656516E+03  0.11945125463E+03  0.51497289566E+03  0.75254146349E+03  0.00000000000E+00 0. -1.
         -3    1    3    3    0  502 -0.99958956867E+02  0.26938362031E+02  0.15549725653E+03  0.18680702662E+03  0.00000000000E+00 0.  1.
         11    1    5    5    0    0  0.39137009376E+03 -0.25036901995E+02 -0.15706797570E+03  0.42245443037E+03  0.00000000000E+00 0.  1.
        -11    1    5    5    0    0  0.25859770197E+03 -0.77634836906E+02 -0.57663282053E+02  0.27608874201E+03  0.00000000000E+00 0. -1.
          4    1    6    6  503    0  0.16003578600E+02 -0.56871272659E+02  0.59599772043E+02  0.83920134708E+02  0.00000000000E+00 0. -1.
         -4    1    6    6    0  503 -0.30425852300E+02  0.13153394897E+02  0.10005882989E+03  0.10540642165E+03  0.00000000000E+00 0.  1.
<mgrwt>
<rscale>  0 0.70333403E+03</rscale>
<asrwt>0</asrwt>
<pdfrwt beam="1">  1        1 0.18789352E+00 0.70333403E+03</pdfrwt>
<pdfrwt beam="2">  1       -1 0.93216979E-01 0.70333403E+03</pdfrwt>
<totfact> 0.11989877E+01</totfact>
</mgrwt>
</event>
<event>
12    1  0.1335216E-007  0.5454514E+03  0.7818608E-02  0.1002552E+00
         -2   -1    0    0    0  501 -0.00000000000E+00  0.00000000000E+00  0.12180616973E+03  0.12180616973E+03  0.00000000000E+00 0.  1.
          2   -1    0    0  501    0  0.00000000000E+00 -0.00000000000E+00 -0.37622704524E+04  0.37622704524E+04  0.00000000000E+00 0. -1.
         23    2    1    2    0    0 -0.16628830102E+03 -0.49482643283E+03 -0.10809394191E+04  0.12038583802E+04  0.91323458445E+02 0.  0.
    5000000    2    1    2    0    0  0.16628830102E+03  0.49482643283E+03 -0.25595248635E+04  0.26802182419E+04  0.59991441022E+03 0.  0.
         23    2    4    4    0    0  0.10631851565E+03  0.11497997519E+03 -0.13819269249E+03  0.22683835442E+03  0.88512130866E+02 0.  0.
         23    2    4    4    0    0  0.59969785363E+02  0.37984645764E+03 -0.24213321710E+04  0.24533798875E+04  0.91343764710E+02 0.  0.
          1    1    3    3  502    0 -0.78582355556E+02 -0.29331257536E+03 -0.53203559369E+03  0.61259230032E+03  0.00000000000E+00 0. -1.
         -1    1    3    3    0  502 -0.87705945461E+02 -0.20151385748E+03 -0.54890382546E+03  0.59126607989E+03  0.00000000000E+00 0.  1.
         13    1    5    5    0    0  0.11075451833E+03  0.66375822801E+02 -0.11454017475E+03  0.17260291080E+03  0.00000000000E+00 0. -1.
        -13    1    5    5    0    0 -0.44360026754E+01  0.48604152390E+02 -0.23652517739E+02  0.54235443620E+02  0.00000000000E+00 0.  1.
          2    1    6    6  503    0  0.71337864112E+02  0.27567599950E+03 -0.15690562068E+04  0.15946860906E+04  0.00000000000E+00 0. -1.
         -2    1    6    6    0  503 -0.11368078749E+02  0.10417045814E+03 -0.85227596423E+03  0.85869379687E+03  0.00000000000E+00 0.  1.
<mgrwt>
<rscale>  0 0.54545142E+03</rscale>
<asrwt>0</asrwt>
<pdfrwt beam="1">  1        2 0.57881080E+00 0.54545142E+03</pdfrwt>
<pdfrwt beam="2">  1       -2 0.18739412E-01 0.54545142E+03</pdfrwt>
<totfact> 0.14303677E+01</totfact>
</mgrwt>
</event>
<event>
12    1  0.1335216E-007  0.5651801E+03  0.7818608E-02  0.9980402E-01
          1   -1    0    0  501    0  0.00000000000E+00  0.00000000000E+00  0.17213120023E+04  0.17213120023E+04  0.00000000000E+00 0.  1.
         -1   -1    0    0    0  501 -0.00000000000E+00 -0.00000000000E+00 -0.36477142096E+03  0.36477142096E+03  0.00000000000E+00 0. -1.
         23    2    1    2    0    0 -0.47415192714E+03  0.19257927834E+03  0.11632781509E+04  0.12741202283E+04  0.90881633955E+02 0.  0.
    5000000    2    1    2    0    0  0.47415192714E+03 -0.19257927834E+03  0.19326243045E+03  0.81196319495E+03  0.60002252831E+03 0.  0.
         23    2    4    4    0    0  0.48220557377E+03 -0.23817537004E+03  0.33264908561E+03  0.63737420047E+03  0.79628732258E+02 0.  0.
         23    2    4    4    0    0 -0.80536466288E+01  0.45596091700E+02 -0.13938665516E+03  0.17458899448E+03  0.94386506215E+02 0.  0.
          3    1    3    3  502    0 -0.21073656477E+03  0.37374727149E+02  0.48317506778E+03  0.52845521672E+03  0.00000000000E+00 0. -1.
         -3    1    3    3    0  502 -0.26341536237E+03  0.15520455119E+03  0.68010308308E+03  0.74566501156E+03  0.00000000000E+00 0.  1.
         13    1    5    5    0    0  0.21075634912E+03 -0.11419150647E+03  0.10337116727E+03  0.26104317089E+03  0.00000000000E+00 0.  1.
        -13    1    5    5    0    0  0.27144922465E+03 -0.12398386357E+03  0.22927791834E+03  0.37633102958E+03  0.00000000000E+00 0. -1.
          4    1    6    6  503    0 -0.31552005677E+02  0.33575616596E+02 -0.16562586794E+02  0.48960906582E+02  0.00000000000E+00 0. -1.
         -4    1    6    6    0  503  0.23498359048E+02  0.12020475104E+02 -0.12282406837E+03  0.12562808790E+03  0.00000000000E+00 0.  1.
<mgrwt>
<rscale>  0 0.56518006E+03</rscale>
<asrwt>0</asrwt>
<pdfrwt beam="1">  1        1 0.26481723E+00 0.56518006E+03</pdfrwt>
<pdfrwt beam="2">  1       -1 0.56118681E-01 0.56518006E+03</pdfrwt>
<totfact> 0.15861368E+01</totfact>
</mgrwt>
</event>
<event>
12    1  0.1335216E-007  0.2994663E+03  0.7818608E-02  0.1085508E+00
         -2   -1    0    0    0  501 -0.00000000000E+00  0.00000000000E+00  0.26286126982E+03  0.26286126982E+03  0.00000000000E+00 0.  1.
          2   -1    0    0  501    0  0.00000000000E+00 -0.00000000000E+00 -0.86727681331E+03  0.86727681331E+03  0.00000000000E+00 0. -1.
         23    2    1    2    0    0  0.23796676634E+03 -0.95448201204E+02 -0.56395396905E+02  0.27801450890E+03  0.91504564763E+02 0.  0.
    5000000    2    1    2    0    0 -0.23796676634E+03  0.95448201204E+02 -0.54802014658E+03  0.85212357423E+03  0.60004163497E+03 0.  0.
         23    2    4    4    0    0 -0.76347368018E+02 -0.47592694905E+02 -0.59873759056E+03  0.61222447100E+03  0.90764064131E+02 0.  0.
         23    2    4    4    0    0 -0.16161939832E+03  0.14304089611E+03  0.50717443979E+02  0.23989910322E+03  0.91639471459E+02 0.  0.
          3    1    3    3  502    0  0.21256496068E+03 -0.47422716598E+02 -0.41900922122E+02  0.22178472408E+03  0.00000000000E+00 0. -1.
         -3    1    3    3    0  502  0.25401805660E+02 -0.48025484606E+02 -0.14494474783E+02  0.56229784827E+02  0.00000000000E+00 0.  1.
         13    1    5    5    0    0 -0.66536663896E+02 -0.23388535047E+02 -0.19023585973E+03  0.20288872206E+03  0.00000000000E+00 0. -1.
        -13    1    5    5    0    0 -0.98107041215E+01 -0.24204159858E+02 -0.40850173083E+03  0.40933574894E+03  0.00000000000E+00 0.  1.
          4    1    6    6  503    0 -0.67907350463E+02  0.11833103265E+02  0.36600654682E+02  0.78045105567E+02  0.00000000000E+00 0. -1.
         -4    1    6    6    0  503 -0.93712047862E+02  0.13120779284E+03  0.14116789297E+02  0.16185399766E+03  0.00000000000E+00 0.  1.
<mgrwt>
<rscale>  0 0.29946628E+03</rscale>
<asrwt>0</asrwt>
<pdfrwt beam="1">  1        2 0.13342720E+00 0.29946628E+03</pdfrwt>
<pdfrwt beam="2">  1       -2 0.40440195E-01 0.29946628E+03</pdfrwt>
<totfact> 0.18743356E+02</totfact>
</mgrwt>
</event>
<event>
12    1  0.1335216E-007  0.1046849E+04  0.7818608E-02  0.9258603E-01
         -1   -1    0    0    0  501 -0.00000000000E+00  0.00000000000E+00  0.13055690474E+04  0.13055690474E+04  0.00000000000E+00 0.  1.
          1   -1    0    0  501    0  0.00000000000E+00 -0.00000000000E+00 -0.84688436113E+03  0.84688436113E+03  0.00000000000E+00 0. -1.
         23    2    1    2    0    0  0.95145565413E+03  0.14842677595E+03  0.17614021909E+03  0.98322163564E+03  0.91657178777E+02 0.  0.
    5000000    2    1    2    0    0 -0.95145565413E+03 -0.14842677595E+03  0.28254446716E+03  0.11692317729E+04  0.59997766058E+03 0.  0.
         23    2    4    4    0    0 -0.80494208640E+03 -0.33617294605E+03  0.18102208859E+03  0.89554485938E+03  0.91036182365E+02 0.  0.
         23    2    4    4    0    0 -0.14651356773E+03  0.18774617010E+03  0.10152237857E+03  0.27368691349E+03  0.88785603287E+02 0.  0.
          3    1    3    3  502    0  0.26140443695E+03  0.13056425086E+01  0.59353015117E+02  0.26806112132E+03  0.00000000000E+00 0. -1.
         -3    1    3    3    0  502  0.69005121718E+03  0.14712113344E+03  0.11678720397E+03  0.71516051432E+03  0.00000000000E+00 0.  1.
         13    1    5    5    0    0 -0.41231884183E+03 -0.14322969099E+03  0.12802807666E+03  0.45487664275E+03  0.00000000000E+00 0.  1.
        -13    1    5    5    0    0 -0.39262324457E+03 -0.19294325506E+03  0.52994011935E+02  0.44066821663E+03  0.00000000000E+00 0. -1.
          4    1    6    6  503    0  0.27013768368E+01  0.48826286124E+02  0.86602389669E+01  0.49661890746E+02  0.00000000000E+00 0. -1.
         -4    1    6    6    0  503 -0.14921494456E+03  0.13891988398E+03  0.92862139599E+02  0.22402502275E+03  0.00000000000E+00 0.  1.
<mgrwt>
<rscale>  0 0.10468495E+04</rscale>
<asrwt>0</asrwt>
<pdfrwt beam="1">  1        1 0.13028990E+00 0.10468495E+04</pdfrwt>
<pdfrwt beam="2">  1       -1 0.20085678E+00 0.10468495E+04</pdfrwt>
<totfact> 0.29871071E+00</totfact>
</mgrwt>
</event>
<event>
12    1  0.1335216E-007  0.5417242E+03  0.7818608E-02  0.1003428E+00
         -2   -1    0    0    0  501 -0.00000000000E+00  0.00000000000E+00  0.49864561730E+03  0.49864561730E+03  0.00000000000E+00 0.  1.
          2   -1    0    0  501    0  0.00000000000E+00 -0.00000000000E+00 -0.10441045143E+04  0.10441045143E+04  0.00000000000E+00 0. -1.
         23    2    1    2    0    0  0.47618035962E+03  0.22952204360E+03  0.59957088043E+02  0.53976046540E+03  0.91205286104E+02 0.  0.
    5000000    2    1    2    0    0 -0.47618035962E+03 -0.22952204360E+03 -0.60541598501E+03  0.10029896662E+04  0.60002637620E+03 0.  0.
         23    2    4    4    0    0 -0.52655271246E+02 -0.92038226606E+02 -0.52160626865E+03  0.54008028011E+03  0.91487686127E+02 0.  0.
         23    2    4    4    0    0 -0.42352508838E+03 -0.13748381699E+03 -0.83809716358E+02  0.46290938606E+03  0.94793094307E+02 0.  0.
          2    1    3    3  502    0  0.20157234055E+03  0.10989994707E+03 -0.17881161259E+02  0.23028057401E+03  0.00000000000E+00 0. -1.
         -2    1    3    3    0  502  0.27460801907E+03  0.11962209653E+03  0.77838249302E+02  0.30947989139E+03  0.00000000000E+00 0.  1.
         13    1    5    5    0    0 -0.49791596008E+02 -0.83007005800E+02 -0.24668714103E+03  0.26499794640E+03  0.00000000000E+00 0. -1.
        -13    1    5    5    0    0 -0.28636752378E+01 -0.90312208064E+01 -0.27491912762E+03  0.27508233371E+03  0.00000000000E+00 0.  1.
          3    1    6    6  503    0 -0.29529702541E+03 -0.71397410851E+02 -0.94752249746E+02  0.31823876622E+03  0.00000000000E+00 0. -1.
         -3    1    6    6    0  503 -0.12822806296E+03 -0.66086406139E+02  0.10942533388E+02  0.14467061984E+03  0.00000000000E+00 0.  1.
<mgrwt>
<rscale>  0 0.54172419E+03</rscale>
<asrwt>0</asrwt>
<pdfrwt beam="1">  1        2 0.16063146E+00 0.54172419E+03</pdfrwt>
<pdfrwt beam="2">  1       -2 0.76714711E-01 0.54172419E+03</pdfrwt>
<totfact> 0.37291687E+01</totfact>
</mgrwt>
</event>
<event>
12    1  0.1335216E-007  0.5537928E+03  0.7818608E-02  0.1000620E+00
          1   -1    0    0  501    0  0.00000000000E+00  0.00000000000E+00  0.17292540821E+04  0.17292540821E+04  0.00000000000E+00 0. -1.
         -1   -1    0    0    0  501 -0.00000000000E+00 -0.00000000000E+00 -0.80454562281E+03  0.80454562281E+03  0.00000000000E+00 0.  1.
         23    2    1    2    0    0  0.44617654745E+03  0.15289603625E+03  0.15018272338E+04  0.15769200426E+04  0.93493696097E+02 0.  0.
    5000000    2    1    2    0    0 -0.44617654745E+03 -0.15289603625E+03 -0.57711877450E+03  0.95687966231E+03  0.60008490972E+03 0.  0.
         23    2    4    4    0    0 -0.49940975878E+03 -0.80810618043E+02 -0.63474979100E+03  0.81683329245E+03  0.91481513566E+02 0.  0.
         23    2    4    4    0    0  0.53233211326E+02 -0.72085418203E+02  0.57631016502E+02  0.14004636986E+03  0.90893175450E+02 0.  0.
          1    1    3    3  502    0  0.69846132312E+02  0.29374791804E+02  0.14696033806E+03  0.16534419118E+03  0.00000000000E+00 0. -1.
         -1    1    3    3    0  502  0.37633041514E+03  0.12352124444E+03  0.13548668957E+04  0.14115758514E+04  0.00000000000E+00 0.  1.
         13    1    5    5    0    0 -0.43797028611E+03 -0.39437364274E+02 -0.55273513216E+03  0.70632103433E+03  0.00000000000E+00 0. -1.
        -13    1    5    5    0    0 -0.61439472674E+02 -0.41373253769E+02 -0.82014658843E+02  0.11051225812E+03  0.00000000000E+00 0.  1.
          1    1    6    6  503    0  0.29885234987E+02  0.13797686303E+02  0.35344080563E+02  0.48298110195E+02  0.00000000000E+00 0. -1.
         -1    1    6    6    0  503  0.23347976339E+02 -0.85883104506E+02  0.22286935939E+02  0.91748259669E+02  0.00000000000E+00 0.  1.
<mgrwt>
<rscale>  0 0.55379279E+03</rscale>
<asrwt>0</asrwt>
<pdfrwt beam="1">  1        1 0.26603909E+00 0.55379279E+03</pdfrwt>
<pdfrwt beam="2">  1       -1 0.12377625E+00 0.55379279E+03</pdfrwt>
<totfact> 0.28563564E+00</totfact>
</mgrwt>
</event>
<event>
12    1  0.1335216E-007  0.8614279E+03  0.7818608E-02  0.9475126E-01
          2   -1    0    0  501    0  0.00000000000E+00  0.00000000000E+00  0.16887735224E+04  0.16887735224E+04  0.00000000000E+00 0. -1.
         -2   -1    0    0    0  501 -0.00000000000E+00 -0.00000000000E+00 -0.10180553133E+04  0.10180553133E+04  0.00000000000E+00 0.  1.
         23    2    1    2    0    0  0.76265676892E+03  0.45452784188E+02 -0.69102582962E+03  0.10341645653E+04  0.90930458045E+02 0.  0.
    5000000    2    1    2    0    0 -0.76265676892E+03 -0.45452784188E+02  0.13617440388E+04  0.16726642704E+04  0.59978965609E+03 0.  0.
         23    2    4    4    0    0 -0.76964246146E+03 -0.18967011227E+03  0.10692227344E+04  0.13340916633E+04  0.90769159006E+02 0.  0.
         23    2    4    4    0    0  0.69856925353E+01  0.14421732809E+03  0.29252130435E+03  0.33857260712E+03  0.90638066933E+02 0.  0.
          1    1    3    3  502    0  0.47843368374E+03  0.71392965808E+01 -0.37937154558E+03  0.61063289208E+03  0.00000000000E+00 0. -1.
         -1    1    3    3    0  502  0.28422308518E+03  0.38313487607E+02 -0.31165428404E+03  0.42353167325E+03  0.00000000000E+00 0.  1.
         13    1    5    5    0    0 -0.14218481824E+03 -0.11731400784E+02  0.15013742803E+03  0.20711203634E+03  0.00000000000E+00 0. -1.
        -13    1    5    5    0    0 -0.62745764322E+03 -0.17793871149E+03  0.91908530641E+03  0.11269796269E+04  0.00000000000E+00 0.  1.
          1    1    6    6  503    0 -0.33744371983E+02  0.53312392294E+02  0.67002672803E+02  0.92033971855E+02  0.00000000000E+00 0. -1.
         -1    1    6    6    0  503  0.40730064518E+02  0.90904935793E+02  0.22551863154E+03  0.24653863527E+03  0.00000000000E+00 0.  1.
<mgrwt>
<rscale>  0 0.86142793E+03</rscale>
<asrwt>0</asrwt>
<pdfrwt beam="1">  1        2 0.25981131E+00 0.86142793E+03</pdfrwt>
<pdfrwt beam="2">  1       -2 0.15662389E+00 0.86142793E+03</pdfrwt>
<totfact> 0.26900007E+00</totfact>
</mgrwt>
</event>
<event>
12    1  0.1335216E-007  0.4839550E+03  0.7818608E-02  0.1018054E+00
         -1   -1    0    0    0  501 -0.00000000000E+00  0.00000000000E+00  0.32736477799E+03  0.32736477799E+03  0.00000000000E+00 0.  1.
          1   -1    0    0  501    0  0.00000000000E+00 -0.00000000000E+00 -0.16910599611E+04  0.16910599611E+04  0.00000000000E+00 0. -1.
         23    2    1    2    0    0 -0.17693499811E+03 -0.43341331079E+03 -0.11229115908E+04  0.12202790368E+04  0.94854601527E+02 0.  0.
    5000000    2    1    2    0    0  0.17693499811E+03  0.43341331079E+03 -0.24078359240E+03  0.79814570234E+03  0.59992227186E+03 0.  0.
         23    2    4    4    0    0  0.51735576694E+02  0.26979677596E+03  0.16632264593E+03  0.33322763293E+03  0.88941343501E+02 0.  0.
         23    2    4    4    0    0  0.12519942141E+03  0.16361653483E+03 -0.40710623833E+03  0.46491806942E+03  0.89263970293E+02 0.  0.
          4    1    3    3  502    0 -0.52721492595E+02 -0.12811973436E+03 -0.45240133657E+03  0.47313971662E+03  0.00000000000E+00 0. -1.
         -4    1    3    3    0  502 -0.12421350551E+03 -0.30529357644E+03 -0.67051025418E+03  0.74713932016E+03  0.00000000000E+00 0.  1.
         13    1    5    5    0    0  0.76976850385E+02  0.18924662628E+03  0.11528842300E+03  0.23458717256E+03  0.00000000000E+00 0.  1.
        -13    1    5    5    0    0 -0.25241273690E+02  0.80550149685E+02  0.51034222926E+02  0.98640460367E+02  0.00000000000E+00 0. -1.
          1    1    6    6  503    0  0.54710776812E+02  0.10872843048E+03 -0.30963007786E+03  0.33269494407E+03  0.00000000000E+00 0. -1.
         -1    1    6    6    0  503  0.70488644602E+02  0.54888104353E+02 -0.97476160469E+02  0.13222312535E+03  0.00000000000E+00 0.  1.
<mgrwt>
<rscale>  0 0.48395497E+03</rscale>
<asrwt>0</asrwt>
<pdfrwt beam="1">  1        1 0.26016307E+00 0.48395497E+03</pdfrwt>
<pdfrwt beam="2">  1       -1 0.50363811E-01 0.48395497E+03</pdfrwt>
<totfact> 0.20755648E+01</totfact>
</mgrwt>
</event>
<event>
12    1  0.1335216E-007  0.1136586E+04  0.7818608E-02  0.9170249E-01
         -2   -1    0    0    0  501 -0.00000000000E+00  0.00000000000E+00  0.13084942692E+04  0.13084942692E+04  0.00000000000E+00 0. -1.
          2   -1    0    0  501    0  0.00000000000E+00 -0.00000000000E+00 -0.12143597316E+04  0.12143597316E+04  0.00000000000E+00 0.  1.
         23    2    1    2    0    0  0.64369371462E+03  0.92363882688E+03 -0.33245794533E+03  0.11774320102E+04  0.91474435816E+02 0.  0.
    5000000    2    1    2    0    0 -0.64369371462E+03 -0.92363882688E+03  0.42659248292E+03  0.13454219906E+04  0.60060711412E+03 0.  0.
         23    2    4    4    0    0 -0.19944154516E+03 -0.21239482265E+03  0.39679661156E+03  0.50242117068E+03  0.10045392566E+03 0.  0.
         23    2    4    4    0    0 -0.44425216946E+03 -0.71124400423E+03  0.29795871362E+02  0.84300081991E+03  0.80836655050E+02 0.  0.
          3    1    3    3  502    0  0.39531766585E+03  0.63299145822E+03 -0.24211862368E+03  0.78458630567E+03  0.00000000000E+00 0. -1.
         -3    1    3    3    0  502  0.24837604877E+03  0.29064736866E+03 -0.90339321658E+02  0.39284570450E+03  0.00000000000E+00 0.  1.
         13    1    5    5    0    0 -0.96463731248E+02 -0.16679406162E+03  0.28256842739E+03  0.34200939548E+03  0.00000000000E+00 0.  1.
        -13    1    5    5    0    0 -0.10297781391E+03 -0.45600761025E+02  0.11422818416E+03  0.16041177520E+03  0.00000000000E+00 0. -1.
          3    1    6    6  503    0 -0.40735737670E+03 -0.66804496571E+03  0.89854152546E+01  0.78249910304E+03  0.00000000000E+00 0. -1.
         -3    1    6    6    0  503 -0.36894792753E+02 -0.43199038520E+02  0.20810456107E+02  0.60501716874E+02  0.00000000000E+00 0.  1.
<mgrwt>
<rscale>  0 0.11365855E+04</rscale>
<asrwt>0</asrwt>
<pdfrwt beam="1">  1        2 0.18682457E+00 0.11365855E+04</pdfrwt>
<pdfrwt beam="2">  1       -2 0.20130681E+00 0.11365855E+04</pdfrwt>
<totfact> 0.23666193E+00</totfact>
</mgrwt>
</event>
<event>
12    1  0.1335216E-007  0.1124031E+04  0.7818608E-02  0.9182081E-01
         -2   -1    0    0    0  501 -0.00000000000E+00  0.00000000000E+00  0.64438460337E+03  0.64438460337E+03  0.00000000000E+00 0.  1.
          2   -1    0    0  501    0  0.00000000000E+00 -0.00000000000E+00 -0.32541996404E+04  0.32541996404E+04  0.00000000000E+00 0. -1.
         23    2    1    2    0    0 -0.10005770026E+04 -0.41187546847E+03 -0.87696148245E+02  0.10893384759E+04  0.90398899961E+02 0.  0.
    5000000    2    1    2    0    0  0.10005770026E+04  0.41187546847E+03 -0.25221188888E+04  0.28092457679E+04  0.59998529589E+03 0.  0.
         23    2    4    4    0    0  0.34113728823E+03  0.36550209799E+03 -0.66917647884E+03  0.84028502342E+03  0.91188418639E+02 0.  0.
         23    2    4    4    0    0  0.65943971435E+03  0.46373370478E+02 -0.18529424100E+04  0.19689607444E+04  0.79997575563E+02 0.  0.
          3    1    3    3  502    0 -0.71613791973E+03 -0.30415860124E+03 -0.10278366967E+03  0.78481237091E+03  0.00000000000E+00 0. -1.
         -3    1    3    3    0  502 -0.28443908286E+03 -0.10771686724E+03  0.15087521422E+02  0.30452610503E+03  0.00000000000E+00 0.  1.
         11    1    5    5    0    0  0.13614110806E+03  0.14479424389E+03 -0.19438822299E+03  0.27800459637E+03  0.00000000000E+00 0. -1.
        -11    1    5    5    0    0  0.20499618018E+03  0.22070785410E+03 -0.47478825585E+03  0.56228042705E+03  0.00000000000E+00 0.  1.
          1    1    6    6  503    0  0.29749555074E+03 -0.18942104130E+02 -0.83232180830E+03  0.88409388562E+03  0.00000000000E+00 0. -1.
         -1    1    6    6    0  503  0.36194416361E+03  0.65315474608E+02 -0.10206206017E+04  0.10848668588E+04  0.00000000000E+00 0.  1.
<mgrwt>
<rscale>  0 0.11240309E+04</rscale>
<asrwt>0</asrwt>
<pdfrwt beam="1">  1        2 0.50064609E+00 0.11240309E+04</pdfrwt>
<pdfrwt beam="2">  1       -2 0.99136094E-01 0.11240309E+04</pdfrwt>
<totfact> 0.10136774E+00</totfact>
</mgrwt>
</event>
<event>
12    1  0.1335216E-007  0.4542084E+03  0.7818608E-02  0.1026474E+00
         -2   -1    0    0    0  501 -0.00000000000E+00  0.00000000000E+00  0.53310419311E+03  0.53310419311E+03  0.00000000000E+00 0.  1.
          2   -1    0    0  501    0  0.00000000000E+00 -0.00000000000E+00 -0.28270050834E+04  0.28270050834E+04  0.00000000000E+00 0. -1.
         23    2    1    2    0    0 -0.35166817459E+03 -0.25125578327E+03  0.38213759241E+03  0.58382631021E+03  0.89577046797E+02 0.  0.
    5000000    2    1    2    0    0  0.35166817459E+03  0.25125578327E+03 -0.26760384827E+04  0.27762829663E+04  0.59980428009E+03 0.  0.
         23    2    4    4    0    0  0.22391711144E+03  0.21025912304E+03 -0.49815276008E+03  0.59242219430E+03  0.91978868859E+02 0.  0.
         23    2    4    4    0    0  0.12775106315E+03  0.40996660230E+02 -0.21778857226E+04  0.21838607720E+04  0.89780790582E+02 0.  0.
          3    1    3    3  502    0 -0.17827066789E+03 -0.18158046447E+03  0.22476348688E+03  0.33951512653E+03  0.00000000000E+00 0. -1.
         -3    1    3    3    0  502 -0.17339750670E+03 -0.69675318798E+02  0.15737410553E+03  0.24431118368E+03  0.00000000000E+00 0.  1.
         13    1    5    5    0    0  0.10112099335E+03  0.81906815186E+02 -0.29583125768E+03  0.32318773908E+03  0.00000000000E+00 0.  1.
        -13    1    5    5    0    0  0.12279611809E+03  0.12835230785E+03 -0.20232150239E+03  0.26923445522E+03  0.00000000000E+00 0. -1.
          3    1    6    6  503    0  0.97122232002E+02 -0.12247606387E+02 -0.11598933237E+04  0.11640168617E+04  0.00000000000E+00 0. -1.
         -3    1    6    6    0  503  0.30628831153E+02  0.53244266618E+02 -0.10179923989E+04  0.10198439103E+04  0.00000000000E+00 0.  1.
<mgrwt>
<rscale>  0 0.45420845E+03</rscale>
<asrwt>0</asrwt>
<pdfrwt beam="1">  1        2 0.43492385E+00 0.45420845E+03</pdfrwt>
<pdfrwt beam="2">  1       -2 0.82016031E-01 0.45420845E+03</pdfrwt>
<totfact> 0.33300845E+00</totfact>
</mgrwt>
</event>
<event>
12    1  0.1335216E-007  0.7646475E+03  0.7818608E-02  0.9612647E-01
          1   -1    0    0  501    0  0.00000000000E+00  0.00000000000E+00  0.11011543749E+04  0.11011543749E+04  0.00000000000E+00 0. -1.
         -1   -1    0    0    0  501 -0.00000000000E+00 -0.00000000000E+00 -0.93291863252E+03  0.93291863252E+03  0.00000000000E+00 0.  1.
         23    2    1    2    0    0 -0.67416502304E+03 -0.10091274097E+03 -0.54632522245E+03  0.87819896180E+03  0.89890534786E+02 0.  0.
    5000000    2    1    2    0    0  0.67416502304E+03  0.10091274097E+03  0.71456096485E+03  0.11558740456E+04  0.60063764227E+03 0.  0.
         23    2    4    4    0    0  0.44382066533E+03 -0.17577853526E+03  0.58854639774E+03  0.76350150737E+03  0.93127939029E+02 0.  0.
         23    2    4    4    0    0  0.23034435770E+03  0.27669127623E+03  0.12601456711E+03  0.39237253827E+03  0.91977998426E+02 0.  0.
          3    1    3    3  502    0 -0.26693606710E+03 -0.74238238387E+02 -0.18524118485E+03  0.33328737828E+03  0.00000000000E+00 0. -1.
         -3    1    3    3    0  502 -0.40722895594E+03 -0.26674502582E+02 -0.36108403760E+03  0.54491158352E+03  0.00000000000E+00 0.  1.
         13    1    5    5    0    0  0.65243068704E+02 -0.38489416219E+01  0.45852825315E+02  0.79837046256E+02  0.00000000000E+00 0.  1.
        -13    1    5    5    0    0  0.37857759663E+03 -0.17192959364E+03  0.54269357242E+03  0.68366446111E+03  0.00000000000E+00 0. -1.
          1    1    6    6  503    0  0.19536613994E+03  0.25704527849E+03  0.82601807741E+02  0.33326155265E+03  0.00000000000E+00 0. -1.
         -1    1    6    6    0  503  0.34978217759E+02  0.19645997737E+02  0.43412759368E+02  0.59110985617E+02  0.00000000000E+00 0.  1.
<mgrwt>
<rscale>  0 0.76464748E+03</rscale>
<asrwt>0</asrwt>
<pdfrwt beam="1">  1        1 0.16940836E+00 0.76464748E+03</pdfrwt>
<pdfrwt beam="2">  1       -1 0.14352594E+00 0.76464748E+03</pdfrwt>
<totfact> 0.51404672E+00</totfact>
</mgrwt>
</event>
<event>
12    1  0.1335216E-007  0.8873362E+03  0.7818608E-02  0.9441552E-01
          2   -1    0    0  501    0  0.00000000000E+00  0.00000000000E+00  0.86119319710E+03  0.86119319710E+03  0.00000000000E+00 0. -1.
         -2   -1    0    0    0  501 -0.00000000000E+00 -0.00000000000E+00 -0.93344300944E+03  0.93344300944E+03  0.00000000000E+00 0.  1.
         23    2    1    2    0    0  0.54768222878E+03  0.57283836258E+03  0.15639667576E+01  0.79789644979E+03  0.92394183980E+02 0.  0.
    5000000    2    1    2    0    0 -0.54768222878E+03 -0.57283836258E+03 -0.73813779094E+02  0.99673975675E+03  0.59995171083E+03 0.  0.
         23    2    4    4    0    0 -0.58020036425E+03 -0.21694477288E+03 -0.37903941659E+02  0.62681722545E+03  0.88122801631E+02 0.  0.
         23    2    4    4    0    0  0.32518135475E+02 -0.35589358971E+03 -0.35909837435E+02  0.36992253130E+03  0.88518282914E+02 0.  0.
          4    1    3    3  502    0  0.19125472973E+03  0.22235887686E+03  0.42449372645E+02  0.29635079045E+03  0.00000000000E+00 0. -1.
         -4    1    3    3    0  502  0.35642749905E+03  0.35047948572E+03 -0.40885405887E+02  0.50154565934E+03  0.00000000000E+00 0.  1.
         13    1    5    5    0    0 -0.46980335602E+03 -0.18182682143E+03 -0.64730254335E+02  0.50790372331E+03  0.00000000000E+00 0. -1.
        -13    1    5    5    0    0 -0.11039700823E+03 -0.35117951448E+02  0.26826312676E+02  0.11891350214E+03  0.00000000000E+00 0.  1.
          4    1    6    6  503    0  0.26806460650E+02 -0.57486776942E+02 -0.32881171575E+02  0.71445694761E+02  0.00000000000E+00 0. -1.
         -4    1    6    6    0  503  0.57116748245E+01 -0.29840681276E+03 -0.30286658601E+01  0.29847683654E+03  0.00000000000E+00 0.  1.
<mgrwt>
<rscale>  0 0.88733619E+03</rscale>
<asrwt>0</asrwt>
<pdfrwt beam="1">  1        2 0.13249126E+00 0.88733619E+03</pdfrwt>
<pdfrwt beam="2">  1       -2 0.14360662E+00 0.88733619E+03</pdfrwt>
<totfact> 0.10497553E+01</totfact>
</mgrwt>
</event>
<event>
12    1  0.1335216E-007  0.6929070E+03  0.7818608E-02  0.9729440E-01
         -2   -1    0    0    0  501 -0.00000000000E+00  0.00000000000E+00  0.35926763517E+03  0.35926763517E+03  0.00000000000E+00 0.  1.
          2   -1    0    0  501    0  0.00000000000E+00 -0.00000000000E+00 -0.16606853808E+04  0.16606853808E+04  0.00000000000E+00 0. -1.
         23    2    1    2    0    0  0.11846641699E+03  0.60578339898E+03 -0.27988161295E+03  0.68408600126E+03  0.92909210633E+02 0.  0.
    5000000    2    1    2    0    0 -0.11846641699E+03 -0.60578339898E+03 -0.10215361327E+04  0.13358670147E+04  0.59999732683E+03 0.  0.
         23    2    4    4    0    0  0.16791239127E+03 -0.24407124785E+03 -0.14938009830E+03  0.34492829936E+03  0.94317404344E+02 0.  0.
         23    2    4    4    0    0 -0.28637880826E+03 -0.36171215113E+03 -0.87215603441E+03  0.99093871537E+03  0.91950460466E+02 0.  0.
          1    1    3    3  502    0  0.78921270773E+02  0.19960307474E+03 -0.74354705340E+02  0.22715320079E+03  0.00000000000E+00 0. -1.
         -1    1    3    3    0  502  0.39545146219E+02  0.40618032424E+03 -0.20552690761E+03  0.45693280047E+03  0.00000000000E+00 0.  1.
         11    1    5    5    0    0  0.64075504760E+02 -0.49413526346E+02 -0.79672726648E+02  0.11355663903E+03  0.00000000000E+00 0. -1.
        -11    1    5    5    0    0  0.10383688651E+03 -0.19465772151E+03 -0.69707371653E+02  0.23137166033E+03  0.00000000000E+00 0.  1.
          2    1    6    6  503    0 -0.15634494353E+03 -0.18704899102E+03 -0.55548471905E+03  0.60662536998E+03  0.00000000000E+00 0. -1.
         -2    1    6    6    0  503 -0.13003386473E+03 -0.17466316011E+03 -0.31667131536E+03  0.38431334540E+03  0.00000000000E+00 0.  1.
<mgrwt>
<rscale>  0 0.69290703E+03</rscale>
<asrwt>0</asrwt>
<pdfrwt beam="1">  1        2 0.25549006E+00 0.69290703E+03</pdfrwt>
<pdfrwt beam="2">  1       -2 0.55271944E-01 0.69290703E+03</pdfrwt>
<totfact> 0.32787878E+01</totfact>
</mgrwt>
</event>
<event>
12    1  0.1335216E-007  0.1011832E+04  0.7818608E-02  0.9295662E-01
          2   -1    0    0  501    0  0.00000000000E+00  0.00000000000E+00  0.98885632538E+03  0.98885632538E+03  0.00000000000E+00 0. -1.
         -2   -1    0    0    0  501 -0.00000000000E+00 -0.00000000000E+00 -0.11335244354E+04  0.11335244354E+04  0.00000000000E+00 0.  1.
         23    2    1    2    0    0  0.93279545330E+03  0.11817402606E+03 -0.31135575874E+03  0.99462829430E+03  0.90942713728E+02 0.  0.
    5000000    2    1    2    0    0 -0.93279545330E+03 -0.11817402606E+03  0.16668764876E+03  0.11277524664E+04  0.59997366208E+03 0.  0.
         23    2    4    4    0    0 -0.46004264594E+03  0.20627197239E+03  0.19090856871E+03  0.54664785931E+03  0.90501037580E+02 0.  0.
         23    2    4    4    0    0 -0.47275280736E+03 -0.32444599845E+03 -0.24220919952E+02  0.58110460713E+03  0.91298897546E+02 0.  0.
          1    1    3    3  502    0  0.62401360309E+03  0.36061847218E+02 -0.20024904309E+03  0.65634831677E+03  0.00000000000E+00 0. -1.
         -1    1    3    3    0  502  0.30878185022E+03  0.82112178843E+02 -0.11110671565E+03  0.33827997753E+03  0.00000000000E+00 0.  1.
         13    1    5    5    0    0 -0.24285092262E+03  0.93129118426E+02  0.52481516613E+02  0.26533735678E+03  0.00000000000E+00 0. -1.
        -13    1    5    5    0    0 -0.21719172333E+03  0.11314285396E+03  0.13842705210E+03  0.28131050254E+03  0.00000000000E+00 0.  1.
          4    1    6    6  503    0 -0.13514441394E+03 -0.10885222716E+03 -0.47313199282E+02  0.17986483481E+03  0.00000000000E+00 0. -1.
         -4    1    6    6    0  503 -0.33760839342E+03 -0.21559377129E+03  0.23092279330E+02  0.40123977232E+03  0.00000000000E+00 0.  1.
<mgrwt>
<rscale>  0 0.10118317E+04</rscale>
<asrwt>0</asrwt>
<pdfrwt beam="1">  1        2 0.15213174E+00 0.10118317E+04</pdfrwt>
<pdfrwt beam="2">  1       -2 0.17438837E+00 0.10118317E+04</pdfrwt>
<totfact> 0.50312306E+00</totfact>
</mgrwt>
</event>
<event>
12    1  0.1335216E-007  0.4947978E+03  0.7818608E-02  0.1015146E+00
         -1   -1    0    0    0  501 -0.00000000000E+00  0.00000000000E+00  0.12004302645E+03  0.12004302645E+03  0.00000000000E+00 0.  1.
          1   -1    0    0  501    0  0.00000000000E+00 -0.00000000000E+00 -0.26129758267E+04  0.26129758267E+04  0.00000000000E+00 0. -1.
         23    2    1    2    0    0 -0.38211222702E+03 -0.77370738819E+01 -0.11249166809E+04  0.11910880722E+04  0.84756358677E+02 0.  0.
    5000000    2    1    2    0    0  0.38211222702E+03  0.77370738819E+01 -0.13680161193E+04  0.15419307810E+04  0.60001067842E+03 0.  0.
         23    2    4    4    0    0  0.46947633416E+03 -0.82976780797E+02 -0.67236765038E+03  0.82918421327E+03  0.90415860095E+02 0.  0.
         23    2    4    4    0    0 -0.87364107142E+02  0.90713854679E+02 -0.69564846897E+03  0.71274656773E+03  0.90660833792E+02 0.  0.
          1    1    3    3  502    0 -0.21760410380E+03  0.14988569007E+02 -0.74919546336E+03  0.78030125304E+03  0.00000000000E+00 0. -1.
         -1    1    3    3    0  502 -0.16450812322E+03 -0.22725642889E+02 -0.37572121759E+03  0.41078681916E+03  0.00000000000E+00 0.  1.
         13    1    5    5    0    0  0.30640586872E+03 -0.76839246671E+02 -0.50319560581E+03  0.59413352365E+03  0.00000000000E+00 0. -1.
        -13    1    5    5    0    0  0.16307046544E+03 -0.61375341257E+01 -0.16917204457E+03  0.23505068962E+03  0.00000000000E+00 0.  1.
          4    1    6    6  503    0 -0.76517262543E+02  0.74325598413E+02 -0.33523754694E+03  0.35180022587E+03  0.00000000000E+00 0.  1.
         -4    1    6    6    0  503 -0.10846844599E+02  0.16388256265E+02 -0.36041092203E+03  0.36094634185E+03  0.00000000000E+00 0. -1.
<mgrwt>
<rscale>  0 0.49479785E+03</rscale>
<asrwt>0</asrwt>
<pdfrwt beam="1">  1        1 0.40199625E+00 0.49479785E+03</pdfrwt>
<pdfrwt beam="2">  1       -1 0.18468159E-01 0.49479785E+03</pdfrwt>
<totfact> 0.28890586E+01</totfact>
</mgrwt>
</event>
<event>
12    1  0.1335216E-007  0.1227267E+04  0.7818608E-02  0.9089319E-01
          1   -1    0    0  501    0  0.00000000000E+00  0.00000000000E+00  0.24340426427E+04  0.24340426427E+04  0.00000000000E+00 0.  1.
         -1   -1    0    0    0  501 -0.00000000000E+00 -0.00000000000E+00 -0.68810245156E+03  0.68810245156E+03  0.00000000000E+00 0. -1.
         23    2    1    2    0    0  0.65087122565E+03 -0.10313264082E+04  0.71794893697E+03  0.14181058481E+04  0.91137301966E+02 0.  0.
    5000000    2    1    2    0    0 -0.65087122565E+03  0.10313264082E+04  0.10279912542E+04  0.17040392462E+04  0.59976347101E+03 0.  0.
         23    2    4    4    0    0 -0.47030363114E+03  0.78566519833E+03  0.10354761207E+04  0.13855150896E+04  0.94794290469E+02 0.  0.
         23    2    4    4    0    0 -0.18056759451E+03  0.24566120985E+03 -0.74848665248E+01  0.31852415659E+03  0.91910439514E+02 0.  0.
          3    1    3    3  502    0  0.37216657854E+03 -0.66238868629E+03  0.47077742903E+03  0.89381101000E+03  0.00000000000E+00 0. -1.
         -3    1    3    3    0  502  0.27870464711E+03 -0.36893772189E+03  0.24717150794E+03  0.52429483813E+03  0.00000000000E+00 0.  1.
         11    1    5    5    0    0 -0.36844377141E+03  0.67273676554E+03  0.89208475443E+03  0.11764951243E+04  0.00000000000E+00 0. -1.
        -11    1    5    5    0    0 -0.10185985973E+03  0.11292843279E+03  0.14339136629E+03  0.20901996528E+03  0.00000000000E+00 0.  1.
          1    1    6    6  503    0 -0.55555902743E+02  0.27868244755E+02  0.21428989129E+02  0.65744193435E+02  0.00000000000E+00 0. -1.
         -1    1    6    6    0  503 -0.12501169177E+03  0.21779296510E+03 -0.28913855653E+02  0.25277996316E+03  0.00000000000E+00 0.  1.
<mgrwt>
<rscale>  0 0.12272674E+04</rscale>
<asrwt>0</asrwt>
<pdfrwt beam="1">  1        1 0.37446810E+00 0.12272674E+04</pdfrwt>
<pdfrwt beam="2">  1       -1 0.10586192E+00 0.12272674E+04</pdfrwt>
<totfact> 0.12390192E+00</totfact>
</mgrwt>
</event>
<event>
12    1  0.1335216E-007  0.7709555E+03  0.7818608E-02  0.9603036E-01
         -1   -1    0    0    0  501 -0.00000000000E+00  0.00000000000E+00  0.37199856884E+03  0.37199856884E+03  0.00000000000E+00 0.  1.
          1   -1    0    0  501    0  0.00000000000E+00 -0.00000000000E+00 -0.21859527879E+04  0.21859527879E+04  0.00000000000E+00 0. -1.
         23    2    1    2    0    0 -0.27525997310E+03 -0.68084832559E+03 -0.36230351618E+03  0.82385046444E+03  0.90239983760E+02 0.  0.
    5000000    2    1    2    0    0  0.27525997310E+03  0.68084832559E+03 -0.14516507028E+04  0.17341008923E+04  0.60041123098E+03 0.  0.
         23    2    4    4    0    0 -0.66522152931E+02  0.64748579735E+02 -0.65003761305E+03  0.66297749216E+03  0.91502356902E+02 0.  0.
         23    2    4    4    0    0  0.34178212603E+03  0.61609974585E+03 -0.80161308980E+03  0.10711234001E+04  0.91257186262E+02 0.  0.
          1    1    3    3  502    0 -0.44208459172E+02 -0.83095400292E+02 -0.16194299099E+02  0.95506485305E+02  0.00000000000E+00 0. -1.
         -1    1    3    3    0  502 -0.23105151393E+03 -0.59775292530E+03 -0.34610921708E+03  0.72834397913E+03  0.00000000000E+00 0.  1.
         13    1    5    5    0    0 -0.46930153004E+02  0.23809771465E+02 -0.12039248804E+03  0.13139138349E+03  0.00000000000E+00 0.  1.
        -13    1    5    5    0    0 -0.19591999927E+02  0.40938808270E+02 -0.52964512501E+03  0.53158610867E+03  0.00000000000E+00 0. -1.
          4    1    6    6  503    0  0.13937499671E+03  0.33224945003E+03 -0.44231665386E+03  0.57049023570E+03  0.00000000000E+00 0. -1.
         -4    1    6    6    0  503  0.20240712932E+03  0.28385029583E+03 -0.35929643594E+03  0.50063316443E+03  0.00000000000E+00 0.  1.
<mgrwt>
<rscale>  0 0.77095551E+03</rscale>
<asrwt>0</asrwt>
<pdfrwt beam="1">  1        1 0.33630041E+00 0.77095551E+03</pdfrwt>
<pdfrwt beam="2">  1       -1 0.57230552E-01 0.77095551E+03</pdfrwt>
<totfact> 0.72110957E+00</totfact>
</mgrwt>
</event>
<event>
12    1  0.1335216E-007  0.5156545E+03  0.7818608E-02  0.1009772E+00
          1   -1    0    0  501    0  0.00000000000E+00  0.00000000000E+00  0.45332789371E+03  0.45332789371E+03  0.00000000000E+00 0. -1.
         -1   -1    0    0    0  501 -0.00000000000E+00 -0.00000000000E+00 -0.12521156394E+04  0.12521156394E+04  0.00000000000E+00 0.  1.
         23    2    1    2    0    0 -0.33547883538E+03 -0.19248924363E+03  0.22374856827E+03  0.45832170099E+03  0.10196667052E+03 0.  0.
    5000000    2    1    2    0    0  0.33547883538E+03  0.19248924363E+03 -0.10225363140E+04  0.12471218321E+04  0.60011181697E+03 0.  0.
         23    2    4    4    0    0 -0.65886769036E+02 -0.10098591671E+03 -0.48659841729E+03  0.51015440018E+03  0.94553004210E+02 0.  0.
         23    2    4    4    0    0  0.40136560441E+03  0.29347516035E+03 -0.53593789669E+03  0.73696743195E+03  0.93110410295E+02 0.  0.
          2    1    3    3  502    0 -0.19074301698E+03 -0.11061485559E+03  0.18440201684E+03  0.28744155688E+03  0.00000000000E+00 0. -1.
         -2    1    3    3    0  502 -0.14473581840E+03 -0.81874388041E+02  0.39346551430E+02  0.17088014412E+03  0.00000000000E+00 0.  1.
         13    1    5    5    0    0 -0.56528621830E+02 -0.11628034207E+03 -0.46176632527E+03  0.47952553862E+03  0.00000000000E+00 0.  1.
        -13    1    5    5    0    0 -0.93581472060E+01  0.15294425358E+02 -0.24832092018E+02  0.30628861555E+02  0.00000000000E+00 0. -1.
          1    1    6    6  503    0  0.46307568251E+02  0.30234152594E+02 -0.11009684506E+03  0.12320637221E+03  0.00000000000E+00 0. -1.
         -1    1    6    6    0  503  0.35505803616E+03  0.26324100775E+03 -0.42584105163E+03  0.61376105974E+03  0.00000000000E+00 0.  1.
<mgrwt>
<rscale>  0 0.51565453E+03</rscale>
<asrwt>0</asrwt>
<pdfrwt beam="1">  1        1 0.69742753E-01 0.51565453E+03</pdfrwt>
<pdfrwt beam="2">  1       -1 0.19263317E+00 0.51565453E+03</pdfrwt>
<totfact> 0.91825430E+00</totfact>
</mgrwt>
</event>
<event>
12    1  0.1335216E-007  0.7435154E+03  0.7818608E-02  0.9645579E-01
         -2   -1    0    0    0  501 -0.00000000000E+00  0.00000000000E+00  0.40405518130E+03  0.40405518130E+03  0.00000000000E+00 0. -1.
          2   -1    0    0  501    0  0.00000000000E+00 -0.00000000000E+00 -0.16275920106E+04  0.16275920106E+04  0.00000000000E+00 0.  1.
         23    2    1    2    0    0  0.65895886617E+03 -0.92419813835E+02 -0.27245892942E+03  0.72500453547E+03  0.92895096444E+02 0.  0.
    5000000    2    1    2    0    0 -0.65895886617E+03  0.92419813835E+02 -0.95107789990E+03  0.13066426564E+04  0.59999804222E+03 0.  0.
         23    2    4    4    0    0 -0.60591568816E+03  0.22344798759E+03 -0.93226513425E+03  0.11377267543E+04  0.90780298811E+02 0.  0.
         23    2    4    4    0    0 -0.53043178011E+02 -0.13102817375E+03 -0.18812765648E+02  0.16891590212E+03  0.90535632684E+02 0.  0.
          4    1    3    3  502    0  0.14721855305E+03  0.17603392059E+02 -0.66740026750E+02  0.16259585771E+03  0.00000000000E+00 0. -1.
         -4    1    3    3    0  502  0.51174031312E+03 -0.11002320589E+03 -0.20571890267E+03  0.56240867776E+03  0.00000000000E+00 0.  1.
         11    1    5    5    0    0 -0.53258904804E+03  0.17241207408E+03 -0.83867305702E+03  0.10083399794E+04  0.00000000000E+00 0.  1.
        -11    1    5    5    0    0 -0.73326640116E+02  0.51035913505E+02 -0.93592077235E+02  0.12938677498E+03  0.00000000000E+00 0. -1.
          4    1    6    6  503    0 -0.71265809808E+02 -0.12961136393E+03 -0.90357128021E+01  0.14818760209E+03  0.00000000000E+00 0.  1.
         -4    1    6    6    0  503  0.18222631797E+02 -0.14168098262E+01 -0.97770528459E+01  0.20728300028E+02  0.00000000000E+00 0. -1.
<mgrwt>
<rscale>  0 0.74351538E+03</rscale>
<asrwt>0</asrwt>
<pdfrwt beam="1">  1        2 0.25039877E+00 0.74351538E+03</pdfrwt>
<pdfrwt beam="2">  1       -2 0.62162335E-01 0.74351538E+03</pdfrwt>
<totfact> 0.26541578E+01</totfact>
</mgrwt>
</event>
<event>
12    1  0.1335216E-007  0.5194526E+03  0.7818608E-02  0.1008823E+00
         -1   -1    0    0    0  501 -0.00000000000E+00  0.00000000000E+00  0.66837797255E+03  0.66837797255E+03  0.00000000000E+00 0.  1.
          1   -1    0    0  501    0  0.00000000000E+00 -0.00000000000E+00 -0.59982826307E+03  0.59982826307E+03  0.00000000000E+00 0. -1.
         23    2    1    2    0    0  0.38753421154E+03 -0.18824063701E+03 -0.19803848909E+03  0.48284590572E+03  0.91124217218E+02 0.  0.
    5000000    2    1    2    0    0 -0.38753421154E+03  0.18824063701E+03  0.26658819857E+03  0.78536032990E+03  0.60008689173E+03 0.  0.
         23    2    4    4    0    0 -0.22847023049E+03  0.31579898633E+03  0.36481362270E+03  0.54176241720E+03  0.92140606694E+02 0.  0.
         23    2    4    4    0    0 -0.15906398105E+03 -0.12755834931E+03 -0.98225424125E+02  0.24359791270E+03  0.90106751017E+02 0.  0.
          2    1    3    3  502    0  0.21866747797E+03 -0.93138874528E+02 -0.15669109668E+03  0.28467949636E+03  0.00000000000E+00 0. -1.
         -2    1    3    3    0  502  0.16886673358E+03 -0.95101762485E+02 -0.41347392407E+02  0.19816640935E+03  0.00000000000E+00 0.  1.
         13    1    5    5    0    0 -0.17467461964E+03  0.22345904497E+03  0.31493873571E+03  0.42382965301E+03  0.00000000000E+00 0. -1.
        -13    1    5    5    0    0 -0.53795610852E+02  0.92339941359E+02  0.49874886989E+02  0.11793276419E+03  0.00000000000E+00 0.  1.
          2    1    6    6  503    0 -0.84612280315E+02 -0.21422071453E+02 -0.67561814976E+02  0.11037545909E+03  0.00000000000E+00 0. -1.
         -2    1    6    6    0  503 -0.74451700740E+02 -0.10613627786E+03 -0.30663609148E+02  0.13322245362E+03  0.00000000000E+00 0.  1.
<mgrwt>
<rscale>  0 0.51945260E+03</rscale>
<asrwt>0</asrwt>
<pdfrwt beam="1">  1        1 0.92281271E-01 0.51945260E+03</pdfrwt>
<pdfrwt beam="2">  1       -1 0.10282738E+00 0.51945260E+03</pdfrwt>
<totfact> 0.32228447E+01</totfact>
</mgrwt>
</event>
<event>
12    1  0.1335216E-007  0.1052748E+04  0.7818608E-02  0.9252512E-01
         -2   -1    0    0    0  501 -0.00000000000E+00  0.00000000000E+00  0.32323090055E+03  0.32323090055E+03  0.00000000000E+00 0.  1.
          2   -1    0    0  501    0  0.00000000000E+00 -0.00000000000E+00 -0.39552382425E+04  0.39552382425E+04  0.00000000000E+00 0. -1.
         23    2    1    2    0    0  0.10113459636E+04 -0.27551900967E+03 -0.17698641709E+04  0.20589340789E+04  0.89771794085E+02 0.  0.
    5000000    2    1    2    0    0 -0.10113459636E+04  0.27551900967E+03 -0.18621431710E+04  0.22195350642E+04  0.60002277358E+03 0.  0.
         23    2    4    4    0    0 -0.35132206394E+03  0.68522555287E+02 -0.20700016020E+03  0.42332908873E+03  0.90751957814E+02 0.  0.
         23    2    4    4    0    0 -0.66002389964E+03  0.20699645438E+03 -0.16551430108E+04  0.17962059754E+04  0.91533816690E+02 0.  0.
          2    1    3    3  502    0  0.67972053382E+03 -0.22630095920E+03 -0.11795983221E+04  0.13801030142E+04  0.00000000000E+00 0. -1.
         -2    1    3    3    0  502  0.33162542977E+03 -0.49218050464E+02 -0.59026584873E+03  0.67883106465E+03  0.00000000000E+00 0.  1.
         11    1    5    5    0    0 -0.20568015712E+03  0.13122261134E+02 -0.75692099562E+02  0.21955822623E+03  0.00000000000E+00 0.  1.
        -11    1    5    5    0    0 -0.14564190683E+03  0.55400294153E+02 -0.13130806064E+03  0.20377086250E+03  0.00000000000E+00 0. -1.
          3    1    6    6  503    0 -0.43984364898E+03  0.12986360941E+03 -0.98284994899E+03  0.10845833370E+04  0.00000000000E+00 0. -1.
         -3    1    6    6    0  503 -0.22018025066E+03  0.77132844972E+02 -0.67229306185E+03  0.71162263846E+03  0.00000000000E+00 0.  1.
<mgrwt>
<rscale>  0 0.10527477E+04</rscale>
<asrwt>0</asrwt>
<pdfrwt beam="1">  1        2 0.60849818E+00 0.10527477E+04</pdfrwt>
<pdfrwt beam="2">  1       -2 0.49727832E-01 0.10527477E+04</pdfrwt>
<totfact> 0.14841403E+00</totfact>
</mgrwt>
</event>
<event>
12    1  0.1335216E-007  0.2297056E+04  0.7818608E-02  0.8479083E-01
         -2   -1    0    0    0  501 -0.00000000000E+00  0.00000000000E+00  0.23982415382E+04  0.23982415382E+04  0.00000000000E+00 0.  1.
          2   -1    0    0  501    0  0.00000000000E+00 -0.00000000000E+00 -0.27984027893E+04  0.27984027893E+04  0.00000000000E+00 0. -1.
         23    2    1    2    0    0 -0.22420769967E+04  0.37929242815E+03 -0.13660031752E+04  0.26541953095E+04  0.89532456975E+02 0.  0.
    5000000    2    1    2    0    0  0.22420769967E+04 -0.37929242815E+03  0.96584192407E+03  0.25424490181E+04  0.60035354741E+03 0.  0.
         23    2    4    4    0    0  0.22848970564E+03 -0.17592799863E+03  0.11934616472E+02  0.30324474044E+03  0.93041556576E+02 0.  0.
         23    2    4    4    0    0  0.20135872911E+04 -0.20336442952E+03  0.95390730760E+03  0.22392042776E+04  0.90585735293E+02 0.  0.
          2    1    3    3  502    0 -0.88960955881E+03  0.19197179690E+03 -0.56485705681E+03  0.10711310996E+04  0.00000000000E+00 0. -1.
         -2    1    3    3    0  502 -0.13524674379E+04  0.18732063125E+03 -0.80114611840E+03  0.15830642098E+04  0.00000000000E+00 0.  1.
         13    1    5    5    0    0  0.77417071574E+02 -0.91899577858E+02  0.42965639565E+02  0.12761262306E+03  0.00000000000E+00 0.  1.
        -13    1    5    5    0    0  0.15107263407E+03 -0.84028420771E+02 -0.31031023093E+02  0.17563211738E+03  0.00000000000E+00 0. -1.
          2    1    6    6  503    0  0.15782314488E+04 -0.19449250923E+03  0.76295314741E+03  0.17637288190E+04  0.00000000000E+00 0. -1.
         -2    1    6    6    0  503  0.43535584231E+03 -0.88719202890E+01  0.19095416018E+03  0.47547545857E+03  0.00000000000E+00 0.  1.
<mgrwt>
<rscale>  0 0.22970564E+04</rscale>
<asrwt>0</asrwt>
<pdfrwt beam="1">  1        2 0.43052351E+00 0.22970564E+04</pdfrwt>
<pdfrwt beam="2">  1       -2 0.36896024E+00 0.22970564E+04</pdfrwt>
<totfact> 0.23360029E-02</totfact>
</mgrwt>
</event>
<event>
12    1  0.1335216E-007  0.7295305E+03  0.7818608E-02  0.9668023E-01
          2   -1    0    0  501    0  0.00000000000E+00  0.00000000000E+00  0.21639503053E+04  0.21639503053E+04  0.00000000000E+00 0. -1.
         -2   -1    0    0    0  501 -0.00000000000E+00 -0.00000000000E+00 -0.39817644728E+03  0.39817644728E+03  0.00000000000E+00 0.  1.
         23    2    1    2    0    0  0.55800637825E+03 -0.44605861857E+03  0.21364661583E+03  0.75117070765E+03  0.90956837031E+02 0.  0.
    5000000    2    1    2    0    0 -0.55800637825E+03  0.44605861857E+03  0.15521272422E+04  0.18109560449E+04  0.60010283397E+03 0.  0.
         23    2    4    4    0    0 -0.10160313731E+03  0.18073117490E+03  0.72641274751E+02  0.23795713383E+03  0.91432421232E+02 0.  0.
         23    2    4    4    0    0 -0.45640324093E+03  0.26532744367E+03  0.14794859675E+04  0.15729989111E+04  0.82123539496E+02 0.  0.
          1    1    3    3  502    0  0.30553370728E+03 -0.29999893892E+03  0.13727037591E+03  0.44965916619E+03  0.00000000000E+00 0. -1.
         -1    1    3    3    0  502  0.25247267097E+03 -0.14605967965E+03  0.76376239914E+02  0.30151154145E+03  0.00000000000E+00 0.  1.
         11    1    5    5    0    0 -0.35662525730E+02  0.99017984715E+02 -0.80218183395E+01  0.10554964049E+03  0.00000000000E+00 0. -1.
        -11    1    5    5    0    0 -0.65940611585E+02  0.81713190185E+02  0.80663093091E+02  0.13240749334E+03  0.00000000000E+00 0.  1.
          2    1    6    6  503    0 -0.92150861975E+02  0.69242699620E+02  0.42259748626E+03  0.43803535041E+03  0.00000000000E+00 0. -1.
         -2    1    6    6    0  503 -0.36425237896E+03  0.19608474405E+03  0.10568884812E+04  0.11349635607E+04  0.00000000000E+00 0.  1.
<mgrwt>
<rscale>  0 0.72953049E+03</rscale>
<asrwt>0</asrwt>
<pdfrwt beam="1">  1        2 0.33291542E+00 0.72953049E+03</pdfrwt>
<pdfrwt beam="2">  1       -2 0.61257916E-01 0.72953049E+03</pdfrwt>
<totfact> 0.13973116E+01</totfact>
</mgrwt>
</event>
<event>
12    1  0.1335216E-007  0.7228070E+03  0.7818608E-02  0.9679005E-01
          1   -1    0    0  501    0  0.00000000000E+00  0.00000000000E+00  0.27342331374E+04  0.27342331374E+04  0.00000000000E+00 0. -1.
         -1   -1    0    0    0  501 -0.00000000000E+00 -0.00000000000E+00 -0.24569303792E+03  0.24569303792E+03  0.00000000000E+00 0.  1.
         23    2    1    2    0    0 -0.15733065781E+03 -0.64748513379E+03  0.65401768306E+03  0.93793817314E+03  0.89436863369E+02 0.  0.
    5000000    2    1    2    0    0  0.15733065781E+03  0.64748513379E+03  0.18345224164E+04  0.20419880022E+04  0.60021043838E+03 0.  0.
         23    2    4    4    0    0  0.11620355983E+03  0.22734484006E+02  0.90527697416E+03  0.91790336189E+03  0.94868634223E+02 0.  0.
         23    2    4    4    0    0  0.41127097979E+02  0.62475064978E+03  0.92924544229E+03  0.11240846403E+04  0.89801859509E+02 0.  0.
          3    1    3    3  502    0 -0.37520889495E+02 -0.12568860996E+03  0.83149428077E+02  0.15530380295E+03  0.00000000000E+00 0. -1.
         -3    1    3    3    0  502 -0.11980976832E+03 -0.52179652383E+03  0.57086825498E+03  0.78263437019E+03  0.00000000000E+00 0.  1.
         11    1    5    5    0    0  0.12965930446E+03  0.69180990242E+01  0.73706374476E+03  0.74841322754E+03  0.00000000000E+00 0.  1.
        -11    1    5    5    0    0 -0.13455744628E+02  0.15816384981E+02  0.16821322940E+03  0.16949013435E+03  0.00000000000E+00 0. -1.
          3    1    6    6  503    0 -0.77720424970E+01  0.29513716770E+03  0.37351611143E+03  0.47610990107E+03  0.00000000000E+00 0. -1.
         -3    1    6    6    0  503  0.48899140476E+02  0.32961348208E+03  0.55572933086E+03  0.64797473923E+03  0.00000000000E+00 0.  1.
<mgrwt>
<rscale>  0 0.72280700E+03</rscale>
<asrwt>0</asrwt>
<pdfrwt beam="1">  1        1 0.42065123E+00 0.72280700E+03</pdfrwt>
<pdfrwt beam="2">  1       -1 0.37798931E-01 0.72280700E+03</pdfrwt>
<totfact> 0.66802730E+00</totfact>
</mgrwt>
</event>
<event>
12    1  0.1335216E-007  0.6698407E+03  0.7818608E-02  0.9770246E-01
         -2   -1    0    0    0  501 -0.00000000000E+00  0.00000000000E+00  0.65663175145E+03  0.65663175145E+03  0.00000000000E+00 0.  1.
          2   -1    0    0  501    0  0.00000000000E+00 -0.00000000000E+00 -0.12803170009E+04  0.12803170009E+04  0.00000000000E+00 0. -1.
         23    2    1    2    0    0 -0.42421033171E+03 -0.34630264903E+03 -0.91704174425E+03  0.10719721951E+04  0.90988439588E+02 0.  0.
    5000000    2    1    2    0    0  0.42421033171E+03  0.34630264903E+03  0.29335649482E+03  0.86497655722E+03  0.60186915623E+03 0.  0.
         23    2    4    4    0    0 -0.15234734713E+02  0.32848081421E+03  0.22819890791E+03  0.41104229369E+03  0.93537603066E+02 0.  0.
         23    2    4    4    0    0  0.43944506642E+03  0.17821834826E+02  0.65157586910E+02  0.45393426352E+03  0.91549004740E+02 0.  0.
          1    1    3    3  502    0 -0.18657858546E+03 -0.18359198007E+03 -0.51129367685E+03  0.57440300111E+03  0.00000000000E+00 0. -1.
         -1    1    3    3    0  502 -0.23763174625E+03 -0.16271066897E+03 -0.40574806740E+03  0.49756919400E+03  0.00000000000E+00 0.  1.
         11    1    5    5    0    0 -0.41960480458E+02  0.67134238400E+02  0.52576110874E+02  0.95036494677E+02  0.00000000000E+00 0.  1.
        -11    1    5    5    0    0  0.26725745745E+02  0.26134657581E+03  0.17562279704E+03  0.31600579902E+03  0.00000000000E+00 0. -1.
          2    1    6    6  503    0  0.23147051257E+03  0.52108636242E+02  0.18025217525E+02  0.23794708787E+03  0.00000000000E+00 0.  1.
         -2    1    6    6    0  503  0.20797455386E+03 -0.34286801417E+02  0.47132369385E+02  0.21598717565E+03  0.00000000000E+00 0. -1.
<mgrwt>
<rscale>  0 0.66984073E+03</rscale>
<asrwt>0</asrwt>
<pdfrwt beam="1">  1        2 0.19697184E+00 0.66984073E+03</pdfrwt>
<pdfrwt beam="2">  1       -2 0.10102027E+00 0.66984073E+03</pdfrwt>
<totfact> 0.14115288E+01</totfact>
</mgrwt>
</event>
<event>
12    1  0.1335216E-007  0.4403969E+03  0.7818608E-02  0.1030625E+00
         -2   -1    0    0    0  501 -0.00000000000E+00  0.00000000000E+00  0.72818925818E+02  0.72818925818E+02  0.00000000000E+00 0. -1.
          2   -1    0    0  501    0  0.00000000000E+00 -0.00000000000E+00 -0.29036650675E+04  0.29036650675E+04  0.00000000000E+00 0.  1.
         23    2    1    2    0    0 -0.18788652889E+03  0.16552948076E+03 -0.91984658185E+03  0.95799432768E+03  0.94520056025E+02 0.  0.
    5000000    2    1    2    0    0  0.18788652889E+03 -0.16552948076E+03 -0.19109995598E+04  0.20184896656E+04  0.59973315387E+03 0.  0.
         23    2    4    4    0    0  0.39220008930E+03 -0.80650216322E+02 -0.12183969687E+04  0.12857282508E+04  0.90997770767E+02 0.  0.
         23    2    4    4    0    0 -0.20431356041E+03 -0.84879264439E+02 -0.69260259112E+03  0.73276141476E+03  0.91062732423E+02 0.  0.
          1    1    3    3  502    0 -0.15950186866E+03  0.14330438654E+03 -0.87263387450E+03  0.89859160481E+03  0.00000000000E+00 0. -1.
         -1    1    3    3    0  502 -0.28384660232E+02  0.22225094220E+02 -0.47212707353E+02  0.59402722877E+02  0.00000000000E+00 0.  1.
         13    1    5    5    0    0  0.26138842420E+03 -0.56712470074E+02 -0.66948647299E+03  0.72093852032E+03  0.00000000000E+00 0.  1.
        -13    1    5    5    0    0  0.13081166510E+03 -0.23937746248E+02 -0.54891049570E+03  0.56478973053E+03  0.00000000000E+00 0. -1.
          3    1    6    6  503    0 -0.34598720297E+02 -0.42758378361E+02 -0.26754950639E+03  0.27314481276E+03  0.00000000000E+00 0. -1.
         -3    1    6    6    0  503 -0.16971484012E+03 -0.42120886077E+02 -0.42505308472E+03  0.45961660200E+03  0.00000000000E+00 0.  1.
<mgrwt>
<rscale>  0 0.44039688E+03</rscale>
<asrwt>0</asrwt>
<pdfrwt beam="1">  1        2 0.44671772E+00 0.44039688E+03</pdfrwt>
<pdfrwt beam="2">  1       -2 0.11202911E-01 0.44039688E+03</pdfrwt>
<totfact> 0.12579983E+02</totfact>
</mgrwt>
</event>
<event>
12    1  0.1335216E-007  0.1550539E+04  0.7818608E-02  0.8851524E-01
          2   -1    0    0  501    0  0.00000000000E+00  0.00000000000E+00  0.23338575594E+04  0.23338575594E+04  0.00000000000E+00 0. -1.
         -2   -1    0    0    0  501 -0.00000000000E+00 -0.00000000000E+00 -0.12145665961E+04  0.12145665961E+04  0.00000000000E+00 0.  1.
         23    2    1    2    0    0  0.14956651165E+04 -0.33402446459E+03  0.11238406018E+04  0.19026660685E+04  0.92379577658E+02 0.  0.
    5000000    2    1    2    0    0 -0.14956651165E+04  0.33402446459E+03 -0.45496384653E+01  0.16457580870E+04  0.59992707714E+03 0.  0.
         23    2    4    4    0    0 -0.30625083274E+03 -0.45121601409E+02  0.19933129524E+03  0.37804632954E+03  0.85793534466E+02 0.  0.
         23    2    4    4    0    0 -0.11894142838E+04  0.37914606600E+03 -0.20388093370E+03  0.12677117574E+04  0.84068941604E+02 0.  0.
          1    1    3    3  502    0  0.68588738560E+03 -0.12735646306E+03  0.46373655327E+03  0.83768297419E+03  0.00000000000E+00 0. -1.
         -1    1    3    3    0  502  0.80977773093E+03 -0.20666800153E+03  0.66010404852E+03  0.10649830943E+04  0.00000000000E+00 0.  1.
         13    1    5    5    0    0 -0.45524061841E+01 -0.15491354583E+02  0.18616858302E+01  0.16253379434E+02  0.00000000000E+00 0. -1.
        -13    1    5    5    0    0 -0.30169842655E+03 -0.29630246826E+02  0.19746960941E+03  0.36179295011E+03  0.00000000000E+00 0.  1.
          3    1    6    6  503    0 -0.70154866977E+03  0.22958777455E+03 -0.16194567632E+03  0.75571653704E+03  0.00000000000E+00 0. -1.
         -3    1    6    6    0  503 -0.48786561402E+03  0.14955829145E+03 -0.41935257376E+02  0.51199522039E+03  0.00000000000E+00 0.  1.
<mgrwt>
<rscale>  0 0.15505386E+04</rscale>
<asrwt>0</asrwt>
<pdfrwt beam="1">  1        2 0.35905501E+00 0.15505386E+04</pdfrwt>
<pdfrwt beam="2">  1       -2 0.18685640E+00 0.15505386E+04</pdfrwt>
<totfact> 0.66027222E-01</totfact>
</mgrwt>
</event>
<event>
12    1  0.1335216E-007  0.9760630E+03  0.7818608E-02  0.9335195E-01
         -1   -1    0    0    0  501 -0.00000000000E+00  0.00000000000E+00  0.40225071446E+03  0.40225071446E+03  0.00000000000E+00 0.  1.
          1   -1    0    0  501    0  0.00000000000E+00 -0.00000000000E+00 -0.25900279082E+04  0.25900279082E+04  0.00000000000E+00 0. -1.
         23    2    1    2    0    0  0.79532325113E+03 -0.47722535100E+03 -0.11018161790E+04  0.14432178960E+04  0.92714041009E+02 0.  0.
    5000000    2    1    2    0    0 -0.79532325113E+03  0.47722535100E+03 -0.10859610147E+04  0.15490607267E+04  0.59999558344E+03 0.  0.
         23    2    4    4    0    0 -0.50811026058E+03  0.62930017851E+02 -0.82170941630E+03  0.97271001104E+03  0.93926442948E+02 0.  0.
         23    2    4    4    0    0 -0.28721299055E+03  0.41429533315E+03 -0.26425159842E+03  0.57635071568E+03  0.90660438923E+02 0.  0.
          1    1    3    3  502    0  0.27016519311E+03 -0.17347062912E+03 -0.31626675206E+03  0.45067277396E+03  0.00000000000E+00 0. -1.
         -1    1    3    3    0  502  0.52515805803E+03 -0.30375472188E+03 -0.78554942697E+03  0.99254512199E+03  0.00000000000E+00 0.  1.
         11    1    5    5    0    0 -0.25130683855E+03 -0.12766317646E+02 -0.36548705077E+03  0.44373290418E+03  0.00000000000E+00 0.  1.
        -11    1    5    5    0    0 -0.25680342203E+03  0.75696335497E+02 -0.45622236553E+03  0.52897710686E+03  0.00000000000E+00 0. -1.
          3    1    6    6  503    0 -0.17171113811E+03  0.27326096185E+03 -0.21406918562E+03  0.38727494685E+03  0.00000000000E+00 0. -1.
         -3    1    6    6    0  503 -0.11550185244E+03  0.14103437130E+03 -0.50182412794E+02  0.18907576883E+03  0.00000000000E+00 0.  1.
<mgrwt>
<rscale>  0 0.97606300E+03</rscale>
<asrwt>0</asrwt>
<pdfrwt beam="1">  1        1 0.39846583E+00 0.97606300E+03</pdfrwt>
<pdfrwt beam="2">  1       -1 0.61884726E-01 0.97606300E+03</pdfrwt>
<totfact> 0.31795144E+00</totfact>
</mgrwt>
</event>
<event>
12    1  0.1335216E-007  0.8518151E+03  0.7818608E-02  0.9487904E-01
          2   -1    0    0  501    0  0.00000000000E+00  0.00000000000E+00  0.18816456056E+04  0.18816456056E+04  0.00000000000E+00 0. -1.
         -2   -1    0    0    0  501 -0.00000000000E+00 -0.00000000000E+00 -0.49962242346E+03  0.49962242346E+03  0.00000000000E+00 0.  1.
         23    2    1    2    0    0 -0.13426325356E+03 -0.76100124693E+03  0.12421376501E+03  0.78777019540E+03  0.89461177303E+02 0.  0.
    5000000    2    1    2    0    0  0.13426325356E+03  0.76100124693E+03  0.12578094171E+04  0.15934978336E+04  0.60000108076E+03 0.  0.
         23    2    4    4    0    0  0.31357003720E+03  0.55553318477E+03  0.62403461756E+03  0.89713745415E+03  0.92158125653E+02 0.  0.
         23    2    4    4    0    0 -0.17930678364E+03  0.20546806216E+03  0.63377479954E+03  0.69636037947E+03  0.94229689221E+02 0.  0.
          4    1    3    3  502    0 -0.42925413020E+02 -0.11332424583E+03 -0.39517740252E+01  0.12124599908E+03  0.00000000000E+00 0. -1.
         -4    1    3    3    0  502 -0.91337840545E+02 -0.64767700110E+03  0.12816553903E+03  0.66652419631E+03  0.00000000000E+00 0.  1.
         13    1    5    5    0    0  0.14381784195E+03  0.19833072770E+03  0.19068180389E+03  0.31044838468E+03  0.00000000000E+00 0. -1.
        -13    1    5    5    0    0  0.16975219525E+03  0.35720245707E+03  0.43335281367E+03  0.58668906947E+03  0.00000000000E+00 0.  1.
          4    1    6    6  503    0 -0.10667745615E+03  0.53243907459E+02  0.28548209490E+03  0.30937844114E+03  0.00000000000E+00 0. -1.
         -4    1    6    6    0  503 -0.72629327484E+02  0.15222415471E+03  0.34829270464E+03  0.38698193832E+03  0.00000000000E+00 0.  1.
<mgrwt>
<rscale>  0 0.85181513E+03</rscale>
<asrwt>0</asrwt>
<pdfrwt beam="1">  1        2 0.28948394E+00 0.85181513E+03</pdfrwt>
<pdfrwt beam="2">  1       -2 0.76864989E-01 0.85181513E+03</pdfrwt>
<totfact> 0.11967623E+01</totfact>
</mgrwt>
</event>
<event>
12    1  0.1335216E-007  0.3240638E+03  0.7818608E-02  0.1073794E+00
          2   -1    0    0  501    0  0.00000000000E+00  0.00000000000E+00  0.10750131457E+04  0.10750131457E+04  0.00000000000E+00 0. -1.
         -2   -1    0    0    0  501 -0.00000000000E+00 -0.00000000000E+00 -0.31986791755E+03  0.31986791755E+03  0.00000000000E+00 0.  1.
         23    2    1    2    0    0  0.25047791523E+03 -0.19206326428E+03 -0.60795064951E+02  0.33419124273E+03  0.91434475403E+02 0.  0.
    5000000    2    1    2    0    0 -0.25047791523E+03  0.19206326428E+03  0.81594029309E+03  0.10606898205E+04  0.59973064783E+03 0.  0.
         23    2    4    4    0    0 -0.17230427875E+02 -0.25876000232E+01  0.72536745790E+03  0.73146508344E+03  0.92626324511E+02 0.  0.
         23    2    4    4    0    0 -0.23324748735E+03  0.19465086430E+03  0.90572835191E+02  0.32922473707E+03  0.88837715500E+02 0.  0.
          1    1    3    3  502    0  0.32199579184E+02 -0.93045791813E+01 -0.34807747705E+02  0.48321500325E+02  0.00000000000E+00 0.  1.
         -1    1    3    3    0  502  0.21827833604E+03 -0.18275868510E+03 -0.25987317246E+02  0.28586974240E+03  0.00000000000E+00 0. -1.
         11    1    5    5    0    0  0.25828840203E+01  0.37526865756E+01  0.69283492072E+03  0.69284989812E+03  0.00000000000E+00 0.  1.
        -11    1    5    5    0    0 -0.19813311895E+02 -0.63402865989E+01  0.32532537178E+02  0.38615185325E+02  0.00000000000E+00 0. -1.
          3    1    6    6  503    0 -0.12854058200E+03  0.12116172770E+03  0.96273615539E+02  0.20117518368E+03  0.00000000000E+00 0. -1.
         -3    1    6    6    0  503 -0.10470690535E+03  0.73489136601E+02 -0.57007803476E+01  0.12804955339E+03  0.00000000000E+00 0.  1.
<mgrwt>
<rscale>  0 0.32406381E+03</rscale>
<asrwt>0</asrwt>
<pdfrwt beam="1">  1        2 0.16538664E+00 0.32406381E+03</pdfrwt>
<pdfrwt beam="2">  1       -2 0.49210449E-01 0.32406381E+03</pdfrwt>
<totfact> 0.94028267E+01</totfact>
</mgrwt>
</event>
<event>
12    1  0.1335216E-007  0.3507799E+03  0.7818608E-02  0.1062295E+00
         -2   -1    0    0    0  501 -0.00000000000E+00  0.00000000000E+00  0.31833233366E+03  0.31833233366E+03  0.00000000000E+00 0.  1.
          2   -1    0    0  501    0  0.00000000000E+00 -0.00000000000E+00 -0.54405351267E+03  0.54405351267E+03  0.00000000000E+00 0. -1.
         23    2    1    2    0    0 -0.80424777750E+02 -0.14185969634E+03 -0.14460720607E+03  0.23543574151E+03  0.89030477990E+02 0.  0.
    5000000    2    1    2    0    0  0.80424777750E+02  0.14185969634E+03 -0.81113972944E+02  0.62695010482E+03  0.59991219274E+03 0.  0.
         23    2    4    4    0    0  0.86169497163E+02  0.31237006238E+03 -0.20808479338E+03  0.39757658506E+03  0.98831278653E+02 0.  0.
         23    2    4    4    0    0 -0.57447194130E+01 -0.17051036604E+03  0.12697082044E+03  0.22937351976E+03  0.85929247616E+02 0.  0.
          1    1    3    3  502    0  0.10868085105E+02 -0.11270497480E+01 -0.30913018800E+02  0.32787196378E+02  0.00000000000E+00 0. -1.
         -1    1    3    3    0  502 -0.91292862856E+02 -0.14073264659E+03 -0.11369418727E+03  0.20264854513E+03  0.00000000000E+00 0.  1.
         13    1    5    5    0    0  0.31634132620E+02  0.25938240832E+03 -0.17598394140E+03  0.31504015573E+03  0.00000000000E+00 0. -1.
        -13    1    5    5    0    0  0.54535364543E+02  0.52987654053E+02 -0.32100851987E+02  0.82536429328E+02  0.00000000000E+00 0.  1.
          1    1    6    6  503    0 -0.29763907430E+02 -0.15286842374E+03  0.12465235962E+03  0.19948146761E+03  0.00000000000E+00 0. -1.
         -1    1    6    6    0  503  0.24019188017E+02 -0.17641942293E+02  0.23184608252E+01  0.29892052146E+02  0.00000000000E+00 0.  1.
<mgrwt>
<rscale>  0 0.35077993E+03</rscale>
<asrwt>0</asrwt>
<pdfrwt beam="1">  1        2 0.83700541E-01 0.35077993E+03</pdfrwt>
<pdfrwt beam="2">  1       -2 0.48974205E-01 0.35077993E+03</pdfrwt>
<totfact> 0.22691523E+02</totfact>
</mgrwt>
</event>
<event>
12    1  0.1335216E-007  0.6018234E+03  0.7818608E-02  0.9901630E-01
         -2   -1    0    0    0  501 -0.00000000000E+00  0.00000000000E+00  0.89685409121E+02  0.89685409121E+02  0.00000000000E+00 0.  1.
          2   -1    0    0  501    0  0.00000000000E+00 -0.00000000000E+00 -0.44628633727E+04  0.44628633727E+04  0.00000000000E+00 0. -1.
         23    2    1    2    0    0  0.44394150743E+03  0.19513489130E+03 -0.17859463535E+04  0.18527242658E+04  0.88437209026E+02 0.  0.
    5000000    2    1    2    0    0 -0.44394150743E+03 -0.19513489130E+03 -0.25872316101E+04  0.26998245159E+04  0.60010276196E+03 0.  0.
         23    2    4    4    0    0 -0.52996824335E+03 -0.26898958282E+03 -0.23056048134E+04  0.23828893854E+04  0.95532886986E+02 0.  0.
         23    2    4    4    0    0  0.86026735927E+02  0.73854691515E+02 -0.28162679662E+03  0.31693513057E+03  0.90989612927E+02 0.  0.
          3    1    3    3  502    0  0.26630811160E+03  0.97185120227E+02 -0.88808880981E+03  0.93223746546E+03  0.00000000000E+00 0. -1.
         -3    1    3    3    0  502  0.17763339582E+03  0.97949771075E+02 -0.89785754366E+03  0.92048680038E+03  0.00000000000E+00 0.  1.
         11    1    5    5    0    0 -0.10896208533E+03 -0.10004228217E+03 -0.53073340206E+03  0.55096201169E+03  0.00000000000E+00 0.  1.
        -11    1    5    5    0    0 -0.42100615802E+03 -0.16894730065E+03 -0.17748714114E+04  0.18319273737E+04  0.00000000000E+00 0. -1.
          4    1    6    6  503    0  0.44453519182E+02  0.53194454655E+02 -0.63791179512E+02  0.94207642775E+02  0.00000000000E+00 0. -1.
         -4    1    6    6    0  503  0.41573216745E+02  0.20660236860E+02 -0.21783561711E+03  0.22272748779E+03  0.00000000000E+00 0.  1.
<mgrwt>
<rscale>  0 0.60182344E+03</rscale>
<asrwt>0</asrwt>
<pdfrwt beam="1">  1        2 0.68659454E+00 0.60182344E+03</pdfrwt>
<pdfrwt beam="2">  1       -2 0.13797752E-01 0.60182344E+03</pdfrwt>
<totfact> 0.63195456E+00</totfact>
</mgrwt>
</event>
<event>
12    1  0.1335216E-007  0.5492266E+03  0.7818608E-02  0.1001673E+00
         -2   -1    0    0    0  501 -0.00000000000E+00  0.00000000000E+00  0.83832134744E+03  0.83832134744E+03  0.00000000000E+00 0.  1.
          2   -1    0    0  501    0  0.00000000000E+00 -0.00000000000E+00 -0.32018239254E+04  0.32018239254E+04  0.00000000000E+00 0. -1.
         23    2    1    2    0    0 -0.11860410943E+03 -0.39144602848E+03 -0.30275599192E+04  0.30563157721E+04  0.87464888263E+02 0.  0.
    5000000    2    1    2    0    0  0.11860410943E+03  0.39144602848E+03  0.66405734121E+03  0.98382950073E+03  0.59970943472E+03 0.  0.
         23    2    4    4    0    0  0.32511686303E+03  0.26409320191E+03  0.25300615736E+03  0.49780777815E+03  0.91401719890E+02 0.  0.
         23    2    4    4    0    0 -0.20651275360E+03  0.12735282657E+03  0.41105118385E+03  0.48602172258E+03  0.91584819909E+02 0.  0.
          1    1    3    3  502    0  0.12419871151E+02 -0.27236751000E+02 -0.16322728751E+03  0.16594951399E+03  0.00000000000E+00 0. -1.
         -1    1    3    3    0  502 -0.13102398058E+03 -0.36420927749E+03 -0.28643326317E+04  0.28903662581E+04  0.00000000000E+00 0.  1.
         11    1    5    5    0    0  0.30950794344E+03  0.22788856154E+03  0.24948219689E+03  0.45822454114E+03  0.00000000000E+00 0. -1.
        -11    1    5    5    0    0  0.15608919589E+02  0.36204640369E+02  0.35239604757E+01  0.39583237013E+02  0.00000000000E+00 0.  1.
          1    1    6    6  503    0 -0.45991858646E+02 -0.92344933416E+01  0.97749295894E+02  0.10842256120E+03  0.00000000000E+00 0. -1.
         -1    1    6    6    0  503 -0.16052089495E+03  0.13658731991E+03  0.31330188796E+03  0.37759916138E+03  0.00000000000E+00 0.  1.
<mgrwt>
<rscale>  0 0.54922661E+03</rscale>
<asrwt>0</asrwt>
<pdfrwt beam="1">  1        2 0.49258830E+00 0.54922661E+03</pdfrwt>
<pdfrwt beam="2">  1       -2 0.12897251E+00 0.54922661E+03</pdfrwt>
<totfact> 0.65305556E-01</totfact>
</mgrwt>
</event>
<event>
12    1  0.1335216E-007  0.7899024E+03  0.7818608E-02  0.9574749E-01
         -2   -1    0    0    0  501 -0.00000000000E+00  0.00000000000E+00  0.26850916282E+03  0.26850916282E+03  0.00000000000E+00 0.  1.
          2   -1    0    0  501    0  0.00000000000E+00 -0.00000000000E+00 -0.29523072474E+04  0.29523072474E+04  0.00000000000E+00 0. -1.
         23    2    1    2    0    0 -0.46147399539E+03 -0.63536375792E+03 -0.12683611528E+04  0.14945831372E+04  0.91615428957E+02 0.  0.
    5000000    2    1    2    0    0  0.46147399539E+03  0.63536375792E+03 -0.14154369317E+04  0.17262332730E+04  0.59981184686E+03 0.  0.
         23    2    4    4    0    0  0.34137450593E+03  0.41555422803E+03 -0.40109647206E+03  0.67718338853E+03  0.92071125003E+02 0.  0.
         23    2    4    4    0    0  0.12009948947E+03  0.21980952989E+03 -0.10143404597E+04  0.10490498844E+04  0.94228313656E+02 0.  0.
          2    1    3    3  502    0 -0.20497379902E+03 -0.33271465561E+03 -0.56347725149E+03  0.68572582954E+03  0.00000000000E+00 0. -1.
         -2    1    3    3    0  502 -0.25650019637E+03 -0.30264910231E+03 -0.70488390132E+03  0.80885730769E+03  0.00000000000E+00 0.  1.
         13    1    5    5    0    0  0.51507124033E+02  0.54270877721E+02 -0.20225621454E+02  0.77507340026E+02  0.00000000000E+00 0.  1.
        -13    1    5    5    0    0  0.28986738189E+03  0.36128335031E+03 -0.38087085061E+03  0.59967604850E+03  0.00000000000E+00 0. -1.
          2    1    6    6  503    0  0.10149098467E+02  0.56520239933E+02 -0.11652461331E+03  0.12990583986E+03  0.00000000000E+00 0. -1.
         -2    1    6    6    0  503  0.10995039100E+03  0.16328928995E+03 -0.89781584637E+03  0.91914404458E+03  0.00000000000E+00 0.  1.
<mgrwt>
<rscale>  0 0.78990239E+03</rscale>
<asrwt>0</asrwt>
<pdfrwt beam="1">  1        2 0.45420109E+00 0.78990239E+03</pdfrwt>
<pdfrwt beam="2">  1       -2 0.41309105E-01 0.78990239E+03</pdfrwt>
<totfact> 0.10911574E+01</totfact>
</mgrwt>
</event>
<event>
12    1  0.1335216E-007  0.8567312E+03  0.7818608E-02  0.9481347E-01
         -2   -1    0    0    0  501 -0.00000000000E+00  0.00000000000E+00  0.35030805581E+03  0.35030805581E+03  0.00000000000E+00 0.  1.
          2   -1    0    0  501    0  0.00000000000E+00 -0.00000000000E+00 -0.25512728146E+04  0.25512728146E+04  0.00000000000E+00 0. -1.
         23    2    1    2    0    0 -0.66630816826E+03  0.52219270375E+03 -0.93012100558E+03  0.12609010281E+04  0.89969564864E+02 0.  0.
    5000000    2    1    2    0    0  0.66630816826E+03 -0.52219270375E+03 -0.12708437532E+04  0.16406798423E+04  0.60011224374E+03 0.  0.
         23    2    4    4    0    0  0.28541005911E+02 -0.80001398786E+02  0.24465674731E+02  0.12792798493E+03  0.92478036642E+02 0.  0.
         23    2    4    4    0    0  0.63776716235E+03 -0.44219130497E+03 -0.12953094279E+04  0.15127518574E+04  0.91167781988E+02 0.  0.
          2    1    3    3  502    0 -0.16141307495E+03  0.11223043536E+03 -0.27228658566E+03  0.33584198087E+03  0.00000000000E+00 0. -1.
         -2    1    3    3    0  502 -0.50489509331E+03  0.40996226840E+03 -0.65783441992E+03  0.92505904719E+03  0.00000000000E+00 0.  1.
         11    1    5    5    0    0  0.25606178015E+02 -0.65421726660E+02 -0.26309856961E+02  0.75019245831E+02  0.00000000000E+00 0.  1.
        -11    1    5    5    0    0  0.29348278958E+01 -0.14579672126E+02  0.50775531692E+02  0.52908739096E+02  0.00000000000E+00 0. -1.
          4    1    6    6  503    0  0.49129294648E+03 -0.29172632419E+03 -0.94049033632E+03  0.11004522162E+04  0.00000000000E+00 0. -1.
         -4    1    6    6    0  503  0.14647421588E+03 -0.15046498078E+03 -0.35481909161E+03  0.41229964119E+03  0.00000000000E+00 0.  1.
<mgrwt>
<rscale>  0 0.85673119E+03</rscale>
<asrwt>0</asrwt>
<pdfrwt beam="1">  1        2 0.39250352E+00 0.85673119E+03</pdfrwt>
<pdfrwt beam="2">  1       -2 0.53893545E-01 0.85673119E+03</pdfrwt>
<totfact> 0.10881875E+01</totfact>
</mgrwt>
</event>
<event>
12    1  0.1335216E-007  0.1826663E+04  0.7818608E-02  0.8692247E-01
         -2   -1    0    0    0  501 -0.00000000000E+00  0.00000000000E+00  0.75176633332E+03  0.75176633332E+03  0.00000000000E+00 0.  1.
          2   -1    0    0  501    0  0.00000000000E+00 -0.00000000000E+00 -0.51344598648E+04  0.51344598648E+04  0.00000000000E+00 0. -1.
         23    2    1    2    0    0 -0.12908003683E+04  0.12553573953E+04 -0.31293192905E+04  0.36115849632E+04  0.93909230337E+02 0.  0.
    5000000    2    1    2    0    0  0.12908003683E+04 -0.12553573953E+04 -0.12533742409E+04  0.22746412349E+04  0.60079778550E+03 0.  0.
         23    2    4    4    0    0  0.13119165614E+04 -0.12027443462E+04 -0.12249636895E+04  0.21625572767E+04  0.91645555991E+02 0.  0.
         23    2    4    4    0    0 -0.21116193096E+02 -0.52613049123E+02 -0.28410551405E+02  0.11208395825E+03  0.92420926833E+02 0.  0.
          1    1    3    3  502    0 -0.48884146532E+03  0.41275081517E+03 -0.11110784290E+04  0.12821171901E+04  0.00000000000E+00 0. -1.
         -1    1    3    3    0  502 -0.80195890294E+03  0.84260658014E+03 -0.20182408615E+04  0.23294677731E+04  0.00000000000E+00 0.  1.
         11    1    5    5    0    0  0.47904207625E+03 -0.47777074293E+03 -0.42413371718E+03  0.79852088492E+03  0.00000000000E+00 0. -1.
        -11    1    5    5    0    0  0.83287448511E+03 -0.72497360326E+03 -0.80082997236E+03  0.13640363917E+04  0.00000000000E+00 0.  1.
          4    1    6    6  503    0 -0.31506910048E+02 -0.49504594096E+02  0.20367558110E+02  0.62114633065E+02  0.00000000000E+00 0. -1.
         -4    1    6    6    0  503  0.10390716952E+02 -0.31084550263E+01 -0.48778109515E+02  0.49969325183E+02  0.00000000000E+00 0.  1.
<mgrwt>
<rscale>  0 0.18266633E+04</rscale>
<asrwt>0</asrwt>
<pdfrwt beam="1">  1        2 0.78991692E+00 0.18266633E+04</pdfrwt>
<pdfrwt beam="2">  1       -2 0.11565636E+00 0.18266633E+04</pdfrwt>
<totfact> 0.12568209E-02</totfact>
</mgrwt>
</event>
<event>
12    1  0.1335216E-007  0.7379591E+03  0.7818608E-02  0.9654432E-01
          1   -1    0    0  501    0  0.00000000000E+00  0.00000000000E+00  0.11877848975E+04  0.11877848975E+04  0.00000000000E+00 0. -1.
         -1   -1    0    0    0  501 -0.00000000000E+00 -0.00000000000E+00 -0.58816685764E+03  0.58816685764E+03  0.00000000000E+00 0.  1.
         23    2    1    2    0    0  0.68665276228E+03 -0.23150501757E+03  0.28296843916E+03  0.78291823857E+03  0.88335958771E+02 0.  0.
    5000000    2    1    2    0    0 -0.68665276228E+03  0.23150501757E+03  0.31664960066E+03  0.99303351654E+03  0.60063466954E+03 0.  0.
         23    2    4    4    0    0 -0.46846977946E+03  0.20285595513E+03  0.47729279629E+03  0.70479818225E+03  0.91200830697E+02 0.  0.
         23    2    4    4    0    0 -0.21818298282E+03  0.28649062436E+02 -0.16064319563E+03  0.28823533428E+03  0.94068001237E+02 0.  0.
          3    1    3    3  502    0  0.59230458814E+02 -0.47180594836E+02  0.22276676892E+02  0.78933555056E+02  0.00000000000E+00 0. -1.
         -3    1    3    3    0  502  0.62742230347E+03 -0.18432442273E+03  0.26069176226E+03  0.70398468351E+03  0.00000000000E+00 0.  1.
         11    1    5    5    0    0 -0.29602625197E+03  0.15581081606E+03  0.26160709445E+03  0.42467260816E+03  0.00000000000E+00 0. -1.
        -11    1    5    5    0    0 -0.17244352749E+03  0.47045139079E+02  0.21568570183E+03  0.28012557409E+03  0.00000000000E+00 0.  1.
          1    1    6    6  503    0 -0.28848748115E+00 -0.11429355010E+02  0.41014602111E+01  0.12146413332E+02  0.00000000000E+00 0.  1.
         -1    1    6    6    0  503 -0.21789449534E+03  0.40078417446E+02 -0.16474465584E+03  0.27608892095E+03  0.00000000000E+00 0. -1.
<mgrwt>
<rscale>  0 0.73795906E+03</rscale>
<asrwt>0</asrwt>
<pdfrwt beam="1">  1        1 0.18273614E+00 0.73795906E+03</pdfrwt>
<pdfrwt beam="2">  1       -1 0.90487209E-01 0.73795906E+03</pdfrwt>
<totfact> 0.13472241E+01</totfact>
</mgrwt>
</event>
<event>
12    1  0.1335216E-007  0.5803868E+03  0.7818608E-02  0.9946954E-01
         -2   -1    0    0    0  501 -0.00000000000E+00  0.00000000000E+00  0.12334225755E+03  0.12334225755E+03  0.00000000000E+00 0.  1.
          2   -1    0    0  501    0  0.00000000000E+00 -0.00000000000E+00 -0.30518025571E+04  0.30518025571E+04  0.00000000000E+00 0. -1.
         23    2    1    2    0    0  0.45913286887E+03 -0.37437488824E+02 -0.10576859519E+04  0.11572519407E+04  0.91257463074E+02 0.  0.
    5000000    2    1    2    0    0 -0.45913286887E+03  0.37437488824E+02 -0.18707743477E+04  0.20178928740E+04  0.59990868812E+03 0.  0.
         23    2    4    4    0    0  0.28409709430E+02  0.15914167123E+03 -0.92053451634E+03  0.93902604144E+03  0.90845625186E+02 0.  0.
         23    2    4    4    0    0 -0.48754257830E+03 -0.12170418241E+03 -0.95023983131E+03  0.10788668325E+04  0.92131599459E+02 0.  0.
          3    1    3    3  502    0  0.28795561388E+03  0.19555948516E+02 -0.67837668466E+03  0.73722167425E+03  0.00000000000E+00 0. -1.
         -3    1    3    3    0  502  0.17117725499E+03 -0.56993437340E+02 -0.37930926726E+03  0.42003026647E+03  0.00000000000E+00 0.  1.
         11    1    5    5    0    0 -0.25192017195E+02  0.10338402158E+03 -0.46943989821E+03  0.48134884614E+03  0.00000000000E+00 0. -1.
        -11    1    5    5    0    0  0.53601726625E+02  0.55757649654E+02 -0.45109461813E+03  0.45767719530E+03  0.00000000000E+00 0.  1.
          3    1    6    6  503    0 -0.10038696946E+03 -0.57060843976E+02 -0.26709645062E+03  0.29098796795E+03  0.00000000000E+00 0. -1.
         -3    1    6    6    0  503 -0.38715560884E+03 -0.64643338430E+02 -0.68314338069E+03  0.78787886457E+03  0.00000000000E+00 0.  1.
<mgrwt>
<rscale>  0 0.58038683E+03</rscale>
<asrwt>0</asrwt>
<pdfrwt beam="1">  1        2 0.46950809E+00 0.58038683E+03</pdfrwt>
<pdfrwt beam="2">  1       -2 0.18975732E-01 0.58038683E+03</pdfrwt>
<totfact> 0.41157287E+01</totfact>
</mgrwt>
</event>
<event>
12    1  0.1335216E-007  0.1204331E+04  0.7818608E-02  0.9109074E-01
         -1   -1    0    0    0  501 -0.00000000000E+00  0.00000000000E+00  0.11568922440E+04  0.11568922440E+04  0.00000000000E+00 0.  1.
          1   -1    0    0  501    0  0.00000000000E+00 -0.00000000000E+00 -0.16976518379E+04  0.16976518379E+04  0.00000000000E+00 0. -1.
         23    2    1    2    0    0  0.11064421985E+04 -0.31571679117E+03  0.43255681495E+03  0.12323949411E+04  0.88320222733E+02 0.  0.
    5000000    2    1    2    0    0 -0.11064421985E+04  0.31571679117E+03 -0.97331640890E+03  0.16221491408E+04  0.60010963349E+03 0.  0.
         23    2    4    4    0    0  0.67432067755E+01 -0.17448665196E+02  0.14918757730E+02  0.93942805503E+02  0.90844673035E+02 0.  0.
         23    2    4    4    0    0 -0.11131854053E+04  0.33316545637E+03 -0.98823516663E+03  0.15282063353E+04  0.92870289850E+02 0.  0.
          1    1    3    3  502    0  0.23920862124E+03 -0.75905403782E+02  0.13321977920E+03  0.28413008353E+03  0.00000000000E+00 0. -1.
         -1    1    3    3    0  502  0.86723357728E+03 -0.23981138739E+03  0.29933703575E+03  0.94826485754E+03  0.00000000000E+00 0.  1.
         11    1    5    5    0    0  0.14642367163E+02 -0.53461808162E+02  0.13476072186E+02  0.57045318560E+02  0.00000000000E+00 0. -1.
        -11    1    5    5    0    0 -0.78991603878E+01  0.36013142966E+02  0.14426855442E+01  0.36897486943E+02  0.00000000000E+00 0.  1.
          3    1    6    6  503    0 -0.85855107965E+03  0.21590295427E+03 -0.74397067633E+03  0.11563807372E+04  0.00000000000E+00 0. -1.
         -3    1    6    6    0  503 -0.25463432564E+03  0.11726250210E+03 -0.24426449030E+03  0.37182559812E+03  0.00000000000E+00 0.  1.
<mgrwt>
<rscale>  0 0.12043310E+04</rscale>
<asrwt>0</asrwt>
<pdfrwt beam="1">  1        1 0.26117720E+00 0.12043310E+04</pdfrwt>
<pdfrwt beam="2">  1       -1 0.17798342E+00 0.12043310E+04</pdfrwt>
<totfact> 0.10088008E+00</totfact>
</mgrwt>
</event>
<event>
12    1  0.1335216E-007  0.1072105E+04  0.7818608E-02  0.9232815E-01
          1   -1    0    0  501    0  0.00000000000E+00  0.00000000000E+00  0.29215206808E+04  0.29215206808E+04  0.00000000000E+00 0. -1.
         -1   -1    0    0    0  501 -0.00000000000E+00 -0.00000000000E+00 -0.42787803550E+03  0.42787803550E+03  0.00000000000E+00 0.  1.
         23    2    1    2    0    0 -0.45893283880E+03 -0.92757136116E+03  0.11072035269E+04  0.15182286330E+04  0.90058601593E+02 0.  0.
    5000000    2    1    2    0    0  0.45893283880E+03  0.92757136116E+03  0.13864391185E+04  0.18311700833E+04  0.59996871931E+03 0.  0.
         23    2    4    4    0    0 -0.19115112284E+02  0.61467972074E+02  0.45491259986E+03  0.46953941899E+03  0.96840556403E+02 0.  0.
         23    2    4    4    0    0  0.47804795108E+03  0.86610338909E+03  0.93152651860E+03  0.13616306643E+04  0.87358382420E+02 0.  0.
          2    1    3    3  502    0 -0.13900294907E+03 -0.33557662322E+03  0.44086649308E+03  0.57122390936E+03  0.00000000000E+00 0. -1.
         -2    1    3    3    0  502 -0.31992988972E+03 -0.59199473794E+03  0.66633703378E+03  0.94700472368E+03  0.00000000000E+00 0.  1.
         11    1    5    5    0    0 -0.55363998872E+01 -0.26124428524E+02  0.13250249711E+03  0.13516674602E+03  0.00000000000E+00 0. -1.
        -11    1    5    5    0    0 -0.13578712397E+02  0.87592400597E+02  0.32241010275E+03  0.33437267297E+03  0.00000000000E+00 0.  1.
          4    1    6    6  503    0  0.10410787904E+03  0.12540211294E+03  0.16748667984E+03  0.23370050991E+03  0.00000000000E+00 0. -1.
         -4    1    6    6    0  503  0.37394007204E+03  0.74070127615E+03  0.76403983876E+03  0.11279301544E+04  0.00000000000E+00 0.  1.
<mgrwt>
<rscale>  0 0.10721046E+04</rscale>
<asrwt>0</asrwt>
<pdfrwt beam="1">  1        1 0.44946471E+00 0.10721046E+04</pdfrwt>
<pdfrwt beam="2">  1       -1 0.65827392E-01 0.10721046E+04</pdfrwt>
<totfact> 0.16192487E+00</totfact>
</mgrwt>
</event>
<event>
12    1  0.1335216E-007  0.4276248E+03  0.7818608E-02  0.1034613E+00
         -2   -1    0    0    0  501 -0.00000000000E+00  0.00000000000E+00  0.28521167802E+03  0.28521167802E+03  0.00000000000E+00 0.  1.
          2   -1    0    0  501    0  0.00000000000E+00 -0.00000000000E+00 -0.18686293591E+04  0.18686293591E+04  0.00000000000E+00 0. -1.
         23    2    1    2    0    0 -0.79014800352E+02 -0.29036553640E+03 -0.14315057011E+04  0.14655933017E+04  0.90552031040E+02 0.  0.
    5000000    2    1    2    0    0  0.79014800352E+02  0.29036553640E+03 -0.15191197997E+03  0.68824773540E+03  0.60004350860E+03 0.  0.
         23    2    4    4    0    0  0.19022318512E+03  0.33675143927E+03 -0.28215590008E+03  0.48880092767E+03  0.98630638892E+02 0.  0.
         23    2    4    4    0    0 -0.11120838477E+03 -0.46385902874E+02  0.13024392011E+03  0.19944680773E+03  0.91085638601E+02 0.  0.
          1    1    3    3  502    0 -0.25016741709E+02 -0.21332731828E+03 -0.11107035942E+04  0.11312810687E+04  0.00000000000E+00 0. -1.
         -1    1    3    3    0  502 -0.53998058643E+02 -0.77038218121E+02 -0.32080210690E+03  0.33431223307E+03  0.00000000000E+00 0.  1.
         13    1    5    5    0    0  0.14194714643E+03  0.30886375725E+03 -0.21806454765E+03  0.40385388430E+03  0.00000000000E+00 0.  1.
        -13    1    5    5    0    0  0.48276038692E+02  0.27887682019E+02 -0.64091352429E+02  0.84947043364E+02  0.00000000000E+00 0. -1.
          1    1    6    6  503    0 -0.81505668554E+02 -0.74049369566E+02  0.89110734086E+02  0.14165876630E+03  0.00000000000E+00 0. -1.
         -1    1    6    6    0  503 -0.29702716217E+02  0.27663466693E+02  0.41133186025E+02  0.57788041433E+02  0.00000000000E+00 0.  1.
<mgrwt>
<rscale>  0 0.42762478E+03</rscale>
<asrwt>0</asrwt>
<pdfrwt beam="1">  1        2 0.28748145E+00 0.42762478E+03</pdfrwt>
<pdfrwt beam="2">  1       -2 0.43878719E-01 0.42762478E+03</pdfrwt>
<totfact> 0.42153003E+01</totfact>
</mgrwt>
</event>
<event>
12    1  0.1335216E-007  0.1032527E+04  0.7818608E-02  0.9273572E-01
         -1   -1    0    0    0  501 -0.00000000000E+00  0.00000000000E+00  0.15773232116E+04  0.15773232116E+04  0.00000000000E+00 0.  1.
          1   -1    0    0  501    0  0.00000000000E+00 -0.00000000000E+00 -0.18020618425E+04  0.18020618425E+04  0.00000000000E+00 0. -1.
         23    2    1    2    0    0  0.81325699794E+03 -0.55098143004E+03 -0.14141200155E+04  0.17241962189E+04  0.90275699016E+02 0.  0.
    5000000    2    1    2    0    0 -0.81325699794E+03  0.55098143004E+03  0.11893813846E+04  0.16551888353E+04  0.60004543275E+03 0.  0.
         23    2    4    4    0    0 -0.67322835516E+03  0.20796985471E+03  0.10054351398E+04  0.12312078594E+04  0.92114570041E+02 0.  0.
         23    2    4    4    0    0 -0.14002864278E+03  0.34301157532E+03  0.18394624477E+03  0.42398097584E+03  0.93052056954E+02 0.  0.
          3    1    3    3  502    0  0.16368580510E+03 -0.76536873991E+02 -0.29600631308E+03  0.34680062464E+03  0.00000000000E+00 0. -1.
         -3    1    3    3    0  502  0.64957119284E+03 -0.47444455604E+03 -0.11181137025E+04  0.13773955942E+04  0.00000000000E+00 0.  1.
         11    1    5    5    0    0 -0.66798872918E+03  0.20598741867E+03  0.97171422988E+03  0.11970247715E+04  0.00000000000E+00 0. -1.
        -11    1    5    5    0    0 -0.52396259731E+01  0.19824360464E+01  0.33720909967E+02  0.34183087953E+02  0.00000000000E+00 0.  1.
          4    1    6    6  503    0 -0.38353920168E+02  0.17337927212E+03  0.12654921697E+03  0.21805068105E+03  0.00000000000E+00 0. -1.
         -4    1    6    6    0  503 -0.10167472262E+03  0.16963230321E+03  0.57397027795E+02  0.20593029478E+03  0.00000000000E+00 0.  1.
<mgrwt>
<rscale>  0 0.10325271E+04</rscale>
<asrwt>0</asrwt>
<pdfrwt beam="1">  1        1 0.27724028E+00 0.10325271E+04</pdfrwt>
<pdfrwt beam="2">  1       -1 0.24266511E+00 0.10325271E+04</pdfrwt>
<totfact> 0.31868802E-01</totfact>
</mgrwt>
</event>
<event>
12    1  0.1335216E-007  0.9622312E+03  0.7818608E-02  0.9350967E-01
         -2   -1    0    0    0  501 -0.00000000000E+00  0.00000000000E+00  0.67213558916E+03  0.67213558916E+03  0.00000000000E+00 0.  1.
          2   -1    0    0  501    0  0.00000000000E+00 -0.00000000000E+00 -0.17673599384E+04  0.17673599384E+04  0.00000000000E+00 0. -1.
         23    2    1    2    0    0 -0.95600867289E+03  0.61928815214E+02 -0.16621762628E+03  0.97650202013E+03  0.90222698013E+02 0.  0.
    5000000    2    1    2    0    0  0.95600867289E+03 -0.61928815214E+02 -0.92900672300E+03  0.14629935075E+04  0.59959048585E+03 0.  0.
         23    2    4    4    0    0  0.50967091184E+03 -0.42104795086E+02 -0.11860319600E+03  0.53260079972E+03  0.89775506752E+02 0.  0.
         23    2    4    4    0    0  0.44633776105E+03 -0.19824020128E+02 -0.81040352700E+03  0.93039270775E+03  0.96261754385E+02 0.  0.
          3    1    3    3  502    0 -0.60352809371E+03  0.55569612888E+02 -0.64037406024E+02  0.60945461779E+03  0.00000000000E+00 0. -1.
         -3    1    3    3    0  502 -0.35248057917E+03  0.63592023258E+01 -0.10218022026E+03  0.36704740233E+03  0.00000000000E+00 0.  1.
         11    1    5    5    0    0  0.44051022421E+03 -0.54731106745E+01 -0.10831695550E+03  0.45366482719E+03  0.00000000000E+00 0. -1.
        -11    1    5    5    0    0  0.69160687624E+02 -0.36631684411E+02 -0.10286240504E+02  0.78935972529E+02  0.00000000000E+00 0.  1.
          2    1    6    6  503    0  0.19338985355E+03 -0.16131039298E+02 -0.45005658430E+03  0.49011302263E+03  0.00000000000E+00 0.  1.
         -2    1    6    6    0  503  0.25294790750E+03 -0.36929808296E+01 -0.36034694270E+03  0.44027968512E+03  0.00000000000E+00 0. -1.
<mgrwt>
<rscale>  0 0.96223117E+03</rscale>
<asrwt>0</asrwt>
<pdfrwt beam="1">  1        2 0.27190153E+00 0.96223117E+03</pdfrwt>
<pdfrwt beam="2">  1       -2 0.10340548E+00 0.96223117E+03</pdfrwt>
<totfact> 0.68730703E+00</totfact>
</mgrwt>
</event>
<event>
12    1  0.1335216E-007  0.4590001E+03  0.7818608E-02  0.1025072E+00
          1   -1    0    0  501    0  0.00000000000E+00  0.00000000000E+00  0.71197880921E+03  0.71197880921E+03  0.00000000000E+00 0. -1.
         -1   -1    0    0    0  501 -0.00000000000E+00 -0.00000000000E+00 -0.10545190630E+04  0.10545190630E+04  0.00000000000E+00 0.  1.
         23    2    1    2    0    0 -0.35770377364E+03  0.17428869557E+02 -0.83503070749E+03  0.91168452564E+03  0.75077537707E+02 0.  0.
    5000000    2    1    2    0    0  0.35770377364E+03 -0.17428869557E+02  0.49249045367E+03  0.85481334660E+03  0.59991937409E+03 0.  0.
         23    2    4    4    0    0  0.26855917462E+03 -0.20186962173E+03  0.52412537997E+03  0.62919521716E+03  0.91125369269E+02 0.  0.
         23    2    4    4    0    0  0.89144599022E+02  0.18444075217E+03 -0.31634926301E+02  0.22561812944E+03  0.89093328440E+02 0.  0.
          3    1    3    3  502    0 -0.69848704427E+02  0.29574596126E+02 -0.21489655657E+03  0.22789038653E+03  0.00000000000E+00 0. -1.
         -3    1    3    3    0  502 -0.28785506921E+03 -0.12145726569E+02 -0.62013415092E+03  0.68379413911E+03  0.00000000000E+00 0.  1.
         13    1    5    5    0    0  0.67637382291E+02 -0.10456147101E+03  0.17464661810E+03  0.21449792054E+03  0.00000000000E+00 0.  1.
        -13    1    5    5    0    0  0.20092179232E+03 -0.97308150723E+02  0.34947876187E+03  0.41469729662E+03  0.00000000000E+00 0. -1.
          3    1    6    6  503    0  0.75960490449E+02  0.13305509587E+03  0.16356214937E+02  0.15408173290E+03  0.00000000000E+00 0. -1.
         -3    1    6    6    0  503  0.13184108573E+02  0.51385656301E+02 -0.47991141238E+02  0.71536396538E+02  0.00000000000E+00 0.  1.
<mgrwt>
<rscale>  0 0.45900012E+03</rscale>
<asrwt>0</asrwt>
<pdfrwt beam="1">  1        1 0.10953520E+00 0.45900012E+03</pdfrwt>
<pdfrwt beam="2">  1       -1 0.16223370E+00 0.45900012E+03</pdfrwt>
<totfact> 0.81088408E+00</totfact>
</mgrwt>
</event>
<event>
12    1  0.1335216E-007  0.3755973E+03  0.7818608E-02  0.1052573E+00
          1   -1    0    0  501    0  0.00000000000E+00  0.00000000000E+00  0.45913900395E+03  0.45913900395E+03  0.00000000000E+00 0. -1.
         -1   -1    0    0    0  501 -0.00000000000E+00 -0.00000000000E+00 -0.65548505596E+03  0.65548505596E+03  0.00000000000E+00 0.  1.
         23    2    1    2    0    0  0.12955572195E+03 -0.31251789627E+03 -0.23887582627E+03  0.42453230013E+03  0.93348234581E+02 0.  0.
    5000000    2    1    2    0    0 -0.12955572195E+03  0.31251789627E+03  0.42529774256E+02  0.69009175979E+03  0.59997144487E+03 0.  0.
         23    2    4    4    0    0 -0.14607446748E+03  0.27788965921E+03 -0.23050432865E+03  0.40012649186E+03  0.91698152726E+02 0.  0.
         23    2    4    4    0    0  0.16518745530E+02  0.34628237054E+02  0.27303410291E+03  0.28996526793E+03  0.89778903414E+02 0.  0.
          2    1    3    3  502    0  0.13521636080E+03 -0.22045703363E+03 -0.18038601383E+03  0.31531552751E+03  0.00000000000E+00 0.  1.
         -2    1    3    3    0  502 -0.56606388500E+01 -0.92060862636E+02 -0.58489812438E+02  0.10921677262E+03  0.00000000000E+00 0. -1.
         11    1    5    5    0    0 -0.81602808410E+02  0.81948012072E+02 -0.49881243615E+02  0.12594694711E+03  0.00000000000E+00 0. -1.
        -11    1    5    5    0    0 -0.64471659066E+02  0.19594164714E+03 -0.18062308504E+03  0.27417954474E+03  0.00000000000E+00 0.  1.
          2    1    6    6  503    0 -0.22913694535E+02  0.31371152792E+02  0.49337023942E+02  0.62795927864E+02  0.00000000000E+00 0. -1.
         -2    1    6    6    0  503  0.39432440065E+02  0.32570842622E+01  0.22369707897E+03  0.22716934007E+03  0.00000000000E+00 0.  1.
<mgrwt>
<rscale>  0 0.37559730E+03</rscale>
<asrwt>0</asrwt>
<pdfrwt beam="1">  1        1 0.70636770E-01 0.37559730E+03</pdfrwt>
<pdfrwt beam="2">  1       -1 0.10084385E+00 0.37559730E+03</pdfrwt>
<totfact> 0.49694040E+01</totfact>
</mgrwt>
</event>
<event>
12    1  0.1335216E-007  0.1159310E+04  0.7818608E-02  0.9149238E-01
          2   -1    0    0  501    0  0.00000000000E+00  0.00000000000E+00  0.13008805391E+04  0.13008805391E+04  0.00000000000E+00 0.  1.
         -2   -1    0    0    0  501 -0.00000000000E+00 -0.00000000000E+00 -0.11746036696E+04  0.11746036696E+04  0.00000000000E+00 0. -1.
         23    2    1    2    0    0 -0.10902183059E+04  0.38634961099E+03  0.16625691268E+03  0.11719111015E+04  0.88838574237E+02 0.  0.
    5000000    2    1    2    0    0  0.10902183059E+04 -0.38634961099E+03 -0.39980043134E+02  0.13035731073E+04  0.59988537715E+03 0.  0.
         23    2    4    4    0    0  0.90200028008E+03 -0.32811630094E+03 -0.25565834264E+03  0.99741961655E+03  0.90663615159E+02 0.  0.
         23    2    4    4    0    0  0.18821802583E+03 -0.58233310047E+02  0.21567829950E+03  0.30615349073E+03  0.91627983513E+02 0.  0.
          2    1    3    3  502    0 -0.32783153348E+03  0.11364544491E+03  0.89892543583E+01  0.34708732069E+03  0.00000000000E+00 0. -1.
         -2    1    3    3    0  502 -0.76238677243E+03  0.27270416608E+03  0.15726765832E+03  0.82482378077E+03  0.00000000000E+00 0.  1.
         11    1    5    5    0    0  0.35876508740E+03 -0.15217120942E+03 -0.62911159498E+02  0.39474837416E+03  0.00000000000E+00 0. -1.
        -11    1    5    5    0    0  0.54323519268E+03 -0.17594509152E+03 -0.19274718314E+03  0.60267124239E+03  0.00000000000E+00 0.  1.
          4    1    6    6  503    0  0.19035371239E+03 -0.58351480088E+02  0.22275369867E+03  0.29876184716E+03  0.00000000000E+00 0. -1.
         -4    1    6    6    0  503 -0.21356865602E+01  0.11817004142E+00 -0.70753991665E+01  0.73916435660E+01  0.00000000000E+00 0.  1.
<mgrwt>
<rscale>  0 0.11593095E+04</rscale>
<asrwt>0</asrwt>
<pdfrwt beam="1">  1        2 0.20013547E+00 0.11593095E+04</pdfrwt>
<pdfrwt beam="2">  1       -2 0.18070826E+00 0.11593095E+04</pdfrwt>
<totfact> 0.28858975E+00</totfact>
</mgrwt>
</event>
<event>
12    1  0.1335216E-007  0.1783749E+04  0.7818608E-02  0.8714990E-01
          2   -1    0    0  501    0  0.00000000000E+00  0.00000000000E+00  0.21008975556E+04  0.21008975556E+04  0.00000000000E+00 0.  1.
         -2   -1    0    0    0  501 -0.00000000000E+00 -0.00000000000E+00 -0.17967350226E+04  0.17967350226E+04  0.00000000000E+00 0. -1.
         23    2    1    2    0    0  0.42811447775E+03  0.16965403858E+04  0.87942885627E+03  0.19605077424E+04  0.93081729169E+02 0.  0.
    5000000    2    1    2    0    0 -0.42811447775E+03 -0.16965403858E+04 -0.57526632331E+03  0.19371248358E+04  0.59999166663E+03 0.  0.
         23    2    4    4    0    0 -0.29163254933E+03 -0.33445467477E+03 -0.94750594216E+01  0.45302840477E+03  0.90749575589E+02 0.  0.
         23    2    4    4    0    0 -0.13648192842E+03 -0.13620857110E+04 -0.56579126388E+03  0.14840964310E+04  0.92291176909E+02 0.  0.
          2    1    3    3  502    0  0.15474841772E+03  0.79678212080E+03  0.42054446746E+03  0.91414794750E+03  0.00000000000E+00 0. -1.
         -2    1    3    3    0  502  0.27336606004E+03  0.89975826495E+03  0.45888438881E+03  0.10463597949E+04  0.00000000000E+00 0.  1.
         11    1    5    5    0    0 -0.27793049625E+03 -0.33128792905E+03 -0.23627821027E+02  0.43307658284E+03  0.00000000000E+00 0. -1.
        -11    1    5    5    0    0 -0.13702053086E+02 -0.31667457224E+01  0.14152761605E+02  0.19951821929E+02  0.00000000000E+00 0.  1.
          3    1    6    6  503    0 -0.11730762702E+03 -0.11232756829E+04 -0.50360398411E+03  0.12365784698E+04  0.00000000000E+00 0. -1.
         -3    1    6    6    0  503 -0.19174301395E+02 -0.23881002807E+03 -0.62187279772E+02  0.24751796118E+03  0.00000000000E+00 0.  1.
<mgrwt>
<rscale>  0 0.17837486E+04</rscale>
<asrwt>0</asrwt>
<pdfrwt beam="1">  1        2 0.32321501E+00 0.17837486E+04</pdfrwt>
<pdfrwt beam="2">  1       -2 0.27642077E+00 0.17837486E+04</pdfrwt>
<totfact> 0.23632735E-01</totfact>
</mgrwt>
</event>
<event>
12    1  0.1335216E-007  0.6804212E+03  0.7818608E-02  0.9751313E-01
         -2   -1    0    0    0  501 -0.00000000000E+00  0.00000000000E+00  0.80775880187E+03  0.80775880187E+03  0.00000000000E+00 0. -1.
          2   -1    0    0  501    0  0.00000000000E+00 -0.00000000000E+00 -0.66272245561E+03  0.66272245561E+03  0.00000000000E+00 0.  1.
         23    2    1    2    0    0 -0.49710798207E+03 -0.33402629005E+03  0.14769630178E+03  0.62276221575E+03  0.85607660455E+02 0.  0.
    5000000    2    1    2    0    0  0.49710798207E+03  0.33402629005E+03 -0.26599555164E+01  0.84771904173E+03  0.59994215561E+03 0.  0.
         23    2    4    4    0    0  0.89379737323E+02 -0.10993722350E+03 -0.14526344346E+03  0.22187335602E+03  0.89729524418E+02 0.  0.
         23    2    4    4    0    0  0.40772824475E+03  0.44396351354E+03  0.14260348794E+03  0.62584568571E+03  0.89449117539E+02 0.  0.
          1    1    3    3  502    0 -0.32254362733E+03 -0.23908877790E+03  0.13524720071E+03  0.42366217739E+03  0.00000000000E+00 0. -1.
         -1    1    3    3    0  502 -0.17456435474E+03 -0.94937512144E+02  0.12449101064E+02  0.19910003836E+03  0.00000000000E+00 0.  1.
         11    1    5    5    0    0  0.83787030789E+02 -0.11783701784E+03 -0.10052462404E+03  0.17609948705E+03  0.00000000000E+00 0.  1.
        -11    1    5    5    0    0  0.55927065338E+01  0.78997943451E+01 -0.44738819422E+02  0.45773868968E+02  0.00000000000E+00 0. -1.
          4    1    6    6  503    0  0.13514570700E+03  0.19465577185E+03  0.25548886820E+02  0.23834424107E+03  0.00000000000E+00 0. -1.
         -4    1    6    6    0  503  0.27258253775E+03  0.24930774169E+03  0.11705460112E+03  0.38750144464E+03  0.00000000000E+00 0.  1.
<mgrwt>
<rscale>  0 0.68042123E+03</rscale>
<asrwt>0</asrwt>
<pdfrwt beam="1">  1        2 0.10195730E+00 0.68042123E+03</pdfrwt>
<pdfrwt beam="2">  1       -2 0.12427058E+00 0.68042123E+03</pdfrwt>
<totfact> 0.21790761E+01</totfact>
</mgrwt>
</event>
<event>
12    1  0.1335216E-007  0.9269305E+03  0.7818608E-02  0.9392529E-01
         -1   -1    0    0    0  501 -0.00000000000E+00  0.00000000000E+00  0.80526463967E+03  0.80526463967E+03  0.00000000000E+00 0.  1.
          1   -1    0    0  501    0  0.00000000000E+00 -0.00000000000E+00 -0.11602121108E+04  0.11602121108E+04  0.00000000000E+00 0. -1.
         23    2    1    2    0    0  0.23070644934E+03 -0.83427315247E+03 -0.25817449461E+03  0.90783749615E+03  0.90981817178E+02 0.  0.
    5000000    2    1    2    0    0 -0.23070644934E+03  0.83427315247E+03 -0.96772976536E+02  0.10576392543E+04  0.59999885386E+03 0.  0.
         23    2    4    4    0    0 -0.34813459595E+03  0.40921531908E+03 -0.22529552653E+03  0.58986836706E+03  0.92367428876E+02 0.  0.
         23    2    4    4    0    0  0.11742814660E+03  0.42505783338E+03  0.12852255000E+03  0.46777088728E+03  0.88476131198E+02 0.  0.
          1    1    3    3  502    0  0.87331266395E+02 -0.21446985732E+03 -0.38132240223E+02  0.23468731864E+03  0.00000000000E+00 0. -1.
         -1    1    3    3    0  502  0.14337518295E+03 -0.61980329515E+03 -0.22004225438E+03  0.67315017751E+03  0.00000000000E+00 0.  1.
         11    1    5    5    0    0 -0.25654110649E+03  0.33348268384E+03 -0.20937332278E+03  0.46995875141E+03  0.00000000000E+00 0. -1.
        -11    1    5    5    0    0 -0.91593489460E+02  0.75732635249E+02 -0.15922203750E+02  0.11990961565E+03  0.00000000000E+00 0.  1.
          2    1    6    6  503    0  0.19293765807E+02  0.20102290093E+03  0.30332289641E+02  0.20421190928E+03  0.00000000000E+00 0. -1.
         -2    1    6    6    0  503  0.98134380795E+02  0.22403493245E+03  0.98190260357E+02  0.26355897799E+03  0.00000000000E+00 0.  1.
<mgrwt>
<rscale>  0 0.92693052E+03</rscale>
<asrwt>0</asrwt>
<pdfrwt beam="1">  1        1 0.17849417E+00 0.92693052E+03</pdfrwt>
<pdfrwt beam="2">  1       -1 0.12388687E+00 0.92693052E+03</pdfrwt>
<totfact> 0.66176710E+00</totfact>
</mgrwt>
</event>
<event>
12    1  0.1335216E-007  0.4957872E+03  0.7818608E-02  0.1014884E+00
          2   -1    0    0  501    0  0.00000000000E+00  0.00000000000E+00  0.20738273205E+04  0.20738273205E+04  0.00000000000E+00 0. -1.
         -2   -1    0    0    0  501 -0.00000000000E+00 -0.00000000000E+00 -0.65261929949E+03  0.65261929949E+03  0.00000000000E+00 0.  1.
         23    2    1    2    0    0 -0.11971378906E+03 -0.44223403171E+03 -0.48704586918E+03  0.67423741359E+03  0.86487462146E+02 0.  0.
    5000000    2    1    2    0    0  0.11971378906E+03  0.44223403171E+03  0.19082538902E+04  0.20522092064E+04  0.60018945950E+03 0.  0.
         23    2    4    4    0    0  0.15839399174E+03  0.19043635011E+03  0.22485715653E+03  0.34718486454E+03  0.92854344326E+02 0.  0.
         23    2    4    4    0    0 -0.38680202680E+02  0.25179768160E+03  0.16833967337E+04  0.17050243419E+04  0.91570808020E+02 0.  0.
          3    1    3    3  502    0 -0.85164596327E+02 -0.15600805875E+03 -0.19537275038E+03  0.26412503564E+03  0.00000000000E+00 0. -1.
         -3    1    3    3    0  502 -0.34549192729E+02 -0.28622597297E+03 -0.29167311879E+03  0.41011237795E+03  0.00000000000E+00 0.  1.
         11    1    5    5    0    0  0.12544068946E+03  0.91404290049E+02  0.16643368997E+03  0.22757478764E+03  0.00000000000E+00 0. -1.
        -11    1    5    5    0    0  0.32953302275E+02  0.99032060065E+02  0.58423466560E+02  0.11961007690E+03  0.00000000000E+00 0.  1.
          1    1    6    6  503    0  0.44989890683E+01  0.19273194249E+03  0.10643120278E+04  0.10816311455E+04  0.00000000000E+00 0. -1.
         -1    1    6    6    0  503 -0.43179191749E+02  0.59065739104E+02  0.61908470592E+03  0.62339319634E+03  0.00000000000E+00 0.  1.
<mgrwt>
<rscale>  0 0.49578719E+03</rscale>
<asrwt>0</asrwt>
<pdfrwt beam="1">  1        2 0.31905035E+00 0.49578719E+03</pdfrwt>
<pdfrwt beam="2">  1       -2 0.10040297E+00 0.49578719E+03</pdfrwt>
<totfact> 0.54375643E+00</totfact>
</mgrwt>
</event>
<event>
12    1  0.1335216E-007  0.2999629E+03  0.7818608E-02  0.1085259E+00
         -2   -1    0    0    0  501 -0.00000000000E+00  0.00000000000E+00  0.91569875763E+02  0.91569875763E+02  0.00000000000E+00 0.  1.
          2   -1    0    0  501    0  0.00000000000E+00 -0.00000000000E+00 -0.19496843644E+04  0.19496843644E+04  0.00000000000E+00 0. -1.
         23    2    1    2    0    0  0.15694153175E+03  0.33738544228E+02 -0.73452717222E+03  0.75745308423E+03  0.91848104699E+02 0.  0.
    5000000    2    1    2    0    0 -0.15694153175E+03 -0.33738544228E+02 -0.11235873164E+04  0.12838011559E+04  0.59994001083E+03 0.  0.
         23    2    4    4    0    0 -0.25526907761E+03  0.67630442863E+02 -0.19611597602E+03  0.34145434559E+03  0.91615584299E+02 0.  0.
         23    2    4    4    0    0  0.98327545868E+02 -0.10136898709E+03 -0.92747134040E+03  0.94234681034E+03  0.88715533394E+02 0.  0.
          1    1    3    3  502    0  0.85448534710E+02  0.39588743108E+02 -0.57337379642E+03  0.58105613419E+03  0.00000000000E+00 0. -1.
         -1    1    3    3    0  502  0.71492997036E+02 -0.58501988798E+01 -0.16115337580E+03  0.17639695004E+03  0.00000000000E+00 0.  1.
         11    1    5    5    0    0 -0.18340438598E+03  0.28801162763E+02 -0.17921557115E+03  0.25804049433E+03  0.00000000000E+00 0. -1.
        -11    1    5    5    0    0 -0.71864691639E+02  0.38829280100E+02 -0.16900404865E+02  0.83413851260E+02  0.00000000000E+00 0.  1.
          2    1    6    6  503    0  0.11301822028E+03 -0.72446863099E+02 -0.73422808216E+03  0.74639972047E+03  0.00000000000E+00 0.  1.
         -2    1    6    6    0  503 -0.14690674410E+02 -0.28922123992E+02 -0.19324325825E+03  0.19594708987E+03  0.00000000000E+00 0. -1.
<mgrwt>
<rscale>  0 0.29996287E+03</rscale>
<asrwt>0</asrwt>
<pdfrwt beam="1">  1        2 0.29995140E+00 0.29996287E+03</pdfrwt>
<pdfrwt beam="2">  1       -2 0.14087675E-01 0.29996287E+03</pdfrwt>
<totfact> 0.29948093E+02</totfact>
</mgrwt>
</event>
<event>
12    1  0.1335216E-007  0.7250518E+03  0.7818608E-02  0.9675324E-01
          2   -1    0    0  501    0  0.00000000000E+00  0.00000000000E+00  0.18712887312E+04  0.18712887312E+04  0.00000000000E+00 0. -1.
         -2   -1    0    0    0  501 -0.00000000000E+00 -0.00000000000E+00 -0.43693736342E+03  0.43693736342E+03  0.00000000000E+00 0.  1.
         23    2    1    2    0    0 -0.59079893228E+03  0.35114805084E+03  0.11674500955E+04  0.13576769316E+04  0.89434853710E+02 0.  0.
    5000000    2    1    2    0    0  0.59079893228E+03 -0.35114805084E+03  0.26690127227E+03  0.95054916303E+03  0.59996590754E+03 0.  0.
         23    2    4    4    0    0  0.51488612664E+03 -0.15967123242E+03  0.41007739016E+03  0.68339450226E+03  0.90895291030E+02 0.  0.
         23    2    4    4    0    0  0.75912805637E+02 -0.19147681842E+03 -0.14317611789E+03  0.26715466077E+03  0.91902589654E+02 0.  0.
          2    1    3    3  502    0 -0.35050193094E+03  0.20299810274E+03  0.77199668653E+03  0.87180199433E+03  0.00000000000E+00 0. -1.
         -2    1    3    3    0  502 -0.24029700134E+03  0.14814994811E+03  0.39545340898E+03  0.48587493726E+03  0.00000000000E+00 0.  1.
         13    1    5    5    0    0  0.18155785600E+03 -0.92112479485E+02  0.18868379122E+03  0.27757798368E+03  0.00000000000E+00 0.  1.
        -13    1    5    5    0    0  0.33332827064E+03 -0.67558752939E+02  0.22139359894E+03  0.40581651858E+03  0.00000000000E+00 0. -1.
          3    1    6    6  503    0  0.12564329534E+02 -0.13063344427E+03 -0.53778780605E+02  0.14182777013E+03  0.00000000000E+00 0. -1.
         -3    1    6    6    0  503  0.63348476103E+02 -0.60843374153E+02 -0.89397337289E+02  0.12532689064E+03  0.00000000000E+00 0.  1.
<mgrwt>
<rscale>  0 0.72505178E+03</rscale>
<asrwt>0</asrwt>
<pdfrwt beam="1">  1        2 0.28789057E+00 0.72505178E+03</pdfrwt>
<pdfrwt beam="2">  1       -2 0.67221134E-01 0.72505178E+03</pdfrwt>
<totfact> 0.16557330E+01</totfact>
</mgrwt>
</event>
<event>
12    1  0.1335216E-007  0.6724118E+03  0.7818608E-02  0.9765611E-01
          1   -1    0    0  501    0  0.00000000000E+00  0.00000000000E+00  0.41162535235E+03  0.41162535235E+03  0.00000000000E+00 0. -1.
         -1   -1    0    0    0  501 -0.00000000000E+00 -0.00000000000E+00 -0.13143466173E+04  0.13143466173E+04  0.00000000000E+00 0.  1.
         23    2    1    2    0    0 -0.57315235259E+03  0.72089329190E+02 -0.60749937488E+03  0.84320529759E+03  0.90769999200E+02 0.  0.
    5000000    2    1    2    0    0  0.57315235259E+03 -0.72089329190E+02 -0.29522189012E+03  0.88276667209E+03  0.59868233838E+03 0.  0.
         23    2    4    4    0    0  0.50231832418E+03 -0.24398419985E+03 -0.35188053633E+03  0.66589077123E+03  0.87969419546E+02 0.  0.
         23    2    4    4    0    0  0.70834028402E+02  0.17189487066E+03  0.56658646208E+02  0.21687590086E+03  0.96227065034E+02 0.  0.
          4    1    3    3  502    0 -0.24859850205E+03 -0.12656507469E+02 -0.24342074380E+03  0.34815953371E+03  0.00000000000E+00 0.  1.
         -4    1    3    3    0  502 -0.32455385054E+03  0.84745836660E+02 -0.36407863108E+03  0.49504576389E+03  0.00000000000E+00 0. -1.
         11    1    5    5    0    0  0.79671775784E+02 -0.71369754362E+02 -0.88492980273E+02  0.13882449803E+03  0.00000000000E+00 0.  1.
        -11    1    5    5    0    0  0.42264654840E+03 -0.17261444549E+03 -0.26338755605E+03  0.52706627320E+03  0.00000000000E+00 0. -1.
          2    1    6    6  503    0  0.83500443554E+02  0.14906759187E+03  0.20223645770E+02  0.17205367438E+03  0.00000000000E+00 0.  1.
         -2    1    6    6    0  503 -0.12666415152E+02  0.22827278792E+02  0.36435000439E+02  0.44822226482E+02  0.00000000000E+00 0. -1.
<mgrwt>
<rscale>  0 0.67241178E+03</rscale>
<asrwt>0</asrwt>
<pdfrwt beam="1">  1        1 0.63326978E-01 0.67241178E+03</pdfrwt>
<pdfrwt beam="2">  1       -1 0.20220717E+00 0.67241178E+03</pdfrwt>
<totfact> 0.87542964E+00</totfact>
</mgrwt>
</event>
<event>
12    1  0.1335216E-007  0.1618681E+04  0.7818608E-02  0.8809153E-01
          1   -1    0    0  501    0  0.00000000000E+00  0.00000000000E+00  0.32074674818E+04  0.32074674818E+04  0.00000000000E+00 0. -1.
         -1   -1    0    0    0  501 -0.00000000000E+00 -0.00000000000E+00 -0.11095962510E+04  0.11095962510E+04  0.00000000000E+00 0.  1.
         23    2    1    2    0    0 -0.15739033917E+04  0.34787999476E+03  0.20327864655E+04  0.25959130226E+04  0.91385061855E+02 0.  0.
    5000000    2    1    2    0    0  0.15739033917E+04 -0.34787999476E+03  0.65084765242E+02  0.17211507101E+04  0.59994279987E+03 0.  0.
         23    2    4    4    0    0  0.39718475965E+03 -0.60999092946E+01 -0.21564381389E+03  0.46095062387E+03  0.90444905810E+02 0.  0.
         23    2    4    4    0    0  0.11767186320E+04 -0.34178008546E+03  0.28072857913E+03  0.12602000862E+04  0.88404504466E+02 0.  0.
          2    1    3    3  502    0 -0.23117237366E+03  0.71671414663E+02  0.34783372509E+03  0.42375200098E+03  0.00000000000E+00 0.  1.
         -2    1    3    3    0  502 -0.13427310180E+04  0.27620858009E+03  0.16849527405E+04  0.21721610217E+04  0.00000000000E+00 0. -1.
         11    1    5    5    0    0  0.29208313455E+02 -0.96199060411E+01 -0.46971919392E+02  0.56142937031E+02  0.00000000000E+00 0.  1.
        -11    1    5    5    0    0  0.36797644619E+03  0.35199967465E+01 -0.16867189449E+03  0.40480768684E+03  0.00000000000E+00 0. -1.
          1    1    6    6  503    0  0.83776206635E+03 -0.25795637508E+03  0.16215667031E+03  0.89144913315E+03  0.00000000000E+00 0. -1.
         -1    1    6    6    0  503  0.33895656567E+03 -0.83823710382E+02  0.11857190882E+03  0.36875095307E+03  0.00000000000E+00 0.  1.
<mgrwt>
<rscale>  0 0.16186814E+04</rscale>
<asrwt>0</asrwt>
<pdfrwt beam="1">  1        1 0.49345653E+00 0.16186814E+04</pdfrwt>
<pdfrwt beam="2">  1       -1 0.17070712E+00 0.16186814E+04</pdfrwt>
<totfact> 0.95608732E-02</totfact>
</mgrwt>
</event>
<event>
12    1  0.1335216E-007  0.8020013E+03  0.7818608E-02  0.9557125E-01
         -2   -1    0    0    0  501 -0.00000000000E+00  0.00000000000E+00  0.68300578952E+03  0.68300578952E+03  0.00000000000E+00 0.  1.
          2   -1    0    0  501    0  0.00000000000E+00 -0.00000000000E+00 -0.13378361250E+04  0.13378361250E+04  0.00000000000E+00 0. -1.
         23    2    1    2    0    0  0.75785416211E+03 -0.12801384413E+02 -0.72317668812E+03  0.10517381756E+04  0.93069121033E+02 0.  0.
    5000000    2    1    2    0    0 -0.75785416211E+03  0.12801384413E+02  0.68346352651E+02  0.96910373891E+03  0.59998668851E+03 0.  0.
         23    2    4    4    0    0 -0.20205465263E+03 -0.14504429109E+03 -0.19329363420E+03  0.32814074007E+03  0.91923812183E+02 0.  0.
         23    2    4    4    0    0 -0.55579950948E+03  0.15784567551E+03  0.26163998685E+03  0.64096299884E+03  0.92464756267E+02 0.  0.
          1    1    3    3  502    0  0.31720239522E+03  0.24175169255E+02 -0.25467502208E+03  0.40750603089E+03  0.00000000000E+00 0. -1.
         -1    1    3    3    0  502  0.44065176689E+03 -0.36976553668E+02 -0.46850166604E+03  0.64423214470E+03  0.00000000000E+00 0.  1.
         11    1    5    5    0    0 -0.11169379567E+03 -0.35033042216E+02 -0.12143465094E+03  0.16866888417E+03  0.00000000000E+00 0. -1.
        -11    1    5    5    0    0 -0.90360856960E+02 -0.11001124888E+03 -0.71858983253E+02  0.15947185590E+03  0.00000000000E+00 0.  1.
          1    1    6    6  503    0 -0.39709280413E+03  0.15277802473E+03  0.17476567317E+03  0.45996397734E+03  0.00000000000E+00 0. -1.
         -1    1    6    6    0  503 -0.15870670535E+03  0.50676507788E+01  0.86874313679E+02  0.18099902150E+03  0.00000000000E+00 0.  1.
<mgrwt>
<rscale>  0 0.80200125E+03</rscale>
<asrwt>0</asrwt>
<pdfrwt beam="1">  1        2 0.20582094E+00 0.80200125E+03</pdfrwt>
<pdfrwt beam="2">  1       -2 0.10507781E+00 0.80200125E+03</pdfrwt>
<totfact> 0.11706605E+01</totfact>
</mgrwt>
</event>
<event>
12    1  0.1335216E-007  0.4517799E+03  0.7818608E-02  0.1027193E+00
          1   -1    0    0  501    0  0.00000000000E+00  0.00000000000E+00  0.13662076841E+04  0.13662076841E+04  0.00000000000E+00 0. -1.
         -1   -1    0    0    0  501 -0.00000000000E+00 -0.00000000000E+00 -0.43275207112E+03  0.43275207112E+03  0.00000000000E+00 0.  1.
         23    2    1    2    0    0 -0.34904039603E+03  0.19259717741E+03  0.99530275985E+03  0.10760046034E+04  0.90749391456E+02 0.  0.
    5000000    2    1    2    0    0  0.34904039603E+03 -0.19259717741E+03 -0.61847146837E+02  0.72295515181E+03  0.59993017190E+03 0.  0.
         23    2    4    4    0    0  0.34501086771E+03 -0.55694635419E+02  0.20075178463E+03  0.41308838332E+03  0.90588863267E+02 0.  0.
         23    2    4    4    0    0  0.40295283195E+01 -0.13690254199E+03 -0.26259893147E+03  0.30986676850E+03  0.91108025492E+02 0.  0.
          2    1    3    3  502    0 -0.24380430038E+03  0.12411275177E+03  0.56486298794E+03  0.62762624800E+03  0.00000000000E+00 0. -1.
         -2    1    3    3    0  502 -0.10523609565E+03  0.68484425644E+02  0.43043977191E+03  0.44837835544E+03  0.00000000000E+00 0.  1.
         13    1    5    5    0    0  0.26004434526E+03 -0.26838853797E+02  0.10461471949E+03  0.28158058369E+03  0.00000000000E+00 0. -1.
        -13    1    5    5    0    0  0.84966522445E+02 -0.28855781622E+02  0.96137065138E+02  0.13150779963E+03  0.00000000000E+00 0.  1.
          2    1    6    6  503    0  0.28376294432E+02 -0.22255673015E+02 -0.11989926416E+03  0.12520528189E+03  0.00000000000E+00 0. -1.
         -2    1    6    6    0  503 -0.24346766113E+02 -0.11464686898E+03 -0.14269966731E+03  0.18466148661E+03  0.00000000000E+00 0.  1.
<mgrwt>
<rscale>  0 0.45177992E+03</rscale>
<asrwt>0</asrwt>
<pdfrwt beam="1">  1        1 0.21018579E+00 0.45177992E+03</pdfrwt>
<pdfrwt beam="2">  1       -1 0.66577243E-01 0.45177992E+03</pdfrwt>
<totfact> 0.20154717E+01</totfact>
</mgrwt>
</event>
<event>
12    1  0.1335216E-007  0.6803727E+03  0.7818608E-02  0.9751399E-01
          1   -1    0    0  501    0  0.00000000000E+00  0.00000000000E+00  0.23258607646E+04  0.23258607646E+04  0.00000000000E+00 0. -1.
         -1   -1    0    0    0  501 -0.00000000000E+00 -0.00000000000E+00 -0.36667919612E+03  0.36667919612E+03  0.00000000000E+00 0.  1.
         23    2    1    2    0    0  0.59298488685E+03 -0.38617678701E+02  0.47176107259E+02  0.60279190357E+03  0.89499121634E+02 0.  0.
    5000000    2    1    2    0    0 -0.59298488685E+03  0.38617678701E+02  0.19120054613E+04  0.20897480572E+04  0.59846441622E+03 0.  0.
         23    2    4    4    0    0 -0.39499628998E+03 -0.20680931129E+03  0.14719131804E+04  0.15406857970E+04  0.91608700605E+02 0.  0.
         23    2    4    4    0    0 -0.19798859687E+03  0.24542698999E+03  0.44009228083E+03  0.54906226018E+03  0.91401630212E+02 0.  0.
          4    1    3    3  502    0  0.29042110154E+03 -0.22114040337E+02 -0.21632267824E+02  0.29206403751E+03  0.00000000000E+00 0. -1.
         -4    1    3    3    0  502  0.30256378531E+03 -0.16503638364E+02  0.68808375083E+02  0.31072786606E+03  0.00000000000E+00 0.  1.
         11    1    5    5    0    0 -0.68832452796E+02 -0.14441728374E+02  0.33723153263E+03  0.34448741149E+03  0.00000000000E+00 0.  1.
        -11    1    5    5    0    0 -0.32616383718E+03 -0.19236758291E+03  0.11346816478E+04  0.11961983855E+04  0.00000000000E+00 0. -1.
          1    1    6    6  503    0 -0.67154851196E+02  0.11209075062E+03  0.11473649533E+03  0.17389242012E+03  0.00000000000E+00 0. -1.
         -1    1    6    6    0  503 -0.13083374568E+03  0.13333623937E+03  0.32535578550E+03  0.37516984007E+03  0.00000000000E+00 0.  1.
<mgrwt>
<rscale>  0 0.68037274E+03</rscale>
<asrwt>0</asrwt>
<pdfrwt beam="1">  1        1 0.35782472E+00 0.68037274E+03</pdfrwt>
<pdfrwt beam="2">  1       -1 0.56412185E-01 0.68037274E+03</pdfrwt>
<totfact> 0.60683302E+00</totfact>
</mgrwt>
</event>
<event>
12    1  0.1335216E-007  0.5340565E+03  0.7818608E-02  0.1005253E+00
         -2   -1    0    0    0  501 -0.00000000000E+00  0.00000000000E+00  0.23420719851E+03  0.23420719851E+03  0.00000000000E+00 0.  1.
          2   -1    0    0  501    0  0.00000000000E+00 -0.00000000000E+00 -0.12516607007E+04  0.12516607007E+04  0.00000000000E+00 0. -1.
         23    2    1    2    0    0  0.15909351404E+03  0.33171351014E+03 -0.36026999182E+03  0.52291750096E+03  0.91124347922E+02 0.  0.
    5000000    2    1    2    0    0 -0.15909351404E+03 -0.33171351014E+03 -0.65718351040E+03  0.96295039829E+03  0.60003225264E+03 0.  0.
         23    2    4    4    0    0  0.13016273440E+03 -0.36531103411E+03 -0.34957801482E+03  0.52975305839E+03  0.89660612078E+02 0.  0.
         23    2    4    4    0    0 -0.28925624844E+03  0.33597523976E+02 -0.30760549558E+03  0.43319733990E+03  0.90778981645E+02 0.  0.
          1    1    3    3  502    0  0.31471350078E+02  0.17043297056E+03 -0.16156639435E+03  0.23694206699E+03  0.00000000000E+00 0. -1.
         -1    1    3    3    0  502  0.12762216397E+03  0.16128053958E+03 -0.19870359748E+03  0.28597543397E+03  0.00000000000E+00 0.  1.
         13    1    5    5    0    0  0.76563463071E+01  0.51929016999E+00  0.18455795436E+01  0.78927476145E+01  0.00000000000E+00 0. -1.
        -13    1    5    5    0    0  0.12250638809E+03 -0.36583032428E+03 -0.35142359436E+03  0.52186031077E+03  0.00000000000E+00 0.  1.
          4    1    6    6  503    0 -0.18606612541E+03 -0.32344393559E+01 -0.24275438981E+03  0.30587703149E+03  0.00000000000E+00 0.  1.
         -4    1    6    6    0  503 -0.10319012303E+03  0.36831963332E+02 -0.64851105772E+02  0.12732030841E+03  0.00000000000E+00 0. -1.
<mgrwt>
<rscale>  0 0.53405653E+03</rscale>
<asrwt>0</asrwt>
<pdfrwt beam="1">  1        2 0.19256319E+00 0.53405653E+03</pdfrwt>
<pdfrwt beam="2">  1       -2 0.36031876E-01 0.53405653E+03</pdfrwt>
<totfact> 0.13222330E+02</totfact>
</mgrwt>
</event>
<event>
12    1  0.1335216E-007  0.9204394E+03  0.7818608E-02  0.9400386E-01
         -2   -1    0    0    0  501 -0.00000000000E+00  0.00000000000E+00  0.47308857289E+03  0.47308857289E+03  0.00000000000E+00 0.  1.
          2   -1    0    0  501    0  0.00000000000E+00 -0.00000000000E+00 -0.20187976160E+04  0.20187976160E+04  0.00000000000E+00 0. -1.
         23    2    1    2    0    0  0.65119032063E+03 -0.55235748266E+03 -0.98634493712E+03  0.13078037711E+04  0.91251007195E+02 0.  0.
    5000000    2    1    2    0    0 -0.65119032063E+03  0.55235748266E+03 -0.55936410598E+03  0.11840824178E+04  0.60001278883E+03 0.  0.
         23    2    4    4    0    0 -0.35840824814E+02  0.29824584108E+03 -0.37291446719E+03  0.48684767518E+03  0.87865309100E+02 0.  0.
         23    2    4    4    0    0 -0.61534949582E+03  0.25411164158E+03 -0.18644963879E+03  0.69723474262E+03  0.90250153031E+02 0.  0.
          3    1    3    3  502    0  0.53608644124E+03 -0.42053088284E+03 -0.82267357372E+03  0.10681885156E+04  0.00000000000E+00 0. -1.
         -3    1    3    3    0  502  0.11510387939E+03 -0.13182659982E+03 -0.16367136340E+03  0.23961525550E+03  0.00000000000E+00 0.  1.
         13    1    5    5    0    0 -0.53531793116E+02  0.28650068928E+03 -0.34206081233E+03  0.44939280943E+03  0.00000000000E+00 0. -1.
        -13    1    5    5    0    0  0.17690968302E+02  0.11745151796E+02 -0.30853654863E+02  0.37454865753E+02  0.00000000000E+00 0.  1.
          4    1    6    6  503    0 -0.36122840510E+03  0.19667754829E+03 -0.11212892130E+03  0.42631081812E+03  0.00000000000E+00 0. -1.
         -4    1    6    6    0  503 -0.25412109072E+03  0.57434093289E+02 -0.74320717488E+02  0.27092392450E+03  0.00000000000E+00 0.  1.
<mgrwt>
<rscale>  0 0.92043940E+03</rscale>
<asrwt>0</asrwt>
<pdfrwt beam="1">  1        2 0.31058425E+00 0.92043940E+03</pdfrwt>
<pdfrwt beam="2">  1       -2 0.72782857E-01 0.92043940E+03</pdfrwt>
<totfact> 0.11265907E+01</totfact>
</mgrwt>
</event>
<event>
12    1  0.1335216E-007  0.7313786E+03  0.7818608E-02  0.9665026E-01
         -2   -1    0    0    0  501 -0.00000000000E+00  0.00000000000E+00  0.12719710465E+04  0.12719710465E+04  0.00000000000E+00 0.  1.
          2   -1    0    0  501    0  0.00000000000E+00 -0.00000000000E+00 -0.46042462839E+03  0.46042462839E+03  0.00000000000E+00 0. -1.
         23    2    1    2    0    0 -0.34230875153E+02 -0.62735335415E+03  0.18071746552E+03  0.65863298480E+03  0.79966383906E+02 0.  0.
    5000000    2    1    2    0    0  0.34230875153E+02  0.62735335415E+03  0.63082895262E+03  0.10737626901E+04  0.60023092511E+03 0.  0.
         23    2    4    4    0    0  0.12777842049E+03 -0.47953103402E+02  0.21314088862E+03  0.26909740243E+03  0.91419629859E+02 0.  0.
         23    2    4    4    0    0 -0.93547545333E+02  0.67530645755E+03  0.41768806400E+03  0.80466528769E+03  0.90735613528E+02 0.  0.
          2    1    3    3  502    0 -0.31103500828E+01 -0.48241885662E+03  0.11208791207E+03  0.49527904007E+03  0.00000000000E+00 0. -1.
         -2    1    3    3    0  502 -0.31120525070E+02 -0.14493449753E+03  0.68629553443E+02  0.16335394474E+03  0.00000000000E+00 0.  1.
         11    1    5    5    0    0  0.71666024094E+02 -0.58647600854E+02  0.73509934611E+02  0.11823396543E+03  0.00000000000E+00 0. -1.
        -11    1    5    5    0    0  0.56112396393E+02  0.10694497451E+02  0.13963095401E+03  0.15086343699E+03  0.00000000000E+00 0.  1.
          1    1    6    6  503    0 -0.34988549835E+02  0.16247816488E+03  0.60083187804E+02  0.17672957347E+03  0.00000000000E+00 0. -1.
         -1    1    6    6    0  503 -0.58558995499E+02  0.51282829267E+03  0.35760487619E+03  0.62793571422E+03  0.00000000000E+00 0.  1.
<mgrwt>
<rscale>  0 0.73137860E+03</rscale>
<asrwt>0</asrwt>
<pdfrwt beam="1">  1        2 0.70834559E-01 0.73137860E+03</pdfrwt>
<pdfrwt beam="2">  1       -2 0.19568785E+00 0.73137860E+03</pdfrwt>
<totfact> 0.98172225E+00</totfact>
</mgrwt>
</event>
<event>
12    1  0.1675028E-007  0.1215362E+04  0.7818608E-02  0.9099516E-01
          2   -1    0    0  501    0  0.00000000000E+00  0.00000000000E+00  0.16372443991E+04  0.16372443991E+04  0.00000000000E+00 0. -1.
         -2   -1    0    0    0  501 -0.00000000000E+00 -0.00000000000E+00 -0.99819471815E+03  0.99819471815E+03  0.00000000000E+00 0.  1.
         23    2    1    2    0    0 -0.48535969323E+02 -0.11804402716E+04  0.55329073728E+03  0.13076278202E+04  0.89246295517E+02 0.  0.
    5000000    2    1    2    0    0  0.48535969323E+02  0.11804402716E+04  0.85758943696E+02  0.13278112970E+04  0.59994438835E+03 0.  0.
         23    2    4    4    0    0  0.17712765408E+03  0.96499219002E+03  0.24708849716E+03  0.10155757875E+04  0.88075660674E+02 0.  0.
         23    2    4    4    0    0 -0.12859168476E+03  0.21544808153E+03 -0.16132955347E+03  0.31223550959E+03  0.92250156636E+02 0.  0.
          1    1    3    3  502    0 -0.60830637239E+01 -0.67253637722E+03  0.27200779783E+03  0.72548633649E+03  0.00000000000E+00 0. -1.
         -1    1    3    3    0  502 -0.42452905599E+02 -0.50790389433E+03  0.28128293944E+03  0.58214148374E+03  0.00000000000E+00 0.  1.
         11    1    5    5    0    0  0.46072377994E+02  0.12180128974E+03  0.13843688128E+02  0.13095749653E+03  0.00000000000E+00 0. -1.
        -11    1    5    5    0    0  0.13105527609E+03  0.84319090028E+03  0.23324480903E+03  0.88461829093E+03  0.00000000000E+00 0.  1.
          1    1    6    6  503    0 -0.51935142974E+02  0.16548770438E+03 -0.12496155883E+03  0.21377284804E+03  0.00000000000E+00 0. -1.
         -1    1    6    6    0  503 -0.76656541785E+02  0.49960377154E+02 -0.36367994638E+02  0.98462661542E+02  0.00000000000E+00 0.  1.
<mgrwt>
<rscale>  0 0.12153617E+04</rscale>
<asrwt>0</asrwt>
<pdfrwt beam="1">  1        2 0.25188375E+00 0.12153617E+04</pdfrwt>
<pdfrwt beam="2">  1       -2 0.15356842E+00 0.12153617E+04</pdfrwt>
<totfact> 0.29026144E+00</totfact>
</mgrwt>
</event>
<event>
12    1  0.1335216E-007  0.1039877E+04  0.7818608E-02  0.9265858E-01
          1   -1    0    0  501    0  0.00000000000E+00  0.00000000000E+00  0.10519571587E+04  0.10519571587E+04  0.00000000000E+00 0. -1.
         -1   -1    0    0    0  501 -0.00000000000E+00 -0.00000000000E+00 -0.10339893580E+04  0.10339893580E+04  0.00000000000E+00 0.  1.
         23    2    1    2    0    0  0.74881849543E+03 -0.59178396900E+03  0.76881568924E+01  0.95860805915E+03  0.89066819000E+02 0.  0.
    5000000    2    1    2    0    0 -0.74881849543E+03  0.59178396900E+03  0.10279643828E+02  0.11273384575E+04  0.59987408819E+03 0.  0.
         23    2    4    4    0    0 -0.23325985771E+03  0.54347660302E+03  0.31699203296E+02  0.60032954535E+03  0.98049703109E+02 0.  0.
         23    2    4    4    0    0 -0.51555863771E+03  0.48307365977E+02 -0.21419559468E+02  0.52700891217E+03  0.95630985841E+02 0.  0.
          3    1    3    3  502    0  0.40082900992E+03 -0.27782931825E+03 -0.28468702676E+02  0.48853197675E+03  0.00000000000E+00 0. -1.
         -3    1    3    3    0  502  0.34798948551E+03 -0.31395465075E+03  0.36156859569E+02  0.47007608240E+03  0.00000000000E+00 0.  1.
         13    1    5    5    0    0 -0.10934859456E+03  0.37273938444E+03  0.15810731662E+02  0.38876952437E+03  0.00000000000E+00 0.  1.
        -13    1    5    5    0    0 -0.12391126316E+03  0.17073721858E+03  0.15888471635E+02  0.21156002098E+03  0.00000000000E+00 0. -1.
          4    1    6    6  503    0 -0.40361677034E+03  0.70798235668E+02 -0.38399664168E+02  0.41157432097E+03  0.00000000000E+00 0. -1.
         -4    1    6    6    0  503 -0.11194186737E+03 -0.22490869691E+02  0.16980104700E+02  0.11543459120E+03  0.00000000000E+00 0.  1.
<mgrwt>
<rscale>  0 0.10398768E+04</rscale>
<asrwt>0</asrwt>
<pdfrwt beam="1">  1        1 0.16183956E+00 0.10398768E+04</pdfrwt>
<pdfrwt beam="2">  1       -1 0.15907529E+00 0.10398768E+04</pdfrwt>
<totfact> 0.40889349E+00</totfact>
</mgrwt>
</event>
<event>
12    1  0.1335216E-007  0.1065327E+04  0.7818608E-02  0.9239661E-01
          2   -1    0    0  501    0  0.00000000000E+00  0.00000000000E+00  0.14006507076E+04  0.14006507076E+04  0.00000000000E+00 0. -1.
         -2   -1    0    0    0  501 -0.00000000000E+00 -0.00000000000E+00 -0.85068119089E+03  0.85068119089E+03  0.00000000000E+00 0.  1.
         23    2    1    2    0    0 -0.89031559819E+03  0.44903078827E+03  0.10871691114E+03  0.10066577386E+04  0.85146478417E+02 0.  0.
    5000000    2    1    2    0    0  0.89031559819E+03 -0.44903078827E+03  0.44125260560E+03  0.12446741599E+04  0.60018279646E+03 0.  0.
         23    2    4    4    0    0  0.72029833041E+03 -0.57087145530E+03  0.29334545883E+03  0.96914954133E+03  0.92061783514E+02 0.  0.
         23    2    4    4    0    0  0.17001726778E+03  0.12184066702E+03  0.14790714676E+03  0.27552461856E+03  0.10142125954E+03 0.  0.
          1    1    3    3  502    0 -0.20845342959E+03  0.11562405459E+03  0.61509468630E+02  0.24618117117E+03  0.00000000000E+00 0. -1.
         -1    1    3    3    0  502 -0.68186216860E+03  0.33340673368E+03  0.47207442508E+02  0.76047656746E+03  0.00000000000E+00 0.  1.
         13    1    5    5    0    0  0.24656265100E+03 -0.19784353450E+03  0.14721559600E+03  0.34872286521E+03  0.00000000000E+00 0. -1.
        -13    1    5    5    0    0  0.47373567940E+03 -0.37302792079E+03  0.14612986284E+03  0.62042667612E+03  0.00000000000E+00 0.  1.
          3    1    6    6  503    0  0.52932593484E+02  0.65569793201E+02  0.11309167850E+03  0.14103540328E+03  0.00000000000E+00 0. -1.
         -3    1    6    6    0  503  0.11708467430E+03  0.56270873823E+02  0.34815468263E+02  0.13448921528E+03  0.00000000000E+00 0.  1.
<mgrwt>
<rscale>  0 0.10653271E+04</rscale>
<asrwt>0</asrwt>
<pdfrwt beam="1">  1        2 0.21548472E+00 0.10653271E+04</pdfrwt>
<pdfrwt beam="2">  1       -2 0.13087403E+00 0.10653271E+04</pdfrwt>
<totfact> 0.60881772E+00</totfact>
</mgrwt>
</event>
<event>
12    1  0.1335216E-007  0.7049527E+03  0.7818608E-02  0.9708800E-01
          1   -1    0    0  501    0  0.00000000000E+00  0.00000000000E+00  0.51094516650E+03  0.51094516650E+03  0.00000000000E+00 0. -1.
         -1   -1    0    0    0  501 -0.00000000000E+00 -0.00000000000E+00 -0.10231182471E+04  0.10231182471E+04  0.00000000000E+00 0.  1.
         23    2    1    2    0    0 -0.12080104733E+03 -0.58206120146E+03 -0.22005500899E+03  0.64044348724E+03  0.91408523053E+02 0.  0.
    5000000    2    1    2    0    0  0.12080104733E+03  0.58206120146E+03 -0.29211807163E+03  0.89361992640E+03  0.59986287584E+03 0.  0.
         23    2    4    4    0    0 -0.21015874691E+03  0.18264853092E+03 -0.36772173387E+01  0.29306802523E+03  0.91368269830E+02 0.  0.
         23    2    4    4    0    0  0.33095979424E+03  0.39941267053E+03 -0.28844085430E+03  0.60055190117E+03  0.91649292362E+02 0.  0.
          2    1    3    3  502    0 -0.10536695323E+03 -0.41425982613E+03 -0.11799634551E+03  0.44343718375E+03  0.00000000000E+00 0. -1.
         -2    1    3    3    0  502 -0.15434094101E+02 -0.16780137532E+03 -0.10205866349E+03  0.19700630349E+03  0.00000000000E+00 0.  1.
         11    1    5    5    0    0 -0.91015486840E+02  0.13325799889E+03  0.17670021160E+02  0.16233835887E+03  0.00000000000E+00 0.  1.
        -11    1    5    5    0    0 -0.11914326007E+03  0.49390532037E+02 -0.21347238499E+02  0.13072966636E+03  0.00000000000E+00 0. -1.
          3    1    6    6  503    0  0.55452682085E+02  0.11473869784E+03 -0.99296153785E+02  0.16155399991E+03  0.00000000000E+00 0. -1.
         -3    1    6    6    0  503  0.27550711216E+03  0.28467397269E+03 -0.18914470051E+03  0.43899790126E+03  0.00000000000E+00 0.  1.
<mgrwt>
<rscale>  0 0.70495268E+03</rscale>
<asrwt>0</asrwt>
<pdfrwt beam="1">  1        1 0.78606949E-01 0.70495268E+03</pdfrwt>
<pdfrwt beam="2">  1       -1 0.15740281E+00 0.70495268E+03</pdfrwt>
<totfact> 0.13603651E+01</totfact>
</mgrwt>
</event>
<event>
12    1  0.1673558E-007  0.1158973E+04  0.7818608E-02  0.9149545E-01
         -2   -1    0    0    0  501 -0.00000000000E+00  0.00000000000E+00  0.77297431813E+03  0.77297431813E+03  0.00000000000E+00 0.  1.
          2   -1    0    0  501    0  0.00000000000E+00 -0.00000000000E+00 -0.30682918838E+04  0.30682918838E+04  0.00000000000E+00 0. -1.
         23    2    1    2    0    0 -0.10964318828E+04 -0.34580462798E+03 -0.22677914535E+04  0.25441901685E+04  0.91004522167E+02 0.  0.
    5000000    2    1    2    0    0  0.10964318828E+04  0.34580462798E+03 -0.27526112164E+02  0.12970760334E+04  0.59992069074E+03 0.  0.
         23    2    4    4    0    0  0.85088250116E+03  0.28279513730E+03 -0.26312095650E+03  0.93915185675E+03  0.93805393348E+02 0.  0.
         23    2    4    4    0    0  0.24554938160E+03  0.63009490671E+02  0.23559484434E+03  0.35792417660E+03  0.91324097574E+02 0.  0.
          2    1    3    3  502    0 -0.75477188741E+03 -0.25212441978E+03 -0.16546355365E+04  0.18360463185E+04  0.00000000000E+00 0. -1.
         -2    1    3    3    0  502 -0.34165999535E+03 -0.93680208197E+02 -0.61315591693E+03  0.70814385000E+03  0.00000000000E+00 0.  1.
         11    1    5    5    0    0  0.46440311724E+03  0.12347205648E+03 -0.17865410489E+03  0.51267230589E+03  0.00000000000E+00 0. -1.
        -11    1    5    5    0    0  0.38647938393E+03  0.15932308083E+03 -0.84466851612E+02  0.42647955086E+03  0.00000000000E+00 0.  1.
          3    1    6    6  503    0  0.10713088426E+03 -0.18481827600E+02  0.10021932774E+03  0.14785979158E+03  0.00000000000E+00 0. -1.
         -3    1    6    6    0  503  0.13841849734E+03  0.81491318271E+02  0.13537551660E+03  0.21006438502E+03  0.00000000000E+00 0.  1.
<mgrwt>
<rscale>  0 0.11589728E+04</rscale>
<asrwt>0</asrwt>
<pdfrwt beam="1">  1        2 0.47204491E+00 0.11589728E+04</pdfrwt>
<pdfrwt beam="2">  1       -2 0.11891913E+00 0.11589728E+04</pdfrwt>
<totfact> 0.85191427E-01</totfact>
</mgrwt>
</event>
<event>
12    1  0.1335216E-007  0.8095790E+03  0.7818608E-02  0.9546254E-01
         -1   -1    0    0    0  501 -0.00000000000E+00  0.00000000000E+00  0.39897375013E+03  0.39897375013E+03  0.00000000000E+00 0.  1.
          1   -1    0    0  501    0  0.00000000000E+00 -0.00000000000E+00 -0.31829330965E+04  0.31829330965E+04  0.00000000000E+00 0. -1.
         23    2    1    2    0    0 -0.31935189570E+03  0.71065229662E+03 -0.18925424637E+03  0.80711844373E+03  0.92793816926E+02 0.  0.
    5000000    2    1    2    0    0  0.31935189570E+03 -0.71065229662E+03 -0.25947051000E+04  0.27747884029E+04  0.59995316895E+03 0.  0.
         23    2    4    4    0    0  0.49946055046E+02 -0.43192580487E+03 -0.20556084156E+04  0.21031190933E+04  0.92355036252E+02 0.  0.
         23    2    4    4    0    0  0.26940584066E+03 -0.27872649176E+03 -0.53909668436E+03  0.67166930963E+03  0.10122481031E+03 0.  0.
          3    1    3    3  502    0 -0.19211472317E+03  0.52492481060E+03 -0.14802212812E+03  0.57824274665E+03  0.00000000000E+00 0. -1.
         -3    1    3    3    0  502 -0.12723717254E+03  0.18572748602E+03 -0.41232118251E+02  0.22887569708E+03  0.00000000000E+00 0.  1.
         13    1    5    5    0    0 -0.18614988448E+02 -0.19429205651E+03 -0.80892300667E+03  0.83213721929E+03  0.00000000000E+00 0. -1.
        -13    1    5    5    0    0  0.68561043495E+02 -0.23763374836E+03 -0.12466854090E+04  0.12709818740E+04  0.00000000000E+00 0.  1.
          1    1    6    6  503    0  0.21140914663E+03 -0.25126927356E+03 -0.39320259416E+03  0.51228737557E+03  0.00000000000E+00 0. -1.
         -1    1    6    6    0  503  0.57996694028E+02 -0.27457218198E+02 -0.14589409020E+03  0.15938193406E+03  0.00000000000E+00 0.  1.
<mgrwt>
<rscale>  0 0.80957905E+03</rscale>
<asrwt>0</asrwt>
<pdfrwt beam="1">  1        1 0.48968202E+00 0.80957905E+03</pdfrwt>
<pdfrwt beam="2">  1       -1 0.61380576E-01 0.80957905E+03</pdfrwt>
<totfact> 0.12590184E+00</totfact>
</mgrwt>
</event>
<event>
12    1  0.1335216E-007  0.9866044E+03  0.7818608E-02  0.9323360E-01
         -2   -1    0    0    0  501 -0.00000000000E+00  0.00000000000E+00  0.63953254396E+03  0.63953254396E+03  0.00000000000E+00 0.  1.
          2   -1    0    0  501    0  0.00000000000E+00 -0.00000000000E+00 -0.26347127727E+04  0.26347127727E+04  0.00000000000E+00 0. -1.
         23    2    1    2    0    0  0.94494542619E+03 -0.26044773570E+03 -0.18762962493E+04  0.21188770976E+04  0.91638737517E+02 0.  0.
    5000000    2    1    2    0    0 -0.94494542619E+03  0.26044773570E+03 -0.11888397947E+03  0.11553682191E+04  0.59998953286E+03 0.  0.
         23    2    4    4    0    0 -0.50622672358E+03  0.16998085405E+03 -0.34943088656E+03  0.64453357582E+03  0.90347105450E+02 0.  0.
         23    2    4    4    0    0 -0.43871870261E+03  0.90466881646E+02  0.23054690709E+03  0.51083464324E+03  0.84509169194E+02 0.  0.
          4    1    3    3  502    0  0.64168990374E+03 -0.13428745504E+03 -0.12787242972E+04  0.14369881284E+04  0.00000000000E+00 0. -1.
         -4    1    3    3    0  502  0.30325552245E+03 -0.12616028066E+03 -0.59757195215E+03  0.68188896919E+03  0.00000000000E+00 0.  1.
         11    1    5    5    0    0 -0.69404002938E+02  0.52881427816E+02 -0.36522524531E+02  0.94589935140E+02  0.00000000000E+00 0.  1.
        -11    1    5    5    0    0 -0.43682272065E+03  0.11709942624E+03 -0.31290836203E+03  0.54994364068E+03  0.00000000000E+00 0. -1.
          2    1    6    6  503    0 -0.11679323633E+03  0.65177333098E+01  0.98403539549E+02  0.15286071273E+03  0.00000000000E+00 0. -1.
         -2    1    6    6    0  503 -0.32192546628E+03  0.83949148336E+02  0.13214336754E+03  0.35797393052E+03  0.00000000000E+00 0.  1.
<mgrwt>
<rscale>  0 0.98660436E+03</rscale>
<asrwt>0</asrwt>
<pdfrwt beam="1">  1        2 0.40534042E+00 0.98660436E+03</pdfrwt>
<pdfrwt beam="2">  1       -2 0.98389624E-01 0.98660436E+03</pdfrwt>
<totfact> 0.25253359E+00</totfact>
</mgrwt>
</event>
<event>
12    1  0.1335216E-007  0.9374871E+03  0.7818608E-02  0.9379897E-01
          1   -1    0    0  501    0  0.00000000000E+00  0.00000000000E+00  0.92118814604E+03  0.92118814604E+03  0.00000000000E+00 0. -1.
         -1   -1    0    0    0  501 -0.00000000000E+00 -0.00000000000E+00 -0.10053293700E+04  0.10053293700E+04  0.00000000000E+00 0.  1.
         23    2    1    2    0    0  0.86615412900E+03  0.95765632368E+01 -0.34805459583E+02  0.87165251110E+03  0.90840488465E+02 0.  0.
    5000000    2    1    2    0    0 -0.86615412900E+03 -0.95765632368E+01 -0.49335764334E+02  0.10548650049E+04  0.59999289592E+03 0.  0.
         23    2    4    4    0    0 -0.12632703001E+03  0.19990196680E+03 -0.11269481722E+03  0.27768363043E+03  0.92134477485E+02 0.  0.
         23    2    4    4    0    0 -0.73982709899E+03 -0.20947853003E+03  0.63359052886E+02  0.77718137446E+03  0.93654301931E+02 0.  0.
          2    1    3    3  502    0  0.67614803274E+03 -0.78193629430E+01 -0.61540090484E+02  0.67898784036E+03  0.00000000000E+00 0. -1.
         -2    1    3    3    0  502  0.19000609626E+03  0.17395926180E+02  0.26734630902E+02  0.19266467074E+03  0.00000000000E+00 0.  1.
         11    1    5    5    0    0 -0.87345658532E+01  0.37561429471E+02 -0.58437421537E+02  0.70014897418E+02  0.00000000000E+00 0. -1.
        -11    1    5    5    0    0 -0.11759246415E+03  0.16234053733E+03 -0.54257395683E+02  0.20766873301E+03  0.00000000000E+00 0.  1.
          4    1    6    6  503    0 -0.28251513110E+03 -0.75603330765E+02  0.69647687082E+02  0.30063509981E+03  0.00000000000E+00 0. -1.
         -4    1    6    6    0  503 -0.45731196789E+03 -0.13387519927E+03 -0.62886341961E+01  0.47654627464E+03  0.00000000000E+00 0.  1.
<mgrwt>
<rscale>  0 0.93748713E+03</rscale>
<asrwt>0</asrwt>
<pdfrwt beam="1">  1        1 0.14172125E+00 0.93748713E+03</pdfrwt>
<pdfrwt beam="2">  1       -1 0.15466606E+00 0.93748713E+03</pdfrwt>
<totfact> 0.56676894E+00</totfact>
</mgrwt>
</event>
<event>
12    1  0.1335216E-007  0.5137174E+03  0.7818608E-02  0.1010259E+00
          1   -1    0    0  501    0  0.00000000000E+00  0.00000000000E+00  0.61258281779E+03  0.61258281779E+03  0.00000000000E+00 0. -1.
         -1   -1    0    0    0  501 -0.00000000000E+00 -0.00000000000E+00 -0.55680450178E+03  0.55680450178E+03  0.00000000000E+00 0.  1.
         23    2    1    2    0    0  0.32361066947E+03 -0.21010875188E+03 -0.15436326846E+03  0.42570791911E+03  0.92356162385E+02 0.  0.
    5000000    2    1    2    0    0 -0.32361066947E+03  0.21010875188E+03  0.21014158447E+03  0.74367940047E+03  0.60002500960E+03 0.  0.
         23    2    4    4    0    0 -0.27016723603E+03 -0.11019400328E+03 -0.60938912292E+02  0.31115243967E+03  0.89270576894E+02 0.  0.
         23    2    4    4    0    0 -0.53443433442E+02  0.32030275516E+03  0.27108049676E+03  0.43252696080E+03  0.90248991986E+02 0.  0.
          4    1    3    3  502    0  0.94091774893E+02 -0.11330279908E+03 -0.66138096340E+02  0.16144669142E+03  0.00000000000E+00 0. -1.
         -4    1    3    3    0  502  0.22951889458E+03 -0.96805952797E+02 -0.88225172117E+02  0.26426122769E+03  0.00000000000E+00 0.  1.
         13    1    5    5    0    0 -0.15160256074E+03 -0.15882571382E+02 -0.44314722532E+02  0.15874314829E+03  0.00000000000E+00 0. -1.
        -13    1    5    5    0    0 -0.11856467529E+03 -0.94311431897E+02 -0.16624189760E+02  0.15240929137E+03  0.00000000000E+00 0.  1.
          1    1    6    6  503    0 -0.53255765094E+02  0.20443553613E+03  0.22270898754E+03  0.30696800823E+03  0.00000000000E+00 0.  1.
         -1    1    6    6    0  503 -0.18766834805E+00  0.11586721903E+03  0.48371509219E+02  0.12555895256E+03  0.00000000000E+00 0. -1.
<mgrwt>
<rscale>  0 0.51371739E+03</rscale>
<asrwt>0</asrwt>
<pdfrwt beam="1">  1        1 0.94243511E-01 0.51371739E+03</pdfrwt>
<pdfrwt beam="2">  1       -1 0.85662231E-01 0.51371739E+03</pdfrwt>
<totfact> 0.46913887E+01</totfact>
</mgrwt>
</event>
<event>
12    1  0.1335216E-007  0.1135989E+04  0.7818608E-02  0.9170807E-01
          2   -1    0    0  501    0  0.00000000000E+00  0.00000000000E+00  0.15408049554E+04  0.15408049554E+04  0.00000000000E+00 0. -1.
         -2   -1    0    0    0  501 -0.00000000000E+00 -0.00000000000E+00 -0.91742361747E+03  0.91742361747E+03  0.00000000000E+00 0.  1.
         23    2    1    2    0    0  0.65770822964E+03 -0.89553231087E+03  0.25931444652E+03  0.11440157397E+04  0.83485300862E+02 0.  0.
    5000000    2    1    2    0    0 -0.65770822964E+03  0.89553231087E+03  0.36406689146E+03  0.13142128332E+04  0.60004369364E+03 0.  0.
         23    2    4    4    0    0 -0.63636931825E+03  0.68447226480E+03  0.48129503141E+03  0.10550883401E+04  0.89990597292E+02 0.  0.
         23    2    4    4    0    0 -0.21338911383E+02  0.21106004606E+03 -0.11722813995E+03  0.25912449310E+03  0.91659009058E+02 0.  0.
          3    1    3    3  502    0  0.50254586602E+03 -0.62277220883E+03  0.19564370395E+03  0.82381674566E+03  0.00000000000E+00 0. -1.
         -3    1    3    3    0  502  0.15516236362E+03 -0.27276010204E+03  0.63670742571E+02  0.32019899408E+03  0.00000000000E+00 0.  1.
         11    1    5    5    0    0 -0.32406211914E+03  0.31050877684E+03  0.18954540780E+03  0.48719546301E+03  0.00000000000E+00 0. -1.
        -11    1    5    5    0    0 -0.31230719911E+03  0.37396348796E+03  0.29174962360E+03  0.56789287706E+03  0.00000000000E+00 0.  1.
          2    1    6    6  503    0 -0.44815891133E+02  0.14615192572E+03 -0.11275922456E+03  0.18995655349E+03  0.00000000000E+00 0. -1.
         -2    1    6    6    0  503  0.23476979751E+02  0.64908120344E+02 -0.44689153946E+01  0.69167939608E+02  0.00000000000E+00 0.  1.
<mgrwt>
<rscale>  0 0.11359891E+04</rscale>
<asrwt>0</asrwt>
<pdfrwt beam="1">  1        2 0.23704692E+00 0.11359891E+04</pdfrwt>
<pdfrwt beam="2">  1       -2 0.14114210E+00 0.11359891E+04</pdfrwt>
<totfact> 0.41438227E+00</totfact>
</mgrwt>
</event>
<event>
12    1  0.1335216E-007  0.1133643E+04  0.7818608E-02  0.9173007E-01
          2   -1    0    0  501    0  0.00000000000E+00  0.00000000000E+00  0.98864811837E+03  0.98864811837E+03  0.00000000000E+00 0. -1.
         -2   -1    0    0    0  501 -0.00000000000E+00 -0.00000000000E+00 -0.14527137225E+04  0.14527137225E+04  0.00000000000E+00 0.  1.
         23    2    1    2    0    0 -0.10369429778E+04 -0.42145829940E+03 -0.28743121313E+03  0.11591626046E+04  0.90351560287E+02 0.  0.
    5000000    2    1    2    0    0  0.10369429778E+04  0.42145829940E+03 -0.17663439102E+03  0.12821992363E+04  0.59996444568E+03 0.  0.
         23    2    4    4    0    0  0.93527471937E+03  0.29649929105E+03  0.54765027522E+02  0.98676170170E+03  0.89715201697E+02 0.  0.
         23    2    4    4    0    0  0.10166825839E+03  0.12495900835E+03 -0.23139941854E+03  0.29543753455E+03  0.88240905406E+02 0.  0.
          1    1    3    3  502    0 -0.74443560522E+03 -0.27432028416E+03 -0.17053005342E+03  0.81149028814E+03  0.00000000000E+00 0. -1.
         -1    1    3    3    0  502 -0.29250737254E+03 -0.14713801524E+03 -0.11690115970E+03  0.34767231650E+03  0.00000000000E+00 0.  1.
         13    1    5    5    0    0  0.68105447611E+03  0.25717555966E+03  0.39275105403E+02  0.72905212558E+03  0.00000000000E+00 0. -1.
        -13    1    5    5    0    0  0.25422024326E+03  0.39323731390E+02  0.15489922119E+02  0.25770957612E+03  0.00000000000E+00 0.  1.
          1    1    6    6  503    0  0.39241848425E+02  0.53758759020E+02 -0.30240091349E+02  0.73105334716E+02  0.00000000000E+00 0. -1.
         -1    1    6    6    0  503  0.62426409967E+02  0.71200249332E+02 -0.20115932719E+03  0.22233219983E+03  0.00000000000E+00 0.  1.
<mgrwt>
<rscale>  0 0.11336431E+04</rscale>
<asrwt>0</asrwt>
<pdfrwt beam="1">  1        2 0.15209971E+00 0.11336431E+04</pdfrwt>
<pdfrwt beam="2">  1       -2 0.22349442E+00 0.11336431E+04</pdfrwt>
<totfact> 0.23570905E+00</totfact>
</mgrwt>
</event>
<event>
12    1  0.1335216E-007  0.1031966E+04  0.7818608E-02  0.9274163E-01
         -2   -1    0    0    0  501 -0.00000000000E+00  0.00000000000E+00  0.33309444508E+04  0.33309444508E+04  0.00000000000E+00 0.  1.
          2   -1    0    0  501    0  0.00000000000E+00 -0.00000000000E+00 -0.60259034490E+03  0.60259034490E+03  0.00000000000E+00 0. -1.
         23    2    1    2    0    0  0.55405159361E+03  0.78197064177E+03  0.26274550205E+04  0.27983442902E+04  0.93592888626E+02 0.  0.
    5000000    2    1    2    0    0 -0.55405159361E+03 -0.78197064177E+03  0.10089908535E+03  0.11351905055E+04  0.60002133735E+03 0.  0.
         23    2    4    4    0    0 -0.67733331922E+02  0.67099504897E+02 -0.51053634815E+02  0.14076957692E+03  0.90108003796E+02 0.  0.
         23    2    4    4    0    0 -0.48631826169E+03 -0.84907014666E+03  0.15195272017E+03  0.99442092853E+03  0.91420940319E+02 0.  0.
          1    1    3    3  502    0  0.30986590962E+03  0.49907959071E+03  0.15222481852E+04  0.16316668953E+04  0.00000000000E+00 0. -1.
         -1    1    3    3    0  502  0.24418568399E+03  0.28289105105E+03  0.11052068353E+04  0.11666773949E+04  0.00000000000E+00 0.  1.
         13    1    5    5    0    0 -0.84655724729E+02  0.49714819664E+02 -0.18068291069E+02  0.99822934067E+02  0.00000000000E+00 0. -1.
        -13    1    5    5    0    0  0.16922392807E+02  0.17384685233E+02 -0.32985343747E+02  0.40946642854E+02  0.00000000000E+00 0.  1.
          4    1    6    6  503    0 -0.15356463843E+03 -0.32672681209E+03  0.22558467735E+02  0.36172004697E+03  0.00000000000E+00 0.  1.
         -4    1    6    6    0  503 -0.33275362325E+03 -0.52234333457E+03  0.12939425243E+03  0.63270088156E+03  0.00000000000E+00 0. -1.
<mgrwt>
<rscale>  0 0.10319661E+04</rscale>
<asrwt>0</asrwt>
<pdfrwt beam="1">  1        2 0.92706209E-01 0.10319661E+04</pdfrwt>
<pdfrwt beam="2">  1       -2 0.51245298E+00 0.10319661E+04</pdfrwt>
<totfact> 0.68530214E-02</totfact>
</mgrwt>
</event>
<event>
12    1  0.1335216E-007  0.4604652E+03  0.7818608E-02  0.1024646E+00
          2   -1    0    0  501    0  0.00000000000E+00  0.00000000000E+00  0.23242861104E+04  0.23242861104E+04  0.00000000000E+00 0.  1.
         -2   -1    0    0    0  501 -0.00000000000E+00 -0.00000000000E+00 -0.10228321724E+03  0.10228321724E+03  0.00000000000E+00 0. -1.
         23    2    1    2    0    0 -0.12264001663E+03 -0.24573994228E+03  0.44389986686E+03  0.52995854118E+03  0.91543818258E+02 0.  0.
    5000000    2    1    2    0    0  0.12264001663E+03  0.24573994228E+03  0.17781030262E+04  0.18966107864E+04  0.60004450691E+03 0.  0.
         23    2    4    4    0    0 -0.21093511261E+03 -0.78712455927E+00  0.71129154675E+03  0.74760195027E+03  0.92080238244E+02 0.  0.
         23    2    4    4    0    0  0.33357512924E+03  0.24652706684E+03  0.10668114795E+04  0.11490088361E+04  0.10043212242E+03 0.  0.
          3    1    3    3  502    0  0.72684235330E+01 -0.70037583830E+02  0.94326038836E+02  0.11770936552E+03  0.00000000000E+00 0. -1.
         -3    1    3    3    0  502 -0.12990844017E+03 -0.17570235845E+03  0.34957382802E+03  0.41224917566E+03  0.00000000000E+00 0.  1.
         11    1    5    5    0    0 -0.22089440769E+02  0.16129046834E+02  0.30805555761E+02  0.41195531444E+02  0.00000000000E+00 0.  1.
        -11    1    5    5    0    0 -0.18884567184E+03 -0.16916171393E+02  0.68048599099E+03  0.70640641883E+03  0.00000000000E+00 0. -1.
          4    1    6    6  503    0  0.15951230144E+03  0.12710321379E+03  0.65843336724E+03  0.68929957229E+03  0.00000000000E+00 0. -1.
         -4    1    6    6    0  503  0.17406282780E+03  0.11942385305E+03  0.40837811226E+03  0.45970926386E+03  0.00000000000E+00 0.  1.
<mgrwt>
<rscale>  0 0.46046518E+03</rscale>
<asrwt>0</asrwt>
<pdfrwt beam="1">  1        2 0.35758244E+00 0.46046518E+03</pdfrwt>
<pdfrwt beam="2">  1       -2 0.15735881E-01 0.46046518E+03</pdfrwt>
<totfact> 0.15220097E+02</totfact>
</mgrwt>
</event>
<event>
12    1  0.1335216E-007  0.9815509E+03  0.7818608E-02  0.9329014E-01
         -1   -1    0    0    0  501 -0.00000000000E+00  0.00000000000E+00  0.66669156695E+03  0.66669156695E+03  0.00000000000E+00 0.  1.
          1   -1    0    0  501    0  0.00000000000E+00 -0.00000000000E+00 -0.16266970591E+04  0.16266970591E+04  0.00000000000E+00 0. -1.
         23    2    1    2    0    0  0.90409565559E+03  0.87993650573E+02 -0.75764251820E+03  0.11863267187E+04  0.90648006728E+02 0.  0.
    5000000    2    1    2    0    0 -0.90409565559E+03 -0.87993650573E+02 -0.20236297396E+03  0.11070619073E+04  0.59958607095E+03 0.  0.
         23    2    4    4    0    0 -0.50191962704E+03 -0.30219278764E+03  0.17993751143E+02  0.59233225200E+03  0.85381079698E+02 0.  0.
         23    2    4    4    0    0 -0.40217602855E+03  0.21419913706E+03 -0.22035672510E+03  0.51472965535E+03  0.93609313337E+02 0.  0.
          3    1    3    3  502    0  0.28801347712E+03  0.47326404628E+02 -0.19522348428E+03  0.35114635181E+03  0.00000000000E+00 0. -1.
         -3    1    3    3    0  502  0.61608217847E+03  0.40667245946E+02 -0.56241903391E+03  0.83518036688E+03  0.00000000000E+00 0.  1.
         11    1    5    5    0    0 -0.42007366906E+03 -0.21632108940E+03  0.10627629697E+01  0.47250167261E+03  0.00000000000E+00 0.  1.
        -11    1    5    5    0    0 -0.81845957982E+02 -0.85871698235E+02  0.16930988174E+02  0.11983057939E+03  0.00000000000E+00 0. -1.
          1    1    6    6  503    0 -0.53865902256E+02  0.63202428611E+02 -0.19768665800E+02  0.85363238901E+02  0.00000000000E+00 0. -1.
         -1    1    6    6    0  503 -0.34831012629E+03  0.15099670845E+03 -0.20058805930E+03  0.42936641645E+03  0.00000000000E+00 0.  1.
<mgrwt>
<rscale>  0 0.98155088E+03</rscale>
<asrwt>0</asrwt>
<pdfrwt beam="1">  1        1 0.25026108E+00 0.98155088E+03</pdfrwt>
<pdfrwt beam="2">  1       -1 0.10256794E+00 0.98155088E+03</pdfrwt>
<totfact> 0.48532112E+00</totfact>
</mgrwt>
</event>
<event>
12    1  0.1335216E-007  0.1167620E+04  0.7818608E-02  0.9141680E-01
         -1   -1    0    0    0  501 -0.00000000000E+00  0.00000000000E+00  0.23449707677E+04  0.23449707677E+04  0.00000000000E+00 0.  1.
          1   -1    0    0  501    0  0.00000000000E+00 -0.00000000000E+00 -0.73976598697E+03  0.73976598697E+03  0.00000000000E+00 0. -1.
         23    2    1    2    0    0  0.78223360977E+03 -0.77677342302E+03  0.14443801019E+04  0.18193694642E+04  0.92763126033E+02 0.  0.
    5000000    2    1    2    0    0 -0.78223360977E+03  0.77677342302E+03  0.16082467881E+03  0.12653672904E+04  0.60001952589E+03 0.  0.
         23    2    4    4    0    0 -0.80871172746E+03  0.50041650398E+03  0.65390680271E+02  0.95774305295E+03  0.92544469419E+02 0.  0.
         23    2    4    4    0    0  0.26478117689E+02  0.27635691904E+03  0.95433998543E+02  0.30762423750E+03  0.91928156729E+02 0.  0.
          4    1    3    3  502    0  0.28470668967E+03 -0.31571665327E+03  0.62082097513E+03  0.75243178259E+03  0.00000000000E+00 0. -1.
         -4    1    3    3    0  502  0.49752692010E+03 -0.46105676976E+03  0.82355912680E+03  0.10669376816E+04  0.00000000000E+00 0.  1.
         13    1    5    5    0    0 -0.62105242745E+03  0.39507410684E+03  0.12660472510E+02  0.73617250363E+03  0.00000000000E+00 0. -1.
        -13    1    5    5    0    0 -0.18765930001E+03  0.10534239715E+03  0.52730207760E+02  0.22157054932E+03  0.00000000000E+00 0.  1.
          3    1    6    6  503    0  0.29117257097E+02  0.99944355832E+02 -0.57109532980E+01  0.10425595384E+03  0.00000000000E+00 0. -1.
         -3    1    6    6    0  503 -0.26391394074E+01  0.17641256321E+03  0.10114495184E+03  0.20336828366E+03  0.00000000000E+00 0.  1.
<mgrwt>
<rscale>  0 0.11676203E+04</rscale>
<asrwt>0</asrwt>
<pdfrwt beam="1">  1        1 0.11381015E+00 0.11676203E+04</pdfrwt>
<pdfrwt beam="2">  1       -1 0.36076473E+00 0.11676203E+04</pdfrwt>
<totfact> 0.32854791E-01</totfact>
</mgrwt>
</event>
<event>
12    1  0.1335216E-007  0.8103058E+03  0.7818608E-02  0.9545219E-01
          2   -1    0    0  501    0  0.00000000000E+00  0.00000000000E+00  0.29757069693E+03  0.29757069693E+03  0.00000000000E+00 0. -1.
         -2   -1    0    0    0  501 -0.00000000000E+00 -0.00000000000E+00 -0.22787060076E+04  0.22787060076E+04  0.00000000000E+00 0.  1.
         23    2    1    2    0    0  0.65744176972E+03  0.24820618625E+03 -0.10259610296E+04  0.12473177696E+04  0.96796656415E+02 0.  0.
    5000000    2    1    2    0    0 -0.65744176972E+03 -0.24820618625E+03 -0.95517428106E+03  0.13289589349E+04  0.59994829106E+03 0.  0.
         23    2    4    4    0    0 -0.62134870536E+01 -0.24885794315E+03 -0.24515604422E+03  0.36112084773E+03  0.91312087680E+02 0.  0.
         23    2    4    4    0    0 -0.65122828267E+03  0.65175690093E+00 -0.71001823684E+03  0.96783808716E+03  0.92119299678E+02 0.  0.
          3    1    3    3  502    0  0.24501901029E+03  0.11760648384E+03 -0.46934957620E+03  0.54236023557E+03  0.00000000000E+00 0. -1.
         -3    1    3    3    0  502  0.41242275943E+03  0.13059970241E+03 -0.55661145339E+03  0.70495753405E+03  0.00000000000E+00 0.  1.
         11    1    5    5    0    0  0.31885485181E+02 -0.10867883243E+03 -0.68320545416E+02  0.13227044156E+03  0.00000000000E+00 0. -1.
        -11    1    5    5    0    0 -0.38098972235E+02 -0.14017911072E+03 -0.17683549881E+03  0.22885040617E+03  0.00000000000E+00 0.  1.
          4    1    6    6  503    0 -0.29669847712E+03  0.46131081183E+02 -0.32722842246E+03  0.44411316513E+03  0.00000000000E+00 0. -1.
         -4    1    6    6    0  503 -0.35452980555E+03 -0.45479324282E+02 -0.38278981437E+03  0.52372492202E+03  0.00000000000E+00 0.  1.
<mgrwt>
<rscale>  0 0.81030580E+03</rscale>
<asrwt>0</asrwt>
<pdfrwt beam="1">  1        2 0.45780108E-01 0.81030580E+03</pdfrwt>
<pdfrwt beam="2">  1       -2 0.35057015E+00 0.81030580E+03</pdfrwt>
<totfact> 0.17824009E+00</totfact>
</mgrwt>
</event>
<event>
12    1  0.1335216E-007  0.8102801E+03  0.7818608E-02  0.9545255E-01
          2   -1    0    0  501    0  0.00000000000E+00  0.00000000000E+00  0.25735424505E+04  0.25735424505E+04  0.00000000000E+00 0. -1.
         -2   -1    0    0    0  501 -0.00000000000E+00 -0.00000000000E+00 -0.40677892616E+03  0.40677892616E+03  0.00000000000E+00 0.  1.
         23    2    1    2    0    0 -0.28847026516E+03  0.64627358671E+03  0.18769541073E+04  0.20080562399E+04  0.91915716564E+02 0.  0.
    5000000    2    1    2    0    0  0.28847026516E+03 -0.64627358671E+03  0.28980941704E+03  0.97226513676E+03  0.60035435801E+03 0.  0.
         23    2    4    4    0    0  0.18068834006E+03  0.58452025332E+02  0.82549344785E+02  0.22386782705E+03  0.85073463338E+02 0.  0.
         23    2    4    4    0    0  0.10778192510E+03 -0.70472561204E+03  0.20726007226E+03  0.74839730970E+03  0.94269103995E+02 0.  0.
          3    1    3    3  502    0 -0.88448193170E+02  0.11048089265E+03  0.39348860227E+03  0.41816550627E+03  0.00000000000E+00 0. -1.
         -3    1    3    3    0  502 -0.20002207199E+03  0.53579269407E+03  0.14834655050E+04  0.15898907336E+04  0.00000000000E+00 0.  1.
         13    1    5    5    0    0  0.91164823440E+02  0.13490883262E+02 -0.28888726799E+01  0.92202898813E+02  0.00000000000E+00 0. -1.
        -13    1    5    5    0    0  0.89523516624E+02  0.44961142069E+02  0.85438217465E+02  0.13166492824E+03  0.00000000000E+00 0.  1.
          4    1    6    6  503    0  0.10865399114E+02 -0.23069811877E+03  0.28988439287E+02  0.23276599519E+03  0.00000000000E+00 0. -1.
         -4    1    6    6    0  503  0.96916525986E+02 -0.47402749327E+03  0.17827163297E+03  0.51563131452E+03  0.00000000000E+00 0.  1.
<mgrwt>
<rscale>  0 0.81028015E+03</rscale>
<asrwt>0</asrwt>
<pdfrwt beam="1">  1        2 0.39592960E+00 0.81028015E+03</pdfrwt>
<pdfrwt beam="2">  1       -2 0.62581375E-01 0.81028015E+03</pdfrwt>
<totfact> 0.77737041E+00</totfact>
</mgrwt>
</event>
<event>
12    1  0.1335216E-007  0.8431842E+03  0.7818608E-02  0.9499531E-01
         -1   -1    0    0    0  501 -0.00000000000E+00  0.00000000000E+00  0.81218516130E+03  0.81218516130E+03  0.00000000000E+00 0.  1.
          1   -1    0    0  501    0  0.00000000000E+00 -0.00000000000E+00 -0.10633978631E+04  0.10633978631E+04  0.00000000000E+00 0. -1.
         23    2    1    2    0    0  0.69650663401E+03 -0.44642247813E+03 -0.17679821933E+03  0.85085264911E+03  0.90984064292E+02 0.  0.
    5000000    2    1    2    0    0 -0.69650663401E+03  0.44642247813E+03 -0.74414482429E+02  0.10247303752E+04  0.60010024710E+03 0.  0.
         23    2    4    4    0    0 -0.12279902687E+03  0.14117399662E+03  0.22276654994E+03  0.30485386595E+03  0.91111171070E+02 0.  0.
         23    2    4    4    0    0 -0.57370760714E+03  0.30524848150E+03 -0.29718103237E+03  0.71987650929E+03  0.87112391111E+02 0.  0.
          3    1    3    3  502    0  0.62668244301E+03 -0.40006434796E+03 -0.18636881237E+03  0.76649572805E+03  0.00000000000E+00 0. -1.
         -3    1    3    3    0  502  0.69824190995E+02 -0.46358130162E+02  0.95705930489E+01  0.84356921065E+02  0.00000000000E+00 0.  1.
         11    1    5    5    0    0 -0.16930860202E+02  0.85043252865E+02  0.11225879571E+03  0.14184867324E+03  0.00000000000E+00 0.  1.
        -11    1    5    5    0    0 -0.10586816667E+03  0.56130743758E+02  0.11050775423E+03  0.16300519272E+03  0.00000000000E+00 0. -1.
          4    1    6    6  503    0 -0.61988626068E+01  0.12506777174E+02 -0.18437844930E+02  0.23125732389E+02  0.00000000000E+00 0.  1.
         -4    1    6    6    0  503 -0.56750874453E+03  0.29274170433E+03 -0.27874318744E+03  0.69675077690E+03  0.00000000000E+00 0. -1.
<mgrwt>
<rscale>  0 0.84318418E+03</rscale>
<asrwt>0</asrwt>
<pdfrwt beam="1">  1        1 0.16359967E+00 0.84318418E+03</pdfrwt>
<pdfrwt beam="2">  1       -1 0.12495156E+00 0.84318418E+03</pdfrwt>
<totfact> 0.77328922E+00</totfact>
</mgrwt>
</event>
<event>
12    1  0.1335216E-007  0.4400998E+03  0.7818608E-02  0.1030716E+00
          2   -1    0    0  501    0  0.00000000000E+00  0.00000000000E+00  0.10743701771E+04  0.10743701771E+04  0.00000000000E+00 0. -1.
         -2   -1    0    0    0  501 -0.00000000000E+00 -0.00000000000E+00 -0.28885140905E+03  0.28885140905E+03  0.00000000000E+00 0.  1.
         23    2    1    2    0    0 -0.26216179050E+03  0.28575003924E+03  0.26973486346E+03  0.48205856383E+03  0.96133620917E+02 0.  0.
    5000000    2    1    2    0    0  0.26216179050E+03 -0.28575003924E+03  0.51578390460E+03  0.88116302233E+03  0.60002778799E+03 0.  0.
         23    2    4    4    0    0 -0.47192717357E+02 -0.12897029772E+03 -0.81093683520E+02  0.18463355765E+03  0.93020830122E+02 0.  0.
         23    2    4    4    0    0  0.30935450786E+03 -0.15677974152E+03  0.59687758812E+03  0.69652946469E+03  0.92791923631E+02 0.  0.
          4    1    3    3  502    0 -0.18300842036E+03  0.18274937175E+03  0.23029400321E+03  0.34630151994E+03  0.00000000000E+00 0. -1.
         -4    1    3    3    0  502 -0.79153370139E+02  0.10300066749E+03  0.39440860244E+02  0.13575704388E+03  0.00000000000E+00 0.  1.
         11    1    5    5    0    0 -0.45049744388E+02 -0.10421371769E+03 -0.10164532409E+03  0.15238684436E+03  0.00000000000E+00 0. -1.
        -11    1    5    5    0    0 -0.21429729698E+01 -0.24756580026E+02  0.20551640568E+02  0.32246713286E+02  0.00000000000E+00 0.  1.
          3    1    6    6  503    0  0.29429291917E+03 -0.12825081139E+03  0.57146911812E+03  0.65546437421E+03  0.00000000000E+00 0. -1.
         -3    1    6    6    0  503  0.15061588688E+02 -0.28528930121E+02  0.25408469999E+02  0.41065090470E+02  0.00000000000E+00 0.  1.
<mgrwt>
<rscale>  0 0.44009976E+03</rscale>
<asrwt>0</asrwt>
<pdfrwt beam="1">  1        2 0.16528772E+00 0.44009976E+03</pdfrwt>
<pdfrwt beam="2">  1       -2 0.44438679E-01 0.44009976E+03</pdfrwt>
<totfact> 0.11329592E+02</totfact>
</mgrwt>
</event>
<event>
12    1  0.1335216E-007  0.1706552E+04  0.7818608E-02  0.8757637E-01
          2   -1    0    0  501    0  0.00000000000E+00  0.00000000000E+00  0.15049206322E+04  0.15049206322E+04  0.00000000000E+00 0. -1.
         -2   -1    0    0    0  501 -0.00000000000E+00 -0.00000000000E+00 -0.51006915491E+04  0.51006915491E+04  0.00000000000E+00 0.  1.
         23    2    1    2    0    0 -0.10277584582E+04 -0.12998224038E+04 -0.43746275127E+04  0.46788238382E+04  0.90558846593E+02 0.  0.
    5000000    2    1    2    0    0  0.10277584582E+04  0.12998224038E+04  0.77885659572E+03  0.19267883431E+04  0.60005832431E+03 0.  0.
         23    2    4    4    0    0  0.50773439153E+00 -0.76347385735E+01  0.93173234493E+01  0.91878173176E+02  0.91083693176E+02 0.  0.
         23    2    4    4    0    0  0.10272507238E+04  0.13074571424E+04  0.76953927227E+03  0.18349101699E+04  0.10008202336E+03 0.  0.
          3    1    3    3  502    0 -0.13683530883E+03 -0.22624841912E+03 -0.70464359315E+03  0.75261865660E+03  0.00000000000E+00 0. -1.
         -3    1    3    3    0  502 -0.89092314934E+03 -0.10735739847E+04 -0.36699839195E+04  0.39262051816E+04  0.00000000000E+00 0.  1.
         13    1    5    5    0    0  0.14645265263E+02 -0.46787520335E+02  0.10891763072E+02  0.50221373503E+02  0.00000000000E+00 0.  1.
        -13    1    5    5    0    0 -0.14137530872E+02  0.39152781762E+02 -0.15744396222E+01  0.41656799672E+02  0.00000000000E+00 0. -1.
          4    1    6    6  503    0  0.82968887795E+03  0.10724101041E+04  0.58529526287E+03  0.14768268722E+04  0.00000000000E+00 0. -1.
         -4    1    6    6    0  503  0.19756184582E+03  0.23504703827E+03  0.18424400940E+03  0.35808329775E+03  0.00000000000E+00 0.  1.
<mgrwt>
<rscale>  0 0.17065516E+04</rscale>
<asrwt>0</asrwt>
<pdfrwt beam="1">  1        2 0.23152625E+00 0.17065516E+04</pdfrwt>
<pdfrwt beam="2">  1       -2 0.78472177E+00 0.17065516E+04</pdfrwt>
<totfact> 0.11264190E-03</totfact>
</mgrwt>
</event>
<event>
12    1  0.1335216E-007  0.7475570E+03  0.7818608E-02  0.9639191E-01
          2   -1    0    0  501    0  0.00000000000E+00  0.00000000000E+00  0.33090589851E+04  0.33090589851E+04  0.00000000000E+00 0.  1.
         -2   -1    0    0    0  501 -0.00000000000E+00 -0.00000000000E+00 -0.22966372002E+03  0.22966372002E+03  0.00000000000E+00 0. -1.
         23    2    1    2    0    0  0.53092244838E+03 -0.33424775247E+03  0.47184302930E+03  0.79047718893E+03  0.92833914600E+02 0.  0.
    5000000    2    1    2    0    0 -0.53092244838E+03  0.33424775247E+03  0.26075522358E+04  0.27482455162E+04  0.59993712066E+03 0.  0.
         23    2    4    4    0    0  0.11433431633E+03  0.68001610914E+02  0.38470019848E+03  0.41673963599E+03  0.89337150818E+02 0.  0.
         23    2    4    4    0    0 -0.64525676471E+03  0.26624614155E+03  0.22228520373E+04  0.23315058802E+04  0.87207737069E+02 0.  0.
          3    1    3    3  502    0  0.76294284461E+02 -0.12729445281E+02  0.55181295644E+02  0.95014904133E+02  0.00000000000E+00 0. -1.
         -3    1    3    3    0  502  0.45462816392E+03 -0.32151830719E+03  0.41666173365E+03  0.69546228480E+03  0.00000000000E+00 0.  1.
         13    1    5    5    0    0  0.72169658540E+02  0.87615982358E+02  0.26260450918E+03  0.28608765828E+03  0.00000000000E+00 0.  1.
        -13    1    5    5    0    0  0.42164657793E+02 -0.19614371444E+02  0.12209568931E+03  0.13065197772E+03  0.00000000000E+00 0. -1.
          4    1    6    6  503    0 -0.14279182634E+03  0.31035932758E+02  0.38757702541E+03  0.41420850476E+03  0.00000000000E+00 0. -1.
         -4    1    6    6    0  503 -0.50246493838E+03  0.23521020880E+03  0.18352750119E+04  0.19172973755E+04  0.00000000000E+00 0.  1.
<mgrwt>
<rscale>  0 0.74755705E+03</rscale>
<asrwt>0</asrwt>
<pdfrwt beam="1">  1        2 0.50908596E+00 0.74755705E+03</pdfrwt>
<pdfrwt beam="2">  1       -2 0.35332882E-01 0.74755705E+03</pdfrwt>
<totfact> 0.88768615E+00</totfact>
</mgrwt>
</event>
<event>
12    1  0.1335216E-007  0.5621265E+03  0.7818608E-02  0.9987255E-01
         -1   -1    0    0    0  501 -0.00000000000E+00  0.00000000000E+00  0.78681527922E+03  0.78681527922E+03  0.00000000000E+00 0.  1.
          1   -1    0    0  501    0  0.00000000000E+00 -0.00000000000E+00 -0.45257755968E+03  0.45257755968E+03  0.00000000000E+00 0. -1.
         23    2    1    2    0    0  0.34840349606E+03  0.26857841192E+03  0.13391709597E+03  0.46888239690E+03  0.91638169548E+02 0.  0.
    5000000    2    1    2    0    0 -0.34840349606E+03 -0.26857841192E+03  0.20032062356E+03  0.77051044199E+03  0.60003219045E+03 0.  0.
         23    2    4    4    0    0 -0.17507355581E+03  0.13454302806E+03 -0.68477102198E+02  0.24809630295E+03  0.90056014046E+02 0.  0.
         23    2    4    4    0    0 -0.17332994025E+03 -0.40312143998E+03  0.26879772576E+03  0.52241413904E+03  0.90078586499E+02 0.  0.
          2    1    3    3  502    0  0.30771291497E+03  0.19220414922E+03  0.10908477192E+03  0.37885242573E+03  0.00000000000E+00 0. -1.
         -2    1    3    3    0  502  0.40690581089E+02  0.76374262692E+02  0.24832324052E+02  0.90029971170E+02  0.00000000000E+00 0.  1.
         13    1    5    5    0    0 -0.13764486835E+03  0.72506144521E+02 -0.11638263102E+02  0.15600865343E+03  0.00000000000E+00 0. -1.
        -13    1    5    5    0    0 -0.37428687468E+02  0.62036883539E+02 -0.56838839096E+02  0.92087649523E+02  0.00000000000E+00 0.  1.
          3    1    6    6  503    0 -0.12671352350E+03 -0.18766713084E+03  0.15428367072E+03  0.27400496361E+03  0.00000000000E+00 0. -1.
         -3    1    6    6    0  503 -0.46616416749E+02 -0.21545430914E+03  0.11451405504E+03  0.24840917543E+03  0.00000000000E+00 0.  1.
<mgrwt>
<rscale>  0 0.56212648E+03</rscale>
<asrwt>0</asrwt>
<pdfrwt beam="1">  1        1 0.69627317E-01 0.56212648E+03</pdfrwt>
<pdfrwt beam="2">  1       -1 0.12104850E+00 0.56212648E+03</pdfrwt>
<totfact> 0.32158220E+01</totfact>
</mgrwt>
</event>
<event>
12    1  0.1335216E-007  0.1099377E+04  0.7818608E-02  0.9205799E-01
         -1   -1    0    0    0  501 -0.00000000000E+00  0.00000000000E+00  0.42622285632E+03  0.42622285632E+03  0.00000000000E+00 0.  1.
          1   -1    0    0  501    0  0.00000000000E+00 -0.00000000000E+00 -0.32385464533E+04  0.32385464533E+04  0.00000000000E+00 0. -1.
         23    2    1    2    0    0 -0.10957809565E+04  0.10561102208E+01 -0.13671034074E+04  0.17544378033E+04  0.91341443547E+02 0.  0.
    5000000    2    1    2    0    0  0.10957809565E+04 -0.10561102208E+01 -0.14452201896E+04  0.19103315062E+04  0.59997337217E+03 0.  0.
         23    2    4    4    0    0  0.49146834145E+03 -0.79799928721E+01 -0.11015955953E+04  0.12091775189E+04  0.83621801405E+02 0.  0.
         23    2    4    4    0    0  0.60431261507E+03  0.69238826514E+01 -0.34362459423E+03  0.70115398730E+03  0.91089929581E+02 0.  0.
          3    1    3    3  502    0 -0.38390145141E+03  0.37554170560E+01 -0.41103083654E+03  0.56244179801E+03  0.00000000000E+00 0. -1.
         -3    1    3    3    0  502 -0.71187950511E+03 -0.26993068352E+01 -0.95607257082E+03  0.11919960053E+04  0.00000000000E+00 0.  1.
         13    1    5    5    0    0  0.18650586146E+03 -0.43543937135E+02 -0.41533187308E+03  0.45736317694E+03  0.00000000000E+00 0.  1.
        -13    1    5    5    0    0  0.30496247999E+03  0.35563944263E+02 -0.68626372226E+03  0.75181434199E+03  0.00000000000E+00 0. -1.
          1    1    6    6  503    0  0.18445094211E+03  0.55991766500E+01 -0.15444623351E+03  0.24063902399E+03  0.00000000000E+00 0. -1.
         -1    1    6    6    0  503  0.41986167296E+03  0.13247060014E+01 -0.18917836072E+03  0.46051496331E+03  0.00000000000E+00 0.  1.
<mgrwt>
<rscale>  0 0.10993774E+04</rscale>
<asrwt>0</asrwt>
<pdfrwt beam="1">  1        1 0.49823792E+00 0.10993774E+04</pdfrwt>
<pdfrwt beam="2">  1       -1 0.65572746E-01 0.10993774E+04</pdfrwt>
<totfact> 0.95365764E-01</totfact>
</mgrwt>
</event>
<event>
12    1  0.1335216E-007  0.6916704E+03  0.7818608E-02  0.9731584E-01
         -1   -1    0    0    0  501 -0.00000000000E+00  0.00000000000E+00  0.36421236926E+03  0.36421236926E+03  0.00000000000E+00 0.  1.
          1   -1    0    0  501    0  0.00000000000E+00 -0.00000000000E+00 -0.14632398939E+04  0.14632398939E+04  0.00000000000E+00 0. -1.
         23    2    1    2    0    0  0.48011011803E+03 -0.32878296777E+03 -0.26426025855E+03  0.64596783073E+03  0.94005259202E+02 0.  0.
    5000000    2    1    2    0    0 -0.48011011803E+03  0.32878296777E+03 -0.83476726613E+03  0.11814844325E+04  0.60038746676E+03 0.  0.
         23    2    4    4    0    0 -0.13432762325E+03  0.41629299357E+03 -0.59051362895E+03  0.74026127345E+03  0.89087822566E+02 0.  0.
         23    2    4    4    0    0 -0.34578249478E+03 -0.87510025804E+02 -0.24425363718E+03  0.44122315902E+03  0.88286456878E+02 0.  0.
          4    1    3    3  502    0  0.30096012898E+03 -0.16940305692E+03 -0.11733256356E+03  0.36474830418E+03  0.00000000000E+00 0. -1.
         -4    1    3    3    0  502  0.17914998906E+03 -0.15937991085E+03 -0.14692769499E+03  0.28121952655E+03  0.00000000000E+00 0.  1.
         11    1    5    5    0    0 -0.10184977085E+03  0.37540498585E+03 -0.55241959396E+03  0.67562540435E+03  0.00000000000E+00 0.  1.
        -11    1    5    5    0    0 -0.32477852391E+02  0.40888007724E+02 -0.38094034995E+02  0.64635869095E+02  0.00000000000E+00 0. -1.
          1    1    6    6  503    0 -0.31672306037E+03 -0.84404815023E+02 -0.18808626151E+03  0.37790754364E+03  0.00000000000E+00 0. -1.
         -1    1    6    6    0  503 -0.29059434416E+02 -0.31052107815E+01 -0.56167375665E+02  0.63315615385E+02  0.00000000000E+00 0.  1.
<mgrwt>
<rscale>  0 0.69167040E+03</rscale>
<asrwt>0</asrwt>
<pdfrwt beam="1">  1        1 0.22511383E+00 0.69167040E+03</pdfrwt>
<pdfrwt beam="2">  1       -1 0.56032673E-01 0.69167040E+03</pdfrwt>
<totfact> 0.23279936E+01</totfact>
</mgrwt>
</event>
<event>
12    1  0.1335216E-007  0.8275825E+03  0.7818608E-02  0.9520929E-01
          2   -1    0    0  501    0  0.00000000000E+00  0.00000000000E+00  0.12559647094E+04  0.12559647094E+04  0.00000000000E+00 0. -1.
         -2   -1    0    0    0  501 -0.00000000000E+00 -0.00000000000E+00 -0.91613728830E+03  0.91613728830E+03  0.00000000000E+00 0.  1.
         23    2    1    2    0    0  0.80043589659E+03  0.19500260742E+03  0.70651859694E+03  0.10890241834E+04  0.89897179100E+02 0.  0.
    5000000    2    1    2    0    0 -0.80043589659E+03 -0.19500260742E+03 -0.36669117584E+03  0.10830778143E+04  0.59989290036E+03 0.  0.
         23    2    4    4    0    0 -0.43198145512E+03 -0.88375061828E+02  0.11087881356E+03  0.46332185815E+03  0.89190267527E+02 0.  0.
         23    2    4    4    0    0 -0.36845444148E+03 -0.10662754559E+03 -0.47756998939E+03  0.61975595614E+03  0.94319889087E+02 0.  0.
          3    1    3    3  502    0  0.69904693481E+03  0.16228184981E+03  0.65085470578E+03  0.96882086264E+03  0.00000000000E+00 0. -1.
         -3    1    3    3    0  502  0.10138896178E+03  0.32720757601E+02  0.55663891164E+02  0.12020332079E+03  0.00000000000E+00 0.  1.
         11    1    5    5    0    0 -0.37274983067E+03 -0.94425253781E+02  0.12060259854E+03  0.40299324013E+03  0.00000000000E+00 0.  1.
        -11    1    5    5    0    0 -0.59231624451E+02  0.60501919524E+01 -0.97237849818E+01  0.60328618020E+02  0.00000000000E+00 0. -1.
          2    1    6    6  503    0 -0.18202223737E+03 -0.26247705896E+02 -0.16521057143E+03  0.24721563436E+03  0.00000000000E+00 0. -1.
         -2    1    6    6    0  503 -0.18643220411E+03 -0.80379839691E+02 -0.31235941796E+03  0.37254032177E+03  0.00000000000E+00 0.  1.
<mgrwt>
<rscale>  0 0.82758250E+03</rscale>
<asrwt>0</asrwt>
<pdfrwt beam="1">  1        2 0.19322534E+00 0.82758250E+03</pdfrwt>
<pdfrwt beam="2">  1       -2 0.14094420E+00 0.82758250E+03</pdfrwt>
<totfact> 0.62618935E+00</totfact>
</mgrwt>
</event>
<event>
12    1  0.1335216E-007  0.4848441E+03  0.7818608E-02  0.1017812E+00
          2   -1    0    0  501    0  0.00000000000E+00  0.00000000000E+00  0.81354869290E+03  0.81354869290E+03  0.00000000000E+00 0. -1.
         -2   -1    0    0    0  501 -0.00000000000E+00 -0.00000000000E+00 -0.46222022938E+03  0.46222022938E+03  0.00000000000E+00 0.  1.
         23    2    1    2    0    0  0.29806886241E+03  0.21002243437E+03 -0.15841222549E+03  0.40830019352E+03  0.93059900975E+02 0.  0.
    5000000    2    1    2    0    0 -0.29806886241E+03 -0.21002243437E+03  0.50974068901E+03  0.86746872875E+03  0.59975991501E+03 0.  0.
         23    2    4    4    0    0  0.10449218595E+03  0.59192292337E+02  0.29145743300E+03  0.32830096988E+03  0.91715577612E+02 0.  0.
         23    2    4    4    0    0 -0.40256104836E+03 -0.26921472671E+03  0.21828325601E+03  0.53916775887E+03  0.92316442841E+02 0.  0.
          1    1    3    3  502    0  0.16878602063E+03  0.10840774214E+03 -0.13596609565E+03  0.24233806652E+03  0.00000000000E+00 0. -1.
         -1    1    3    3    0  502  0.12928284178E+03  0.10161469223E+03 -0.22446129836E+02  0.16596212701E+03  0.00000000000E+00 0.  1.
         11    1    5    5    0    0  0.95347758309E+02  0.55979208927E+02  0.14914344221E+03  0.18565730043E+03  0.00000000000E+00 0. -1.
        -11    1    5    5    0    0  0.91444276456E+01  0.32130834098E+01  0.14231399078E+03  0.14264366945E+03  0.00000000000E+00 0.  1.
          3    1    6    6  503    0 -0.31043570427E+03 -0.21267491553E+03  0.12537887144E+03  0.39663687119E+03  0.00000000000E+00 0. -1.
         -3    1    6    6    0  503 -0.92125344089E+02 -0.56539811172E+02  0.92904384568E+02  0.14253088768E+03  0.00000000000E+00 0.  1.
<mgrwt>
<rscale>  0 0.48484405E+03</rscale>
<asrwt>0</asrwt>
<pdfrwt beam="1">  1        2 0.12516134E+00 0.48484405E+03</pdfrwt>
<pdfrwt beam="2">  1       -2 0.71110805E-01 0.48484405E+03</pdfrwt>
<totfact> 0.62834693E+01</totfact>
</mgrwt>
</event>
<event>
12    1  0.1335216E-007  0.1395617E+04  0.7818608E-02  0.8956997E-01
         -2   -1    0    0    0  501 -0.00000000000E+00  0.00000000000E+00  0.90864058056E+03  0.90864058056E+03  0.00000000000E+00 0.  1.
          2   -1    0    0  501    0  0.00000000000E+00 -0.00000000000E+00 -0.22549441495E+04  0.22549441495E+04  0.00000000000E+00 0. -1.
         23    2    1    2    0    0  0.31430391816E+03  0.13296073746E+04 -0.64797779818E+03  0.15160888178E+04  0.10957806749E+03 0.  0.
    5000000    2    1    2    0    0 -0.31430391816E+03 -0.13296073746E+04 -0.69832577079E+03  0.16474959123E+04  0.59995097746E+03 0.  0.
         23    2    4    4    0    0  0.67447131755E+02 -0.47322041542E+03 -0.47295110208E+03  0.67847914571E+03  0.90357783556E+02 0.  0.
         23    2    4    4    0    0 -0.38175104992E+03 -0.85638695919E+03 -0.22537466871E+03  0.96901676661E+03  0.95222185913E+02 0.  0.
          1    1    3    3  502    0  0.12652095519E+03  0.75949861818E+03 -0.38304922212E+03  0.85998395897E+03  0.00000000000E+00 0. -1.
         -1    1    3    3    0  502  0.18778296297E+03  0.57010875643E+03 -0.26492857606E+03  0.65610485881E+03  0.00000000000E+00 0.  1.
         13    1    5    5    0    0  0.53219833819E+02 -0.44607306309E+03 -0.40886353197E+03  0.60743963988E+03  0.00000000000E+00 0. -1.
        -13    1    5    5    0    0  0.14227297936E+02 -0.27147352330E+02 -0.64087570113E+02  0.71039505827E+02  0.00000000000E+00 0.  1.
          3    1    6    6  503    0 -0.13221528646E+03 -0.39588493114E+03 -0.12524628163E+03  0.43576644173E+03  0.00000000000E+00 0. -1.
         -3    1    6    6    0  503 -0.24953576346E+03 -0.46050202804E+03 -0.10012838709E+03  0.53325032487E+03  0.00000000000E+00 0.  1.
<mgrwt>
<rscale>  0 0.13956173E+04</rscale>
<asrwt>0</asrwt>
<pdfrwt beam="1">  1        2 0.34691449E+00 0.13956173E+04</pdfrwt>
<pdfrwt beam="2">  1       -2 0.13979086E+00 0.13956173E+04</pdfrwt>
<totfact> 0.16565340E+00</totfact>
</mgrwt>
</event>
<event>
12    1  0.1335216E-007  0.1118464E+04  0.7818608E-02  0.9187380E-01
          2   -1    0    0  501    0  0.00000000000E+00  0.00000000000E+00  0.31189101757E+04  0.31189101757E+04  0.00000000000E+00 0.  1.
         -2   -1    0    0    0  501 -0.00000000000E+00 -0.00000000000E+00 -0.50387191505E+03  0.50387191505E+03  0.00000000000E+00 0. -1.
         23    2    1    2    0    0 -0.78726697021E+03  0.67482723071E+03  0.20478467303E+04  0.22973234932E+04  0.94010254825E+02 0.  0.
    5000000    2    1    2    0    0  0.78726697021E+03 -0.67482723071E+03  0.56719153034E+03  0.13254585975E+04  0.59996098870E+03 0.  0.
         23    2    4    4    0    0  0.71959061436E+03 -0.26204061099E+03  0.34708173110E+03  0.84563606138E+03  0.90325445782E+02 0.  0.
         23    2    4    4    0    0  0.67676355852E+02 -0.41278661972E+03  0.22010979924E+03  0.47982253614E+03  0.82513392290E+02 0.  0.
          3    1    3    3  502    0 -0.68705369369E+03  0.54448923332E+03  0.17124316710E+04  0.19237810507E+04  0.00000000000E+00 0. -1.
         -3    1    3    3    0  502 -0.10021327653E+03  0.13033799740E+03  0.33541505925E+03  0.37354244247E+03  0.00000000000E+00 0.  1.
         13    1    5    5    0    0  0.16989544376E+03 -0.10082775438E+03  0.10507608374E+03  0.22376702446E+03  0.00000000000E+00 0.  1.
        -13    1    5    5    0    0  0.54969517060E+03 -0.16121285662E+03  0.24200564736E+03  0.62186903692E+03  0.00000000000E+00 0. -1.
          3    1    6    6  503    0  0.68089566239E+02 -0.17657840440E+03  0.82489849628E+02  0.20644780750E+03  0.00000000000E+00 0. -1.
         -3    1    6    6    0  503 -0.41321038720E+00 -0.23620821533E+03  0.13761994961E+03  0.27337472864E+03  0.00000000000E+00 0.  1.
<mgrwt>
<rscale>  0 0.11184637E+04</rscale>
<asrwt>0</asrwt>
<pdfrwt beam="1">  1        2 0.47983232E+00 0.11184637E+04</pdfrwt>
<pdfrwt beam="2">  1       -2 0.77518758E-01 0.11184637E+04</pdfrwt>
<totfact> 0.21859734E+00</totfact>
</mgrwt>
</event>
<event>
12    1  0.1335216E-007  0.1034619E+04  0.7818608E-02  0.9271369E-01
          1   -1    0    0  501    0  0.00000000000E+00  0.00000000000E+00  0.29986297152E+04  0.29986297152E+04  0.00000000000E+00 0. -1.
         -1   -1    0    0    0  501 -0.00000000000E+00 -0.00000000000E+00 -0.41575766885E+03  0.41575766885E+03  0.00000000000E+00 0.  1.
         23    2    1    2    0    0 -0.94324738293E+03  0.34330259649E+03  0.15783860412E+04  0.18728249624E+04  0.92728347299E+02 0.  0.
    5000000    2    1    2    0    0  0.94324738293E+03 -0.34330259649E+03  0.10044860051E+04  0.15415624217E+04  0.59987520976E+03 0.  0.
         23    2    4    4    0    0  0.83817678915E+03 -0.37139591934E+03  0.10445706741E+04  0.13928527150E+04  0.91845161424E+02 0.  0.
         23    2    4    4    0    0  0.10507059378E+03  0.28093322850E+02 -0.40084669001E+02  0.14870970667E+03  0.93159710736E+02 0.  0.
          3    1    3    3  502    0 -0.20002287146E+03  0.95170500817E+02  0.29063316256E+03  0.36542332782E+03  0.00000000000E+00 0. -1.
         -3    1    3    3    0  502 -0.74322451146E+03  0.24813209567E+03  0.12877528787E+04  0.15074016346E+04  0.00000000000E+00 0.  1.
         11    1    5    5    0    0  0.83041682865E+03 -0.35478912291E+03  0.10235284492E+04  0.13649461225E+04  0.00000000000E+00 0. -1.
        -11    1    5    5    0    0  0.77599604997E+01 -0.16606796429E+02  0.21042224964E+02  0.27906592519E+02  0.00000000000E+00 0.  1.
          2    1    6    6  503    0  0.67699931965E+02  0.62410923061E+02 -0.31062637522E+02  0.97176599833E+02  0.00000000000E+00 0. -1.
         -2    1    6    6    0  503  0.37370661813E+02 -0.34317600211E+02 -0.90220314792E+01  0.51533106840E+02  0.00000000000E+00 0.  1.
<mgrwt>
<rscale>  0 0.10346195E+04</rscale>
<asrwt>0</asrwt>
<pdfrwt beam="1">  1        1 0.46132763E+00 0.10346195E+04</pdfrwt>
<pdfrwt beam="2">  1       -1 0.63962720E-01 0.10346195E+04</pdfrwt>
<totfact> 0.15187413E+00</totfact>
</mgrwt>
</event>
<event>
12    1  0.1335216E-007  0.6077707E+03  0.7818608E-02  0.9889414E-01
          1   -1    0    0  501    0  0.00000000000E+00  0.00000000000E+00  0.87732537667E+03  0.87732537667E+03  0.00000000000E+00 0. -1.
         -1   -1    0    0    0  501 -0.00000000000E+00 -0.00000000000E+00 -0.66925617626E+03  0.66925617626E+03  0.00000000000E+00 0.  1.
         23    2    1    2    0    0 -0.57523114536E+03  0.97621040153E+02 -0.18918480271E+03  0.62014426957E+03  0.91472878179E+02 0.  0.
    5000000    2    1    2    0    0  0.57523114536E+03 -0.97621040153E+02  0.39725400312E+03  0.92643728335E+03  0.60004546405E+03 0.  0.
         23    2    4    4    0    0  0.49447221998E+03 -0.75034165330E+02  0.53806267858E+03  0.74012467042E+03  0.90222942658E+02 0.  0.
         23    2    4    4    0    0  0.80758925376E+02 -0.22586874823E+02 -0.14080867546E+03  0.18631261293E+03  0.88617919802E+02 0.  0.
          3    1    3    3  502    0 -0.30124895024E+03  0.78284745558E+01 -0.79462354395E+02  0.31165121659E+03  0.00000000000E+00 0. -1.
         -3    1    3    3    0  502 -0.27398219511E+03  0.89792565597E+02 -0.10972244832E+03  0.30849305299E+03  0.00000000000E+00 0.  1.
         13    1    5    5    0    0  0.17602177101E+03 -0.67950924733E+02  0.22279742365E+03  0.29195836009E+03  0.00000000000E+00 0. -1.
        -13    1    5    5    0    0  0.31845044897E+03 -0.70832405963E+01  0.31526525493E+03  0.44816631032E+03  0.00000000000E+00 0.  1.
          4    1    6    6  503    0 -0.24804186161E+01 -0.34484103000E+02 -0.62422112267E+02  0.71357031441E+02  0.00000000000E+00 0. -1.
         -4    1    6    6    0  503  0.83239343992E+02  0.11897228176E+02 -0.78386563196E+02  0.11495558149E+03  0.00000000000E+00 0.  1.
<mgrwt>
<rscale>  0 0.60777075E+03</rscale>
<asrwt>0</asrwt>
<pdfrwt beam="1">  1        1 0.13497314E+00 0.60777075E+03</pdfrwt>
<pdfrwt beam="2">  1       -1 0.10296249E+00 0.60777075E+03</pdfrwt>
<totfact> 0.17753205E+01</totfact>
</mgrwt>
</event>
<event>
12    1  0.1335216E-007  0.1226992E+04  0.7818608E-02  0.9089553E-01
         -2   -1    0    0    0  501 -0.00000000000E+00  0.00000000000E+00  0.13365811644E+04  0.13365811644E+04  0.00000000000E+00 0.  1.
          2   -1    0    0  501    0  0.00000000000E+00 -0.00000000000E+00 -0.13651231496E+04  0.13651231496E+04  0.00000000000E+00 0. -1.
         23    2    1    2    0    0  0.11335363429E+04  0.45205582170E+03 -0.40414766987E+03  0.12907773586E+04  0.11624002642E+03 0.  0.
    5000000    2    1    2    0    0 -0.11335363429E+04 -0.45205582170E+03  0.37560568460E+03  0.14109269554E+04  0.60031336543E+03 0.  0.
         23    2    4    4    0    0 -0.56550530249E+03 -0.16868015227E+03 -0.10965935990E+03  0.60654818445E+03  0.87328597436E+02 0.  0.
         23    2    4    4    0    0 -0.56803104039E+03 -0.28337566943E+03  0.48526504450E+03  0.80437877099E+03  0.92639143586E+02 0.  0.
          2    1    3    3  502    0  0.34995752927E+03  0.16569172837E+03 -0.77722316841E+02  0.39492376439E+03  0.00000000000E+00 0. -1.
         -2    1    3    3    0  502  0.78357881361E+03  0.28636409333E+03 -0.32642535303E+03  0.89585359417E+03  0.00000000000E+00 0.  1.
         11    1    5    5    0    0 -0.46102940554E+03 -0.15632509208E+03 -0.11833289156E+03  0.50098734556E+03  0.00000000000E+00 0. -1.
        -11    1    5    5    0    0 -0.10447589695E+03 -0.12355060191E+02  0.86735316534E+01  0.10556083889E+03  0.00000000000E+00 0.  1.
          3    1    6    6  503    0 -0.32762969598E+03 -0.11594338424E+03  0.28577320830E+03  0.44994489953E+03  0.00000000000E+00 0. -1.
         -3    1    6    6    0  503 -0.24040134441E+03 -0.16743228520E+03  0.19949183621E+03  0.35443387145E+03  0.00000000000E+00 0.  1.
<mgrwt>
<rscale>  0 0.12269918E+04</rscale>
<asrwt>0</asrwt>
<pdfrwt beam="1">  1        2 0.21001895E+00 0.12269918E+04</pdfrwt>
<pdfrwt beam="2">  1       -2 0.20562787E+00 0.12269918E+04</pdfrwt>
<totfact> 0.17919699E+00</totfact>
</mgrwt>
</event>
<event>
12    1  0.1335216E-007  0.3439068E+03  0.7818608E-02  0.1065144E+00
          1   -1    0    0  501    0  0.00000000000E+00  0.00000000000E+00  0.54374455819E+03  0.54374455819E+03  0.00000000000E+00 0. -1.
         -1   -1    0    0    0  501 -0.00000000000E+00 -0.00000000000E+00 -0.23790676484E+03  0.23790676484E+03  0.00000000000E+00 0.  1.
         23    2    1    2    0    0 -0.32621733557E+02 -0.55282113914E+02  0.75986785449E+02  0.13580934581E+03  0.92465654309E+02 0.  0.
    5000000    2    1    2    0    0  0.32621733557E+02  0.55282113914E+02  0.22985100790E+03  0.64584197723E+03  0.60013338859E+03 0.  0.
         23    2    4    4    0    0 -0.26679068765E+03 -0.10534366098E+02  0.13190516992E+03  0.31150260610E+03  0.91360034323E+02 0.  0.
         23    2    4    4    0    0  0.29941242120E+03  0.65816480011E+02  0.97945837977E+02  0.33433937113E+03  0.90608061992E+02 0.  0.
          4    1    3    3  502    0  0.20621262430E+02 -0.23281194917E+02  0.65907710161E+02  0.72877134684E+02  0.00000000000E+00 0. -1.
         -4    1    3    3    0  502 -0.53242995987E+02 -0.32000918996E+02  0.10079075288E+02  0.62932211124E+02  0.00000000000E+00 0.  1.
         11    1    5    5    0    0 -0.13693763261E+03  0.39889068763E+02  0.73516260072E+02  0.16046087849E+03  0.00000000000E+00 0. -1.
        -11    1    5    5    0    0 -0.12985305503E+03 -0.50423434861E+02  0.58388909853E+02  0.15104172761E+03  0.00000000000E+00 0.  1.
          2    1    6    6  503    0  0.51732225140E+02 -0.11889600643E+02  0.44600442970E+02  0.69330983222E+02  0.00000000000E+00 0.  1.
         -2    1    6    6    0  503  0.24768019606E+03  0.77706080654E+02  0.53345395006E+02  0.26500838791E+03  0.00000000000E+00 0. -1.
<mgrwt>
<rscale>  0 0.34390685E+03</rscale>
<asrwt>0</asrwt>
<pdfrwt beam="1">  1        1 0.83653009E-01 0.34390685E+03</pdfrwt>
<pdfrwt beam="2">  1       -1 0.36601041E-01 0.34390685E+03</pdfrwt>
<totfact> 0.29191479E+02</totfact>
</mgrwt>
</event>
<event>
12    1  0.1335216E-007  0.5914971E+03  0.7818608E-02  0.9923206E-01
          1   -1    0    0  501    0  0.00000000000E+00  0.00000000000E+00  0.20040541220E+04  0.20040541220E+04  0.00000000000E+00 0. -1.
         -1   -1    0    0    0  501 -0.00000000000E+00 -0.00000000000E+00 -0.21149636446E+03  0.21149636446E+03  0.00000000000E+00 0.  1.
         23    2    1    2    0    0  0.25118735008E+03 -0.38691948880E+03  0.10715839209E+04  0.11702440735E+04  0.91527681453E+02 0.  0.
    5000000    2    1    2    0    0 -0.25118735008E+03  0.38691948880E+03  0.72097383667E+03  0.10453064130E+04  0.60005037135E+03 0.  0.
         23    2    4    4    0    0 -0.15381564930E+03 -0.12262224565E+03  0.12475632385E+03  0.25026598102E+03  0.91506567057E+02 0.  0.
         23    2    4    4    0    0 -0.97371700776E+02  0.50954173445E+03  0.59621751282E+03  0.79504043194E+03  0.86602185728E+02 0.  0.
          1    1    3    3  502    0  0.22186554488E+03 -0.36594420487E+03  0.10290433190E+04  0.11144817780E+04  0.00000000000E+00 0. -1.
         -1    1    3    3    0  502  0.29321805192E+02 -0.20975283928E+02  0.42540601913E+02  0.55762295565E+02  0.00000000000E+00 0.  1.
         11    1    5    5    0    0 -0.78254958231E+02 -0.52821306623E+02  0.11219596527E+03  0.14663513748E+03  0.00000000000E+00 0.  1.
        -11    1    5    5    0    0 -0.75560691068E+02 -0.69800939028E+02  0.12560358582E+02  0.10363084353E+03  0.00000000000E+00 0. -1.
          1    1    6    6  503    0 -0.10698566068E+02  0.19945921660E+03  0.18046770451E+03  0.26919701107E+03  0.00000000000E+00 0. -1.
         -1    1    6    6    0  503 -0.86673134708E+02  0.31008251785E+03  0.41574980831E+03  0.52584342087E+03  0.00000000000E+00 0.  1.
<mgrwt>
<rscale>  0 0.59149709E+03</rscale>
<asrwt>0</asrwt>
<pdfrwt beam="1">  1        1 0.30831600E+00 0.59149709E+03</pdfrwt>
<pdfrwt beam="2">  1       -1 0.32537904E-01 0.59149709E+03</pdfrwt>
<totfact> 0.27831095E+01</totfact>
</mgrwt>
</event>
<event>
12    1  0.1335216E-007  0.7191275E+03  0.7818608E-02  0.9685069E-01
         -2   -1    0    0    0  501 -0.00000000000E+00  0.00000000000E+00  0.23575762281E+04  0.23575762281E+04  0.00000000000E+00 0.  1.
          2   -1    0    0  501    0  0.00000000000E+00 -0.00000000000E+00 -0.33229721276E+03  0.33229721276E+03  0.00000000000E+00 0. -1.
         23    2    1    2    0    0  0.14646022371E+03  0.59704320777E+03  0.16308595907E+04  0.17446612366E+04  0.78921713814E+02 0.  0.
    5000000    2    1    2    0    0 -0.14646022371E+03 -0.59704320777E+03  0.39441942463E+03  0.94521220424E+03  0.59995686464E+03 0.  0.
         23    2    4    4    0    0 -0.21912433107E+03 -0.67001490143E+03  0.27206678228E+03  0.76116781868E+03  0.91764228157E+02 0.  0.
         23    2    4    4    0    0  0.72664107357E+02  0.72971693651E+02  0.12235264235E+03  0.18404438556E+03  0.91089111282E+02 0.  0.
          3    1    3    3  502    0  0.15456679510E+03  0.55732759755E+03  0.14987638233E+04  0.16064862100E+04  0.00000000000E+00 0. -1.
         -3    1    3    3    0  502 -0.81065713853E+01  0.39715610223E+02  0.13209576742E+03  0.13817502656E+03  0.00000000000E+00 0.  1.
         13    1    5    5    0    0 -0.22475273264E+03 -0.61372705604E+03  0.24080310171E+03  0.69653486915E+03  0.00000000000E+00 0. -1.
        -13    1    5    5    0    0  0.56284015654E+01 -0.56287845387E+02  0.31263680566E+02  0.64632949531E+02  0.00000000000E+00 0.  1.
          3    1    6    6  503    0  0.13397443904E+02  0.38215187693E+02 -0.35126579586E+01  0.40647642484E+02  0.00000000000E+00 0. -1.
         -3    1    6    6    0  503  0.59266663453E+02  0.34756505958E+02  0.12586530031E+03  0.14339674308E+03  0.00000000000E+00 0.  1.
<mgrwt>
<rscale>  0 0.71912748E+03</rscale>
<asrwt>0</asrwt>
<pdfrwt beam="1">  1        2 0.51122650E-01 0.71912748E+03</pdfrwt>
<pdfrwt beam="2">  1       -2 0.36270402E+00 0.71912748E+03</pdfrwt>
<totfact> 0.13429519E+00</totfact>
</mgrwt>
</event>
<event>
12    1  0.1335216E-007  0.1039357E+04  0.7818608E-02  0.9266402E-01
         -2   -1    0    0    0  501 -0.00000000000E+00  0.00000000000E+00  0.49086499812E+03  0.49086499812E+03  0.00000000000E+00 0. -1.
          2   -1    0    0  501    0  0.00000000000E+00 -0.00000000000E+00 -0.30231349018E+04  0.30231349018E+04  0.00000000000E+00 0.  1.
         23    2    1    2    0    0  0.10015134524E+04  0.25606467213E+03 -0.48931897670E+03  0.11471621145E+04  0.89160217053E+02 0.  0.
    5000000    2    1    2    0    0 -0.10015134524E+04 -0.25606467213E+03 -0.20429509270E+04  0.23668377854E+04  0.59972852266E+03 0.  0.
         23    2    4    4    0    0 -0.40594069143E+03 -0.12170379059E+03 -0.14399718137E+04  0.15040964945E+04  0.95852923492E+02 0.  0.
         23    2    4    4    0    0 -0.59557276097E+03 -0.13436088155E+03 -0.60297911325E+03  0.86274129090E+03  0.89325046406E+02 0.  0.
          4    1    3    3  502    0  0.32624815904E+03  0.40655557971E+02 -0.15324312775E+03  0.36273157000E+03  0.00000000000E+00 0. -1.
         -4    1    3    3    0  502  0.67526529335E+03  0.21540911416E+03 -0.33607584895E+03  0.78443054449E+03  0.00000000000E+00 0.  1.
         11    1    5    5    0    0 -0.66912476876E+02 -0.13048536298E+02 -0.37632602410E+03  0.38245106913E+03  0.00000000000E+00 0.  1.
        -11    1    5    5    0    0 -0.33902821455E+03 -0.10865525429E+03 -0.10636457896E+04  0.11216454254E+04  0.00000000000E+00 0. -1.
          4    1    6    6  503    0 -0.33890457391E+03 -0.31190672623E+02 -0.33935621240E+03  0.48061607045E+03  0.00000000000E+00 0.  1.
         -4    1    6    6    0  503 -0.25666818706E+03 -0.10317020892E+03 -0.26362290085E+03  0.38212522045E+03  0.00000000000E+00 0. -1.
<mgrwt>
<rscale>  0 0.10393567E+04</rscale>
<asrwt>0</asrwt>
<pdfrwt beam="1">  1        2 0.46509769E+00 0.10393567E+04</pdfrwt>
<pdfrwt beam="2">  1       -2 0.75517690E-01 0.10393567E+04</pdfrwt>
<totfact> 0.26908014E+00</totfact>
</mgrwt>
</event>
<event>
12    1  0.1335216E-007  0.5384223E+03  0.7818608E-02  0.1004210E+00
          2   -1    0    0  501    0  0.00000000000E+00  0.00000000000E+00  0.70176405622E+03  0.70176405622E+03  0.00000000000E+00 0. -1.
         -2   -1    0    0    0  501 -0.00000000000E+00 -0.00000000000E+00 -0.52297450598E+03  0.52297450598E+03  0.00000000000E+00 0.  1.
         23    2    1    2    0    0 -0.33670655740E+03 -0.24190403990E+03 -0.11314804404E+03  0.43920589351E+03  0.90611625704E+02 0.  0.
    5000000    2    1    2    0    0  0.33670655740E+03  0.24190403990E+03  0.29193759428E+03  0.78553266870E+03  0.59995428519E+03 0.  0.
         23    2    4    4    0    0  0.46202131036E+03  0.21837024343E+03  0.34431976945E+03  0.62329823433E+03  0.93783425203E+02 0.  0.
         23    2    4    4    0    0 -0.12531475296E+03  0.23533796473E+02 -0.52382175171E+02  0.16223443437E+03  0.85548188368E+02 0.  0.
          1    1    3    3  502    0 -0.21242577010E+02 -0.55807451025E+01 -0.28624871403E+02  0.36080119966E+02  0.00000000000E+00 0. -1.
         -1    1    3    3    0  502 -0.31546398039E+03 -0.23632329480E+03 -0.84523172635E+02  0.40312577355E+03  0.00000000000E+00 0.  1.
         13    1    5    5    0    0  0.25209507531E+03  0.14015695082E+03  0.24416801425E+03  0.37790728631E+03  0.00000000000E+00 0. -1.
        -13    1    5    5    0    0  0.20992623505E+03  0.78213292604E+02  0.10015175520E+03  0.24539094802E+03  0.00000000000E+00 0.  1.
          1    1    6    6  503    0 -0.92436353311E+02 -0.19127982438E+02 -0.12508070474E+02  0.95219803363E+02  0.00000000000E+00 0. -1.
         -1    1    6    6    0  503 -0.32878399650E+02  0.42661778910E+02 -0.39874104697E+02  0.67014631005E+02  0.00000000000E+00 0.  1.
<mgrwt>
<rscale>  0 0.53842225E+03</rscale>
<asrwt>0</asrwt>
<pdfrwt beam="1">  1        2 0.10796370E+00 0.53842225E+03</pdfrwt>
<pdfrwt beam="2">  1       -2 0.80457616E-01 0.53842225E+03</pdfrwt>
<totfact> 0.57475769E+01</totfact>
</mgrwt>
</event>
<event>
12    1  0.1335216E-007  0.7716014E+03  0.7818608E-02  0.9602058E-01
          2   -1    0    0  501    0  0.00000000000E+00  0.00000000000E+00  0.17823737656E+04  0.17823737656E+04  0.00000000000E+00 0. -1.
         -2   -1    0    0    0  501 -0.00000000000E+00 -0.00000000000E+00 -0.46606320348E+03  0.46606320348E+03  0.00000000000E+00 0.  1.
         23    2    1    2    0    0  0.37479318158E+02 -0.71111739742E+03  0.10585934147E+04  0.12822727514E+04  0.12849412054E+03 0.  0.
    5000000    2    1    2    0    0 -0.37479318158E+02  0.71111739742E+03  0.25771714745E+03  0.96616421776E+03  0.59996876200E+03 0.  0.
         23    2    4    4    0    0 -0.21331155127E+03  0.26643340377E+03 -0.93698808644E+02  0.36588486807E+03  0.92756096258E+02 0.  0.
         23    2    4    4    0    0  0.17583223311E+03  0.44468399365E+03  0.35141595609E+03  0.60027934969E+03  0.90450511606E+02 0.  0.
          1    1    3    3  502    0  0.56949056328E+02 -0.41722751237E+03  0.52739636130E+03  0.67488437084E+03  0.00000000000E+00 0. -1.
         -1    1    3    3    0  502 -0.19469738170E+02 -0.29388988506E+03  0.53119705341E+03  0.60738838052E+03  0.00000000000E+00 0.  1.
         11    1    5    5    0    0 -0.10321514045E+03  0.18669258403E+03 -0.28843205361E+02  0.21526592077E+03  0.00000000000E+00 0. -1.
        -11    1    5    5    0    0 -0.11009641082E+03  0.79740819737E+02 -0.64855603283E+02  0.15061894730E+03  0.00000000000E+00 0.  1.
          3    1    6    6  503    0  0.54437529190E+02  0.15156973937E+03  0.67825093683E+02  0.17474860174E+03  0.00000000000E+00 0. -1.
         -3    1    6    6    0  503  0.12139470392E+03  0.29311425428E+03  0.28359086241E+03  0.42553074794E+03  0.00000000000E+00 0.  1.
<mgrwt>
<rscale>  0 0.77160138E+03</rscale>
<asrwt>0</asrwt>
<pdfrwt beam="1">  1        2 0.27421134E+00 0.77160138E+03</pdfrwt>
<pdfrwt beam="2">  1       -2 0.71702032E-01 0.77160138E+03</pdfrwt>
<totfact> 0.15982008E+01</totfact>
</mgrwt>
</event>
<event>
12    1  0.1335216E-007  0.4799570E+03  0.7818608E-02  0.1019147E+00
          2   -1    0    0  501    0  0.00000000000E+00  0.00000000000E+00  0.10043393637E+04  0.10043393637E+04  0.00000000000E+00 0. -1.
         -2   -1    0    0    0  501 -0.00000000000E+00 -0.00000000000E+00 -0.27885525519E+03  0.27885525519E+03  0.00000000000E+00 0.  1.
         23    2    1    2    0    0  0.20902064300E+03 -0.27853862970E+03  0.30736850866E+03  0.47312522820E+03  0.89992688614E+02 0.  0.
    5000000    2    1    2    0    0 -0.20902064300E+03  0.27853862970E+03  0.41811559982E+03  0.81006939065E+03  0.60009862974E+03 0.  0.
         23    2    4    4    0    0  0.31416237142E+02 -0.11034582770E+03  0.29325563771E+03  0.32749406475E+03  0.89946160291E+02 0.  0.
         23    2    4    4    0    0 -0.24043688014E+03  0.38888445740E+03  0.12485996210E+03  0.48257532590E+03  0.90818062560E+02 0.  0.
          3    1    3    3  502    0  0.10832043532E+03 -0.13412733929E+03  0.93541245016E+02  0.19614643605E+03  0.00000000000E+00 0. -1.
         -3    1    3    3    0  502  0.10070020768E+03 -0.14441129041E+03  0.21382726364E+03  0.27697879215E+03  0.00000000000E+00 0.  1.
         13    1    5    5    0    0 -0.19422065053E+02 -0.88120345774E+02  0.18635515642E+03  0.20705230324E+03  0.00000000000E+00 0. -1.
        -13    1    5    5    0    0  0.50838302196E+02 -0.22225481923E+02  0.10690048129E+03  0.12044176152E+03  0.00000000000E+00 0.  1.
          4    1    6    6  503    0 -0.91565554377E+02  0.23221007372E+03  0.76971747168E+02  0.26120953074E+03  0.00000000000E+00 0.  1.
         -4    1    6    6    0  503 -0.14887132577E+03  0.15667438368E+03  0.47888214936E+02  0.22136579516E+03  0.00000000000E+00 0. -1.
<mgrwt>
<rscale>  0 0.47995702E+03</rscale>
<asrwt>0</asrwt>
<pdfrwt beam="1">  1        2 0.15451375E+00 0.47995702E+03</pdfrwt>
<pdfrwt beam="2">  1       -2 0.42900809E-01 0.47995702E+03</pdfrwt>
<totfact> 0.13350471E+02</totfact>
</mgrwt>
</event>
<event>
12    1  0.1335216E-007  0.6858373E+03  0.7818608E-02  0.9741764E-01
         -1   -1    0    0    0  501 -0.00000000000E+00  0.00000000000E+00  0.25195190811E+04  0.25195190811E+04  0.00000000000E+00 0.  1.
          1   -1    0    0  501    0  0.00000000000E+00 -0.00000000000E+00 -0.20838873129E+03  0.20838873129E+03  0.00000000000E+00 0. -1.
         23    2    1    2    0    0 -0.54946963614E+03  0.23171985299E+03  0.97447173117E+03  0.11460795299E+04  0.91061312598E+02 0.  0.
    5000000    2    1    2    0    0  0.54946963614E+03 -0.23171985299E+03  0.13366586186E+04  0.15818282825E+04  0.59992789675E+03 0.  0.
         23    2    4    4    0    0  0.62449915463E+03 -0.12626130539E+03  0.12388929242E+04  0.13960719619E+04  0.90664954008E+02 0.  0.
         23    2    4    4    0    0 -0.75029518489E+02 -0.10545854760E+03  0.97765694443E+02  0.18575632059E+03  0.90533671774E+02 0.  0.
          3    1    3    3  502    0 -0.28386101593E+03  0.97508388354E+02  0.56655631703E+03  0.64114820637E+03  0.00000000000E+00 0. -1.
         -3    1    3    3    0  502 -0.26560862020E+03  0.13421146463E+03  0.40791541413E+03  0.50493132350E+03  0.00000000000E+00 0.  1.
         13    1    5    5    0    0  0.58271099909E+03 -0.12360155276E+03  0.10990685422E+04  0.12501124401E+04  0.00000000000E+00 0. -1.
        -13    1    5    5    0    0  0.41788155532E+02 -0.26597526320E+01  0.13982438197E+03  0.14595952186E+03  0.00000000000E+00 0.  1.
          4    1    6    6  503    0 -0.33630962822E+02 -0.82416553365E+02  0.14829619379E+02  0.90241052408E+02  0.00000000000E+00 0. -1.
         -4    1    6    6    0  503 -0.41398555667E+02 -0.23041994230E+02  0.82936075064E+02  0.95515268185E+02  0.00000000000E+00 0.  1.
<mgrwt>
<rscale>  0 0.68583730E+03</rscale>
<asrwt>0</asrwt>
<pdfrwt beam="1">  1        1 0.32059807E-01 0.68583730E+03</pdfrwt>
<pdfrwt beam="2">  1       -1 0.38761830E+00 0.68583730E+03</pdfrwt>
<totfact> 0.13175680E+00</totfact>
</mgrwt>
</event>
<event>
12    1  0.1335216E-007  0.9026697E+03  0.7818608E-02  0.9422250E-01
         -1   -1    0    0    0  501 -0.00000000000E+00  0.00000000000E+00  0.19017104570E+04  0.19017104570E+04  0.00000000000E+00 0.  1.
          1   -1    0    0  501    0  0.00000000000E+00 -0.00000000000E+00 -0.45112833189E+03  0.45112833189E+03  0.00000000000E+00 0. -1.
         23    2    1    2    0    0  0.53615620616E+03 -0.60323719538E+03  0.42100187476E+03  0.91353801025E+03  0.77139654721E+02 0.  0.
    5000000    2    1    2    0    0 -0.53615620616E+03  0.60323719538E+03  0.10295802503E+04  0.14393007786E+04  0.60016051868E+03 0.  0.
         23    2    4    4    0    0 -0.14332587277E+03 -0.94105047874E+02  0.25736972267E+03  0.32329039804E+03  0.94230788349E+02 0.  0.
         23    2    4    4    0    0 -0.39283033339E+03  0.69734224325E+03  0.77221052765E+03  0.11160103806E+04  0.92564547737E+02 0.  0.
          3    1    3    3  502    0  0.35082725166E+03 -0.44598311396E+03  0.30524980485E+03  0.64432766650E+03  0.00000000000E+00 0. -1.
         -3    1    3    3    0  502  0.18532895450E+03 -0.15725408141E+03  0.11575206991E+03  0.26921034375E+03  0.00000000000E+00 0.  1.
         13    1    5    5    0    0 -0.15497913874E+03 -0.92567676968E+02  0.22265748721E+03  0.28664205008E+03  0.00000000000E+00 0. -1.
        -13    1    5    5    0    0  0.11653265969E+02 -0.15373709058E+01  0.34712235465E+02  0.36648347957E+02  0.00000000000E+00 0.  1.
          3    1    6    6  503    0 -0.81306962456E+02  0.19780135324E+03  0.25068830589E+03  0.32951604543E+03  0.00000000000E+00 0. -1.
         -3    1    6    6    0  503 -0.31152337094E+03  0.49954089001E+03  0.52152222176E+03  0.78649433515E+03  0.00000000000E+00 0.  1.
<mgrwt>
<rscale>  0 0.90266974E+03</rscale>
<asrwt>0</asrwt>
<pdfrwt beam="1">  1        1 0.69404360E-01 0.90266974E+03</pdfrwt>
<pdfrwt beam="2">  1       -1 0.29257083E+00 0.90266974E+03</pdfrwt>
<totfact> 0.19328744E+00</totfact>
</mgrwt>
</event>
<event>
12    1  0.1335216E-007  0.1377079E+04  0.7818608E-02  0.8970579E-01
         -2   -1    0    0    0  501 -0.00000000000E+00  0.00000000000E+00  0.80396858252E+03  0.80396858252E+03  0.00000000000E+00 0.  1.
          2   -1    0    0  501    0  0.00000000000E+00 -0.00000000000E+00 -0.29034376330E+04  0.29034376330E+04  0.00000000000E+00 0. -1.
         23    2    1    2    0    0 -0.53213500335E+03  0.12169396281E+04 -0.25372694147E+03  0.13556626435E+04  0.96613259690E+02 0.  0.
    5000000    2    1    2    0    0  0.53213500335E+03 -0.12169396281E+04 -0.18457421090E+04  0.23517435720E+04  0.59985346137E+03 0.  0.
         23    2    4    4    0    0  0.26226705316E+03 -0.10861109760E+04 -0.12537392697E+04  0.16817968463E+04  0.90318417134E+02 0.  0.
         23    2    4    4    0    0  0.26986795019E+03 -0.13082865209E+03 -0.59200283934E+03  0.66994672568E+03  0.91740976252E+02 0.  0.
          2    1    3    3  502    0 -0.95235059442E+02  0.18647128354E+03 -0.68372434000E+01  0.20949463962E+03  0.00000000000E+00 0. -1.
         -2    1    3    3    0  502 -0.43689994391E+03  0.10304683446E+04 -0.24688969807E+03  0.11461680039E+04  0.00000000000E+00 0.  1.
         11    1    5    5    0    0  0.24353332949E+03 -0.96855827655E+03 -0.10778420330E+04  0.14694070456E+04  0.00000000000E+00 0. -1.
        -11    1    5    5    0    0  0.18733723671E+02 -0.11755269949E+03 -0.17589723671E+03  0.21238980070E+03  0.00000000000E+00 0.  1.
          1    1    6    6  503    0  0.48532196304E+02  0.38434400803E+01 -0.14890360699E+03  0.15666023837E+03  0.00000000000E+00 0. -1.
         -1    1    6    6    0  503  0.22133575389E+03 -0.13467209217E+03 -0.44309923234E+03  0.51328648732E+03  0.00000000000E+00 0.  1.
<mgrwt>
<rscale>  0 0.13770789E+04</rscale>
<asrwt>0</asrwt>
<pdfrwt beam="1">  1        2 0.44668271E+00 0.13770789E+04</pdfrwt>
<pdfrwt beam="2">  1       -2 0.12368748E+00 0.13770789E+04</pdfrwt>
<totfact> 0.94926229E-01</totfact>
</mgrwt>
</event>
<event>
12    1  0.1335216E-007  0.4454000E+03  0.7818608E-02  0.1029103E+00
          2   -1    0    0  501    0  0.00000000000E+00  0.00000000000E+00  0.38693781622E+03  0.38693781622E+03  0.00000000000E+00 0. -1.
         -2   -1    0    0    0  501 -0.00000000000E+00 -0.00000000000E+00 -0.70023874457E+03  0.70023874457E+03  0.00000000000E+00 0.  1.
         23    2    1    2    0    0  0.25252192972E+03  0.48122012909E+01 -0.34381382592E+03  0.43540814144E+03  0.87073649652E+02 0.  0.
    5000000    2    1    2    0    0 -0.25252192972E+03 -0.48122012909E+01  0.30512897568E+02  0.65176841935E+03  0.60006712397E+03 0.  0.
         23    2    4    4    0    0  0.18361165122E+03  0.28227325499E+01 -0.96368803444E+01  0.20510514856E+03  0.90851781597E+02 0.  0.
         23    2    4    4    0    0 -0.43613358094E+03 -0.76349338408E+01  0.40149777912E+02  0.44666327079E+03  0.87322850233E+02 0.  0.
          2    1    3    3  502    0  0.14368313281E+03 -0.48163655390E+01 -0.26220694947E+03  0.29903264769E+03  0.00000000000E+00 0. -1.
         -2    1    3    3    0  502  0.10883879690E+03  0.96285668299E+01 -0.81606876448E+02  0.13637549375E+03  0.00000000000E+00 0.  1.
         11    1    5    5    0    0  0.10925728157E+03  0.40146860852E+02  0.17251846218E+02  0.11767136529E+03  0.00000000000E+00 0. -1.
        -11    1    5    5    0    0  0.74354369649E+02 -0.37324128302E+02 -0.26888726563E+02  0.87433783263E+02  0.00000000000E+00 0.  1.
          3    1    6    6  503    0 -0.15804856932E+03 -0.22764290812E+02 -0.22361100471E+02  0.16123765694E+03  0.00000000000E+00 0. -1.
         -3    1    6    6    0  503 -0.27808501162E+03  0.15129356971E+02  0.62510878383E+02  0.28542561385E+03  0.00000000000E+00 0.  1.
<mgrwt>
<rscale>  0 0.44539996E+03</rscale>
<asrwt>0</asrwt>
<pdfrwt beam="1">  1        2 0.59528895E-01 0.44539996E+03</pdfrwt>
<pdfrwt beam="2">  1       -2 0.10772904E+00 0.44539996E+03</pdfrwt>
<totfact> 0.58996941E+01</totfact>
</mgrwt>
</event>
<event>
12    1  0.1335216E-007  0.5536874E+03  0.7818608E-02  0.1000644E+00
          2   -1    0    0  501    0  0.00000000000E+00  0.00000000000E+00  0.15062213747E+04  0.15062213747E+04  0.00000000000E+00 0. -1.
         -2   -1    0    0    0  501 -0.00000000000E+00 -0.00000000000E+00 -0.30540147906E+03  0.30540147906E+03  0.00000000000E+00 0.  1.
         23    2    1    2    0    0 -0.26765851586E+03  0.31667865542E+03  0.21633237666E+02  0.42512819367E+03  0.91321039014E+02 0.  0.
    5000000    2    1    2    0    0  0.26765851586E+03 -0.31667865542E+03  0.11791866580E+04  0.13864946601E+04  0.59996651258E+03 0.  0.
         23    2    4    4    0    0 -0.16118388415E+03 -0.22093587551E+02  0.44283142038E+03  0.48012218033E+03  0.89158679067E+02 0.  0.
         23    2    4    4    0    0  0.42884240002E+03 -0.29458506787E+03  0.73635523764E+03  0.90637247980E+03  0.92767827782E+02 0.  0.
          1    1    3    3  502    0 -0.15017322634E+03  0.14859905714E+03 -0.30701264748E+02  0.21348593713E+03  0.00000000000E+00 0. -1.
         -1    1    3    3    0  502 -0.11748528952E+03  0.16807959828E+03  0.52334502414E+02  0.21164225654E+03  0.00000000000E+00 0.  1.
         11    1    5    5    0    0 -0.40200334358E+02 -0.26004604670E+01  0.32129817806E+02  0.51528191016E+02  0.00000000000E+00 0. -1.
        -11    1    5    5    0    0 -0.12098354980E+03 -0.19493127084E+02  0.41070160257E+03  0.42859398932E+03  0.00000000000E+00 0.  1.
          2    1    6    6  503    0  0.19475856703E+03 -0.18909356736E+03  0.36391256662E+03  0.45400400085E+03  0.00000000000E+00 0. -1.
         -2    1    6    6    0  503  0.23408383299E+03 -0.10549150052E+03  0.37244267102E+03  0.45236847895E+03  0.00000000000E+00 0.  1.
<mgrwt>
<rscale>  0 0.55368739E+03</rscale>
<asrwt>0</asrwt>
<pdfrwt beam="1">  1        2 0.23172636E+00 0.55368739E+03</pdfrwt>
<pdfrwt beam="2">  1       -2 0.46984844E-01 0.55368739E+03</pdfrwt>
<totfact> 0.56532268E+01</totfact>
</mgrwt>
</event>
<event>
12    1  0.1335216E-007  0.1315809E+04  0.7818608E-02  0.9017121E-01
         -1   -1    0    0    0  501 -0.00000000000E+00  0.00000000000E+00  0.10369515308E+04  0.10369515308E+04  0.00000000000E+00 0.  1.
          1   -1    0    0  501    0  0.00000000000E+00 -0.00000000000E+00 -0.16903579289E+04  0.16903579289E+04  0.00000000000E+00 0. -1.
         23    2    1    2    0    0 -0.61374954349E+03  0.10892659955E+04 -0.20731474393E+03  0.12705049849E+04  0.89524312475E+02 0.  0.
    5000000    2    1    2    0    0  0.61374954349E+03 -0.10892659955E+04 -0.44609165408E+03  0.14568044749E+04  0.60007716430E+03 0.  0.
         23    2    4    4    0    0  0.52255282529E+03 -0.35449667977E+03 -0.16266351947E+03  0.65866650062E+03  0.93020359480E+02 0.  0.
         23    2    4    4    0    0  0.91196718197E+02 -0.73476931568E+03 -0.28342813461E+03  0.79813797423E+03  0.92140814751E+02 0.  0.
          2    1    3    3  502    0 -0.34152542567E+03  0.52300489589E+03 -0.12200468278E+03  0.63644236198E+03  0.00000000000E+00 0. -1.
         -2    1    3    3    0  502 -0.27222411782E+03  0.56626109956E+03 -0.85310061153E+02  0.63406262288E+03  0.00000000000E+00 0.  1.
         11    1    5    5    0    0  0.26871423918E+03 -0.14731424903E+03 -0.11617997090E+03  0.32772948592E+03  0.00000000000E+00 0. -1.
        -11    1    5    5    0    0  0.25383858612E+03 -0.20718243074E+03 -0.46483548578E+02  0.33093701470E+03  0.00000000000E+00 0.  1.
          1    1    6    6  503    0  0.67451304737E+02 -0.69497043521E+03 -0.25281768388E+03  0.74259704121E+03  0.00000000000E+00 0. -1.
         -1    1    6    6    0  503  0.23745413460E+02 -0.39798880471E+02 -0.30610450732E+02  0.55540933024E+02  0.00000000000E+00 0.  1.
<mgrwt>
<rscale>  0 0.13158092E+04</rscale>
<asrwt>0</asrwt>
<pdfrwt beam="1">  1        1 0.26005507E+00 0.13158092E+04</pdfrwt>
<pdfrwt beam="2">  1       -1 0.15953101E+00 0.13158092E+04</pdfrwt>
<totfact> 0.13801420E+00</totfact>
</mgrwt>
</event>
<event>
12    1  0.1335216E-007  0.7204338E+03  0.7818608E-02  0.9682912E-01
          1   -1    0    0  501    0  0.00000000000E+00  0.00000000000E+00  0.20246233101E+04  0.20246233101E+04  0.00000000000E+00 0. -1.
         -1   -1    0    0    0  501 -0.00000000000E+00 -0.00000000000E+00 -0.34887181245E+03  0.34887181245E+03  0.00000000000E+00 0.  1.
         23    2    1    2    0    0  0.28454428228E+03 -0.64821068500E+03  0.47818099120E+03  0.85854952496E+03  0.85485002991E+02 0.  0.
    5000000    2    1    2    0    0 -0.28454428228E+03  0.64821068500E+03  0.11975705064E+04  0.15149455976E+04  0.59978538246E+03 0.  0.
         23    2    4    4    0    0 -0.14084651396E+03  0.45515440941E+03  0.27721199241E+03  0.55930963311E+03  0.94749670476E+02 0.  0.
         23    2    4    4    0    0 -0.14369776832E+03  0.19305627559E+03  0.92035851401E+03  0.95563596446E+03  0.90887447356E+02 0.  0.
          1    1    3    3  502    0  0.10424163181E+03 -0.24302117289E+03  0.22922479099E+03  0.34995658742E+03  0.00000000000E+00 0. -1.
         -1    1    3    3    0  502  0.18030265048E+03 -0.40518951211E+03  0.24895620021E+03  0.50859293754E+03  0.00000000000E+00 0.  1.
         13    1    5    5    0    0 -0.72544310837E+02  0.26287783891E+03  0.10470898326E+03  0.29211539912E+03  0.00000000000E+00 0. -1.
        -13    1    5    5    0    0 -0.68302203125E+02  0.19227657049E+03  0.17250300915E+03  0.26719423399E+03  0.00000000000E+00 0.  1.
          2    1    6    6  503    0 -0.12301797113E+03  0.93532542456E+02  0.51181599888E+03  0.53463761038E+03  0.00000000000E+00 0. -1.
         -2    1    6    6    0  503 -0.20679797186E+02  0.99523733135E+02  0.40854251513E+03  0.42099835408E+03  0.00000000000E+00 0.  1.
<mgrwt>
<rscale>  0 0.72043383E+03</rscale>
<asrwt>0</asrwt>
<pdfrwt beam="1">  1        1 0.31148050E+00 0.72043383E+03</pdfrwt>
<pdfrwt beam="2">  1       -1 0.53672588E-01 0.72043383E+03</pdfrwt>
<totfact> 0.10555686E+01</totfact>
</mgrwt>
</event>
<event>
12    1  0.1335216E-007  0.8945004E+03  0.7818608E-02  0.9432482E-01
         -1   -1    0    0    0  501 -0.00000000000E+00  0.00000000000E+00  0.94546914982E+03  0.94546914982E+03  0.00000000000E+00 0.  1.
          1   -1    0    0  501    0  0.00000000000E+00 -0.00000000000E+00 -0.10580932508E+04  0.10580932508E+04  0.00000000000E+00 0. -1.
         23    2    1    2    0    0 -0.76946113156E+03 -0.41567885732E+03 -0.29407525092E+03  0.92754472487E+03  0.94866316596E+02 0.  0.
    5000000    2    1    2    0    0  0.76946113156E+03  0.41567885732E+03  0.18145114998E+03  0.10760176757E+04  0.60002514379E+03 0.  0.
         23    2    4    4    0    0  0.43543488237E+03  0.36882559465E+03  0.36058306070E+03  0.68216965811E+03  0.98485748856E+02 0.  0.
         23    2    4    4    0    0  0.33402624919E+03  0.46853262669E+02 -0.17913191072E+03  0.39384801759E+03  0.96225028692E+02 0.  0.
          2    1    3    3  502    0 -0.60249487062E+03 -0.31377596977E+03 -0.18711569539E+03  0.70460464928E+03  0.00000000000E+00 0.  1.
         -2    1    3    3    0  502 -0.16696626095E+03 -0.10190288755E+03 -0.10695955554E+03  0.22294007560E+03  0.00000000000E+00 0. -1.
         11    1    5    5    0    0  0.24592237596E+03  0.23991992569E+03  0.16626608764E+03  0.38168546952E+03  0.00000000000E+00 0.  1.
        -11    1    5    5    0    0  0.18951250641E+03  0.12890566897E+03  0.19431697306E+03  0.30048418860E+03  0.00000000000E+00 0. -1.
          1    1    6    6  503    0  0.83382136713E+02  0.34906666150E+02 -0.90003327219E+02  0.12756039736E+03  0.00000000000E+00 0. -1.
         -1    1    6    6    0  503  0.25064411248E+03  0.11946596520E+02 -0.89128583505E+02  0.26628762023E+03  0.00000000000E+00 0.  1.
<mgrwt>
<rscale>  0 0.89450035E+03</rscale>
<asrwt>0</asrwt>
<pdfrwt beam="1">  1        1 0.16278358E+00 0.89450035E+03</pdfrwt>
<pdfrwt beam="2">  1       -1 0.14545679E+00 0.89450035E+03</pdfrwt>
<totfact> 0.52501205E+00</totfact>
</mgrwt>
</event>
<event>
12    1  0.1335216E-007  0.1043938E+04  0.7818608E-02  0.9261625E-01
         -2   -1    0    0    0  501 -0.00000000000E+00  0.00000000000E+00  0.64969754822E+03  0.64969754822E+03  0.00000000000E+00 0.  1.
          2   -1    0    0  501    0  0.00000000000E+00 -0.00000000000E+00 -0.19188821456E+04  0.19188821456E+04  0.00000000000E+00 0. -1.
         23    2    1    2    0    0 -0.69701102965E+03  0.67245640170E+03 -0.10059767740E+04  0.13994530519E+04  0.91965140067E+02 0.  0.
    5000000    2    1    2    0    0  0.69701102965E+03 -0.67245640170E+03 -0.26320782329E+03  0.11691266419E+04  0.59963051858E+03 0.  0.
         23    2    4    4    0    0  0.75096280945E+03 -0.68495124710E+03 -0.27304855228E+03  0.10568532765E+04  0.96332674205E+02 0.  0.
         23    2    4    4    0    0 -0.53951779794E+02  0.12494845403E+02  0.98407289891E+01  0.11227336533E+03  0.97167653628E+02 0.  0.
          3    1    3    3  502    0 -0.46387690067E+03  0.50026493320E+03 -0.73174535584E+03  0.10004489233E+04  0.00000000000E+00 0.  1.
         -3    1    3    3    0  502 -0.23313412898E+03  0.17219146849E+03 -0.27423141820E+03  0.39900412861E+03  0.00000000000E+00 0. -1.
         11    1    5    5    0    0  0.45628794868E+03 -0.47223152779E+03 -0.19671623641E+03  0.68549149201E+03  0.00000000000E+00 0. -1.
        -11    1    5    5    0    0  0.29467486077E+03 -0.21271971931E+03 -0.76332315871E+02  0.37136178451E+03  0.00000000000E+00 0.  1.
          4    1    6    6  503    0 -0.41721614783E+02  0.44774224133E+02 -0.22272627182E+02  0.65126754935E+02  0.00000000000E+00 0. -1.
         -4    1    6    6    0  503 -0.12230165011E+02 -0.32279378730E+02  0.32113356171E+02  0.47146610398E+02  0.00000000000E+00 0.  1.
<mgrwt>
<rscale>  0 0.10439382E+04</rscale>
<asrwt>0</asrwt>
<pdfrwt beam="1">  1        2 0.29521264E+00 0.10439382E+04</pdfrwt>
<pdfrwt beam="2">  1       -2 0.99953468E-01 0.10439382E+04</pdfrwt>
<totfact> 0.60953037E+00</totfact>
</mgrwt>
</event>
<event>
12    1  0.1335216E-007  0.5556170E+03  0.7818608E-02  0.1000202E+00
         -2   -1    0    0    0  501 -0.00000000000E+00  0.00000000000E+00  0.34704593692E+03  0.34704593692E+03  0.00000000000E+00 0.  1.
          2   -1    0    0  501    0  0.00000000000E+00 -0.00000000000E+00 -0.14392122693E+04  0.14392122693E+04  0.00000000000E+00 0. -1.
         23    2    1    2    0    0 -0.22873873696E+03 -0.33965926251E+03  0.60515785369E+02  0.42370310541E+03  0.90400978216E+02 0.  0.
    5000000    2    1    2    0    0  0.22873873696E+03  0.33965926251E+03 -0.11526821177E+04  0.13625551008E+04  0.60015874046E+03 0.  0.
         23    2    4    4    0    0  0.38732307586E+03  0.35205608736E+03 -0.95471280633E+03  0.10925664179E+04  0.90896540669E+02 0.  0.
         23    2    4    4    0    0 -0.15858433889E+03 -0.12396824857E+02 -0.19796931139E+03  0.26998868293E+03  0.91648059703E+02 0.  0.
          1    1    3    3  502    0 -0.12779260293E+03 -0.24261153302E+03  0.85559517384E+01  0.27434378001E+03  0.00000000000E+00 0. -1.
         -1    1    3    3    0  502 -0.10094613403E+03 -0.97047729487E+02  0.51959833631E+02  0.14935932540E+03  0.00000000000E+00 0.  1.
         11    1    5    5    0    0  0.35017609319E+03  0.30684039537E+03 -0.78086295167E+03  0.90913215418E+03  0.00000000000E+00 0. -1.
        -11    1    5    5    0    0  0.37146982671E+02  0.45215691992E+02 -0.17384985466E+03  0.18343426367E+03  0.00000000000E+00 0.  1.
          3    1    6    6  503    0 -0.32092713629E+02  0.25333317106E+02 -0.13302290625E+02  0.42996164475E+02  0.00000000000E+00 0. -1.
         -3    1    6    6    0  503 -0.12649162526E+03 -0.37730141963E+02 -0.18466702077E+03  0.22699251845E+03  0.00000000000E+00 0.  1.
<mgrwt>
<rscale>  0 0.55561704E+03</rscale>
<asrwt>0</asrwt>
<pdfrwt beam="1">  1        2 0.22141727E+00 0.55561704E+03</pdfrwt>
<pdfrwt beam="2">  1       -2 0.53391684E-01 0.55561704E+03</pdfrwt>
<totfact> 0.47502061E+01</totfact>
</mgrwt>
</event>
<event>
12    1  0.1335216E-007  0.4632756E+03  0.7818608E-02  0.1023835E+00
          1   -1    0    0  501    0  0.00000000000E+00  0.00000000000E+00  0.57078905169E+03  0.57078905169E+03  0.00000000000E+00 0. -1.
         -1   -1    0    0    0  501 -0.00000000000E+00 -0.00000000000E+00 -0.12096604628E+04  0.12096604628E+04  0.00000000000E+00 0.  1.
         23    2    1    2    0    0  0.30880102446E+03  0.20822949120E+03 -0.93775471782E+03  0.10132078489E+04  0.92133819295E+02 0.  0.
    5000000    2    1    2    0    0 -0.30880102446E+03 -0.20822949120E+03  0.29888330670E+03  0.76724166555E+03  0.60050890803E+03 0.  0.
         23    2    4    4    0    0 -0.28219119409E+03  0.48619766245E+02 -0.69248029246E+02  0.30815144259E+03  0.90367418473E+02 0.  0.
         23    2    4    4    0    0 -0.26609830362E+02 -0.25684925745E+03  0.36813133595E+03  0.45909022296E+03  0.92539333206E+02 0.  0.
          3    1    3    3  502    0  0.17886571553E+03  0.93913885761E+02 -0.39718603177E+03  0.44561138446E+03  0.00000000000E+00 0. -1.
         -3    1    3    3    0  502  0.12993530893E+03  0.11431560544E+03 -0.54056868605E+03  0.56759646448E+03  0.00000000000E+00 0.  1.
         13    1    5    5    0    0 -0.19300632976E+03  0.49384492510E+02 -0.69227164314E+01  0.19934441409E+03  0.00000000000E+00 0.  1.
        -13    1    5    5    0    0 -0.89184864336E+02 -0.76472626483E+00 -0.62325312815E+02  0.10880702850E+03  0.00000000000E+00 0. -1.
          1    1    6    6  503    0 -0.37658996970E+02 -0.23978228416E+03  0.28908163433E+03  0.37746779353E+03  0.00000000000E+00 0. -1.
         -1    1    6    6    0  503  0.11049166608E+02 -0.17066973289E+02  0.79049701618E+02  0.81622429429E+02  0.00000000000E+00 0.  1.
<mgrwt>
<rscale>  0 0.46327560E+03</rscale>
<asrwt>0</asrwt>
<pdfrwt beam="1">  1        1 0.87813701E-01 0.46327560E+03</pdfrwt>
<pdfrwt beam="2">  1       -1 0.18610161E+00 0.46327560E+03</pdfrwt>
<totfact> 0.75199977E+00</totfact>
</mgrwt>
</event>
<event>
12    1  0.1335216E-007  0.5746590E+03  0.7818608E-02  0.9959422E-01
         -2   -1    0    0    0  501 -0.00000000000E+00  0.00000000000E+00  0.36958845322E+03  0.36958845322E+03  0.00000000000E+00 0.  1.
          2   -1    0    0  501    0  0.00000000000E+00 -0.00000000000E+00 -0.14706023663E+04  0.14706023663E+04  0.00000000000E+00 0. -1.
         23    2    1    2    0    0 -0.20956804543E+03 -0.37094204453E+03 -0.10079526412E+04  0.10980846449E+04  0.91129547614E+02 0.  0.
    5000000    2    1    2    0    0  0.20956804543E+03  0.37094204453E+03 -0.93061271913E+02  0.74210617463E+03  0.60045350197E+03 0.  0.
         23    2    4    4    0    0  0.31097568191E+03  0.46012563811E+03 -0.12465098957E+03  0.57632470075E+03  0.90503115464E+02 0.  0.
         23    2    4    4    0    0 -0.10140763649E+03 -0.89183593576E+02  0.31589717657E+02  0.16578147388E+03  0.90820508249E+02 0.  0.
          2    1    3    3  502    0 -0.16673840394E+03 -0.20904405837E+03 -0.65213532491E+03  0.70482735169E+03  0.00000000000E+00 0. -1.
         -2    1    3    3    0  502 -0.42829641488E+02 -0.16189798616E+03 -0.35581731628E+03  0.39325729323E+03  0.00000000000E+00 0.  1.
         13    1    5    5    0    0  0.36879861969E+02  0.10830507679E+03 -0.46694045835E+02  0.12357365331E+03  0.00000000000E+00 0.  1.
        -13    1    5    5    0    0  0.27409581994E+03  0.35182056132E+03 -0.77956943735E+02  0.45275104744E+03  0.00000000000E+00 0. -1.
          2    1    6    6  503    0 -0.81782762626E+01 -0.53667843486E+02  0.37278229694E+02  0.65854293984E+02  0.00000000000E+00 0. -1.
         -2    1    6    6    0  503 -0.93229360225E+02 -0.35515750090E+02 -0.56885120367E+01  0.99927179894E+02  0.00000000000E+00 0.  1.
<mgrwt>
<rscale>  0 0.57465898E+03</rscale>
<asrwt>0</asrwt>
<pdfrwt beam="1">  1        2 0.22624652E+00 0.57465898E+03</pdfrwt>
<pdfrwt beam="2">  1       -2 0.56859761E-01 0.57465898E+03</pdfrwt>
<totfact> 0.39959356E+01</totfact>
</mgrwt>
</event>
<event>
12    1  0.1335216E-007  0.3010006E+03  0.7818608E-02  0.1084741E+00
          3   -1    0    0  501    0  0.00000000000E+00  0.00000000000E+00  0.11977144815E+03  0.11977144815E+03  0.00000000000E+00 0. -1.
         -3   -1    0    0    0  501 -0.00000000000E+00 -0.00000000000E+00 -0.10631810202E+04  0.10631810202E+04  0.00000000000E+00 0.  1.
         23    2    1    2    0    0 -0.71307715544E+00 -0.51135355724E+02 -0.88600668824E+02  0.13746374963E+03  0.91819773803E+02 0.  0.
    5000000    2    1    2    0    0  0.71307715544E+00  0.51135355724E+02 -0.85480890317E+03  0.10454887187E+04  0.59977751446E+03 0.  0.
         23    2    4    4    0    0  0.49036691172E+01 -0.24124644206E+03 -0.21489486059E+03  0.33608065192E+03  0.92447345587E+02 0.  0.
         23    2    4    4    0    0 -0.41905919618E+01  0.29238179779E+03 -0.63991404258E+03  0.70940806676E+03  0.90912851431E+02 0.  0.
          1    1    3    3  502    0 -0.90172635619E+01 -0.31593557496E+02  0.11748687621E+02  0.34892629282E+02  0.00000000000E+00 0. -1.
         -1    1    3    3    0  502  0.83041864064E+01 -0.19541798228E+02 -0.10034935645E+03  0.10257112034E+03  0.00000000000E+00 0.  1.
         11    1    5    5    0    0  0.33596759599E+02 -0.13360841564E+03 -0.16231217596E+03  0.21289714289E+03  0.00000000000E+00 0.  1.
        -11    1    5    5    0    0 -0.28693090482E+02 -0.10763802642E+03 -0.52582684631E+02  0.12318350903E+03  0.00000000000E+00 0. -1.
          1    1    6    6  503    0  0.23703570064E+02  0.57180254159E+02 -0.20552470012E+03  0.21464352555E+03  0.00000000000E+00 0.  1.
         -1    1    6    6    0  503 -0.27894162026E+02  0.23520154363E+03 -0.43438934246E+03  0.49476454122E+03  0.00000000000E+00 0. -1.
<mgrwt>
<rscale>  0 0.30100060E+03</rscale>
<asrwt>0</asrwt>
<pdfrwt beam="1">  1        3 0.18426375E-01 0.30100060E+03</pdfrwt>
<pdfrwt beam="2">  1       -3 0.16356632E+00 0.30100060E+03</pdfrwt>
<totfact> 0.17695152E+01</totfact>
</mgrwt>
</event>
<event>
12    1  0.1335216E-007  0.4086421E+03  0.7818608E-02  0.1040828E+00
          1   -1    0    0  501    0  0.00000000000E+00  0.00000000000E+00  0.12258639974E+04  0.12258639974E+04  0.00000000000E+00 0. -1.
         -1   -1    0    0    0  501 -0.00000000000E+00 -0.00000000000E+00 -0.23326667753E+03  0.23326667753E+03  0.00000000000E+00 0.  1.
         23    2    1    2    0    0  0.16728939048E+03  0.31486395569E+03  0.28719645097E+03  0.46678500980E+03  0.91002160237E+02 0.  0.
    5000000    2    1    2    0    0 -0.16728939048E+03 -0.31486395569E+03  0.70540086893E+03  0.99234566516E+03  0.60002873473E+03 0.  0.
         23    2    4    4    0    0 -0.58908309218E+02 -0.33855067761E+03  0.75882884504E+03  0.83757260754E+03  0.87292076550E+02 0.  0.
         23    2    4    4    0    0 -0.10838108126E+03  0.23686721917E+02 -0.53427976111E+02  0.15477305762E+03  0.93769030933E+02 0.  0.
          1    1    3    3  502    0  0.31643130959E+02  0.91267728645E+02  0.33001515839E+02  0.10207931268E+03  0.00000000000E+00 0. -1.
         -1    1    3    3    0  502  0.13564625952E+03  0.22359622704E+03  0.25419493513E+03  0.36470569712E+03  0.00000000000E+00 0.  1.
         11    1    5    5    0    0 -0.37548153691E+02 -0.30529008389E+03  0.60443345694E+03  0.67819739238E+03  0.00000000000E+00 0. -1.
        -11    1    5    5    0    0 -0.21360155527E+02 -0.33260593716E+02  0.15439538810E+03  0.15937521516E+03  0.00000000000E+00 0.  1.
          1    1    6    6  503    0 -0.97707847515E+01 -0.23573210967E+01 -0.51802430304E+02  0.52768522651E+02  0.00000000000E+00 0. -1.
         -1    1    6    6    0  503 -0.98610296511E+02  0.26044043014E+02 -0.16255458070E+01  0.10200453497E+03  0.00000000000E+00 0.  1.
<mgrwt>
<rscale>  0 0.40864211E+03</rscale>
<asrwt>0</asrwt>
<pdfrwt beam="1">  1        1 0.18859446E+00 0.40864211E+03</pdfrwt>
<pdfrwt beam="2">  1       -1 0.35887182E-01 0.40864211E+03</pdfrwt>
<totfact> 0.80926553E+01</totfact>
</mgrwt>
</event>
<event>
12    1  0.1335216E-007  0.6414096E+03  0.7818608E-02  0.9823033E-01
         -1   -1    0    0    0  501 -0.00000000000E+00  0.00000000000E+00  0.21798475558E+03  0.21798475558E+03  0.00000000000E+00 0.  1.
          1   -1    0    0  501    0  0.00000000000E+00 -0.00000000000E+00 -0.26858582016E+04  0.26858582016E+04  0.00000000000E+00 0. -1.
         23    2    1    2    0    0  0.49416280980E+03 -0.95264830582E+02 -0.28416561321E+03  0.58389963858E+03  0.83165026758E+02 0.  0.
    5000000    2    1    2    0    0 -0.49416280980E+03  0.95264830582E+02 -0.21837078328E+04  0.23199433186E+04  0.60023731296E+03 0.  0.
         23    2    4    4    0    0 -0.57391031716E+03 -0.52693156947E+02 -0.15391330092E+04  0.16459843407E+04  0.90467724478E+02 0.  0.
         23    2    4    4    0    0  0.79747507367E+02  0.14795798753E+03 -0.64457482365E+03  0.67395897785E+03  0.10243422048E+03 0.  0.
          3    1    3    3  502    0  0.37306468161E+03 -0.34711932964E+02 -0.20660740711E+03  0.42786539429E+03  0.00000000000E+00 0. -1.
         -3    1    3    3    0  502  0.12109812819E+03 -0.60552897618E+02 -0.77558206094E+02  0.15603424430E+03  0.00000000000E+00 0.  1.
         11    1    5    5    0    0 -0.28908787634E+03 -0.27356265717E+02 -0.64774140193E+03  0.70985145579E+03  0.00000000000E+00 0. -1.
        -11    1    5    5    0    0 -0.28482244083E+03 -0.25336891230E+02 -0.89139160722E+03  0.93613288495E+03  0.00000000000E+00 0.  1.
          1    1    6    6  503    0  0.99509163672E+02  0.86444503961E+02 -0.45257195307E+03  0.47137681172E+03  0.00000000000E+00 0. -1.
         -1    1    6    6    0  503 -0.19761656305E+02  0.61513483568E+02 -0.19200287058E+03  0.20258216613E+03  0.00000000000E+00 0.  1.
<mgrwt>
<rscale>  0 0.64140960E+03</rscale>
<asrwt>0</asrwt>
<pdfrwt beam="1">  1        1 0.41320894E+00 0.64140960E+03</pdfrwt>
<pdfrwt beam="2">  1       -1 0.33536117E-01 0.64140960E+03</pdfrwt>
<totfact> 0.90724994E+00</totfact>
</mgrwt>
</event>
<event>
12    1  0.1335216E-007  0.7241913E+03  0.7818608E-02  0.9676733E-01
          1   -1    0    0  501    0  0.00000000000E+00  0.00000000000E+00  0.18490498512E+04  0.18490498512E+04  0.00000000000E+00 0. -1.
         -1   -1    0    0    0  501 -0.00000000000E+00 -0.00000000000E+00 -0.38541140492E+03  0.38541140492E+03  0.00000000000E+00 0.  1.
         23    2    1    2    0    0  0.23552572549E+03 -0.67480530710E+03  0.41727288750E+03  0.83256685266E+03  0.90643983014E+02 0.  0.
    5000000    2    1    2    0    0 -0.23552572549E+03  0.67480530710E+03  0.10463655588E+04  0.14018944035E+04  0.59966029218E+03 0.  0.
         23    2    4    4    0    0 -0.46198092813E+02  0.22284965870E+03  0.23082548148E+01  0.24496776835E+03  0.90596055796E+02 0.  0.
         23    2    4    4    0    0 -0.18932763268E+03  0.45195564840E+03  0.10440573040E+04  0.11569266352E+04  0.91185110928E+02 0.  0.
          4    1    3    3  502    0  0.16202859035E+03 -0.36767163050E+03  0.27020376390E+03  0.48419599956E+03  0.00000000000E+00 0. -1.
         -4    1    3    3    0  502  0.73497135142E+02 -0.30713367660E+03  0.14706912360E+03  0.34837085310E+03  0.00000000000E+00 0.  1.
         11    1    5    5    0    0 -0.10061988855E+02  0.19012799419E+03  0.23446968835E+02  0.19183236990E+03  0.00000000000E+00 0.  1.
        -11    1    5    5    0    0 -0.36136103958E+02  0.32721664515E+02 -0.21138714021E+02  0.53135398449E+02  0.00000000000E+00 0. -1.
          3    1    6    6  503    0 -0.84365443862E+02  0.25303433206E+03  0.47048809856E+03  0.54083542063E+03  0.00000000000E+00 0. -1.
         -3    1    6    6    0  503 -0.10496218882E+03  0.19892131634E+03  0.57356920545E+03  0.61609121452E+03  0.00000000000E+00 0.  1.
<mgrwt>
<rscale>  0 0.72419131E+03</rscale>
<asrwt>0</asrwt>
<pdfrwt beam="1">  1        1 0.28446920E+00 0.72419131E+03</pdfrwt>
<pdfrwt beam="2">  1       -1 0.59294063E-01 0.72419131E+03</pdfrwt>
<totfact> 0.11389362E+01</totfact>
</mgrwt>
</event>
<event>
12    1  0.1335216E-007  0.6197860E+03  0.7818608E-02  0.9865186E-01
         -2   -1    0    0    0  501 -0.00000000000E+00  0.00000000000E+00  0.60315451846E+03  0.60315451846E+03  0.00000000000E+00 0.  1.
          2   -1    0    0  501    0  0.00000000000E+00 -0.00000000000E+00 -0.70212683092E+03  0.70212683092E+03  0.00000000000E+00 0. -1.
         23    2    1    2    0    0 -0.12788664576E+03 -0.48366423741E+03  0.36262652187E+02  0.51236332425E+03  0.10447539127E+03 0.  0.
    5000000    2    1    2    0    0  0.12788664576E+03  0.48366423741E+03 -0.13523496464E+03  0.79291802512E+03  0.60012032976E+03 0.  0.
         23    2    4    4    0    0 -0.15664151791E+03  0.99062107830E+01 -0.14581917331E+03  0.23272511796E+03  0.90901326054E+02 0.  0.
         23    2    4    4    0    0  0.28452816367E+03  0.47375802663E+03  0.10584208667E+02  0.56019290717E+03  0.91110504620E+02 0.  0.
          1    1    3    3  502    0 -0.14034060106E+02 -0.18165846398E+03 -0.24813565478E+02  0.18388166143E+03  0.00000000000E+00 0. -1.
         -1    1    3    3    0  502 -0.11385258565E+03 -0.30200577344E+03  0.61076217664E+02  0.32848166283E+03  0.00000000000E+00 0.  1.
         11    1    5    5    0    0 -0.35382661933E+02  0.40271461553E+02 -0.63261805494E+02  0.82920319678E+02  0.00000000000E+00 0. -1.
        -11    1    5    5    0    0 -0.12125885598E+03 -0.30365250770E+02 -0.82557367814E+02  0.14980479828E+03  0.00000000000E+00 0.  1.
          2    1    6    6  503    0  0.52025458304E+02  0.13910918142E+03 -0.27075808151E+02  0.15096725491E+03  0.00000000000E+00 0. -1.
         -2    1    6    6    0  503  0.23250270536E+03  0.33464884521E+03  0.37660016818E+02  0.40922565226E+03  0.00000000000E+00 0.  1.
<mgrwt>
<rscale>  0 0.61978601E+03</rscale>
<asrwt>0</asrwt>
<pdfrwt beam="1">  1        2 0.10801951E+00 0.61978601E+03</pdfrwt>
<pdfrwt beam="2">  1       -2 0.92793003E-01 0.61978601E+03</pdfrwt>
<totfact> 0.41175357E+01</totfact>
</mgrwt>
</event>
<event>
12    1  0.1335216E-007  0.6101846E+03  0.7818608E-02  0.9884499E-01
          2   -1    0    0  501    0  0.00000000000E+00  0.00000000000E+00  0.18817632998E+04  0.18817632998E+04  0.00000000000E+00 0. -1.
         -2   -1    0    0    0  501 -0.00000000000E+00 -0.00000000000E+00 -0.21604511866E+03  0.21604511866E+03  0.00000000000E+00 0.  1.
         23    2    1    2    0    0 -0.20574038880E+03  0.44307085780E+03  0.56647820261E+03  0.75350588672E+03  0.90734087680E+02 0.  0.
    5000000    2    1    2    0    0  0.20574038880E+03 -0.44307085780E+03  0.10992399785E+04  0.13443025317E+04  0.60014987614E+03 0.  0.
         23    2    4    4    0    0  0.37937081374E+03 -0.39242603818E+03  0.66636986747E+03  0.86613193562E+03  0.90638401708E+02 0.  0.
         23    2    4    4    0    0 -0.17363042494E+03 -0.50644819616E+02  0.43287011101E+03  0.47817059609E+03  0.92510343910E+02 0.  0.
          2    1    3    3  502    0 -0.13464211841E+03  0.29680725851E+03  0.43959597194E+03  0.54723639069E+03  0.00000000000E+00 0. -1.
         -2    1    3    3    0  502 -0.71098270389E+02  0.14626359929E+03  0.12688223068E+03  0.20626949603E+03  0.00000000000E+00 0.  1.
         11    1    5    5    0    0  0.26383548807E+03 -0.29168057819E+03  0.41541506628E+03  0.57206328475E+03  0.00000000000E+00 0. -1.
        -11    1    5    5    0    0  0.11553532567E+03 -0.10074545999E+03  0.25095480119E+03  0.29406865087E+03  0.00000000000E+00 0.  1.
          3    1    6    6  503    0 -0.10553693141E+03 -0.50819454880E+02  0.35935878541E+03  0.37796745566E+03  0.00000000000E+00 0. -1.
         -3    1    6    6    0  503 -0.68093493533E+02  0.17463526350E+00  0.73511325602E+02  0.10020314042E+03  0.00000000000E+00 0.  1.
<mgrwt>
<rscale>  0 0.61018462E+03</rscale>
<asrwt>0</asrwt>
<pdfrwt beam="1">  1        2 0.28950204E+00 0.61018462E+03</pdfrwt>
<pdfrwt beam="2">  1       -2 0.33237712E-01 0.61018462E+03</pdfrwt>
<totfact> 0.68579847E+01</totfact>
</mgrwt>
</event>
<event>
12    1  0.1335216E-007  0.2363376E+04  0.7818608E-02  0.8453344E-01
          1   -1    0    0  501    0  0.00000000000E+00  0.00000000000E+00  0.24358335161E+04  0.24358335161E+04  0.00000000000E+00 0. -1.
         -1   -1    0    0    0  501 -0.00000000000E+00 -0.00000000000E+00 -0.23713395842E+04  0.23713395842E+04  0.00000000000E+00 0.  1.
         23    2    1    2    0    0 -0.21862376733E+04 -0.86780509080E+03  0.27633875871E+03  0.23704256915E+04  0.99166574991E+02 0.  0.
    5000000    2    1    2    0    0  0.21862376733E+04  0.86780509080E+03 -0.21184482675E+03  0.24367474089E+04  0.60011570923E+03 0.  0.
         23    2    4    4    0    0  0.15870635209E+03 -0.13746126253E+02 -0.12297700749E+03  0.22211458127E+03  0.93994045886E+02 0.  0.
         23    2    4    4    0    0  0.20275313212E+04  0.88155121705E+03 -0.88867819261E+02  0.22146328276E+04  0.93194770221E+02 0.  0.
          4    1    3    3  502    0 -0.51096524571E+03 -0.16741970609E+03  0.88861679916E+02  0.54498737460E+03  0.00000000000E+00 0. -1.
         -4    1    3    3    0  502 -0.16752724275E+04 -0.70038538471E+03  0.18747707880E+03  0.18254383169E+04  0.00000000000E+00 0.  1.
         11    1    5    5    0    0  0.14652771117E+01 -0.35736871644E+01 -0.47045289308E+02  0.47203575321E+02  0.00000000000E+00 0.  1.
        -11    1    5    5    0    0  0.15724107497E+03 -0.10172439088E+02 -0.75931718184E+02  0.17491100595E+03  0.00000000000E+00 0. -1.
          2    1    6    6  503    0  0.44756928254E+03  0.16544916592E+03 -0.46692618970E+02  0.47944956966E+03  0.00000000000E+00 0. -1.
         -2    1    6    6    0  503  0.15799620386E+04  0.71610205114E+03 -0.42175200290E+02  0.17351832579E+04  0.00000000000E+00 0.  1.
<mgrwt>
<rscale>  0 0.23633765E+04</rscale>
<asrwt>0</asrwt>
<pdfrwt beam="1">  1        1 0.37474362E+00 0.23633765E+04</pdfrwt>
<pdfrwt beam="2">  1       -1 0.36482148E+00 0.23633765E+04</pdfrwt>
<totfact> 0.15846288E-02</totfact>
</mgrwt>
</event>
<event>
12    1  0.1335216E-007  0.5484970E+03  0.7818608E-02  0.1001842E+00
          2   -1    0    0  501    0  0.00000000000E+00  0.00000000000E+00  0.11802660639E+04  0.11802660639E+04  0.00000000000E+00 0. -1.
         -2   -1    0    0    0  501 -0.00000000000E+00 -0.00000000000E+00 -0.44656556082E+03  0.44656556082E+03  0.00000000000E+00 0.  1.
         23    2    1    2    0    0 -0.75468369830E+02 -0.39356968657E+03 -0.19179674828E+03  0.45329494851E+03  0.89987469493E+02 0.  0.
    5000000    2    1    2    0    0  0.75468369830E+02  0.39356968657E+03  0.92549725138E+03  0.11735366762E+04  0.60004216112E+03 0.  0.
         23    2    4    4    0    0  0.83041941818E+01  0.53225200436E+03  0.73593404468E+03  0.91280262596E+03  0.90821583744E+02 0.  0.
         23    2    4    4    0    0  0.67164175648E+02 -0.13868231778E+03  0.18956320670E+03  0.26073405027E+03  0.91127514373E+02 0.  0.
          2    1    3    3  502    0 -0.32872454418E+02 -0.96191971068E+02 -0.99705715820E+01  0.10214159709E+03  0.00000000000E+00 0. -1.
         -2    1    3    3    0  502 -0.42595915412E+02 -0.29737771550E+03 -0.18182617670E+03  0.35115335143E+03  0.00000000000E+00 0.  1.
         11    1    5    5    0    0  0.24396730524E+02  0.30706961890E+03  0.35514985807E+03  0.47012591186E+03  0.00000000000E+00 0. -1.
        -11    1    5    5    0    0 -0.16092536342E+02  0.22518238546E+03  0.38078418660E+03  0.44267671411E+03  0.00000000000E+00 0.  1.
          3    1    6    6  503    0  0.68400619962E+02 -0.14198758285E+03  0.13928370110E+03  0.21033085339E+03  0.00000000000E+00 0. -1.
         -3    1    6    6    0  503 -0.12364443137E+01  0.33052650686E+01  0.50279505600E+02  0.50403196874E+02  0.00000000000E+00 0.  1.
<mgrwt>
<rscale>  0 0.54849695E+03</rscale>
<asrwt>0</asrwt>
<pdfrwt beam="1">  1        2 0.18157939E+00 0.54849695E+03</pdfrwt>
<pdfrwt beam="2">  1       -2 0.68702394E-01 0.54849695E+03</pdfrwt>
<totfact> 0.39270934E+01</totfact>
</mgrwt>
</event>
<event>
12    1  0.1335216E-007  0.6098075E+03  0.7818608E-02  0.9885265E-01
         -2   -1    0    0    0  501 -0.00000000000E+00  0.00000000000E+00  0.42558754419E+03  0.42558754419E+03  0.00000000000E+00 0.  1.
          2   -1    0    0  501    0  0.00000000000E+00 -0.00000000000E+00 -0.11243068937E+04  0.11243068937E+04  0.00000000000E+00 0. -1.
         23    2    1    2    0    0  0.49107791906E+03 -0.60395434901E+02  0.11479743895E+01  0.50365296750E+03  0.94126843533E+02 0.  0.
    5000000    2    1    2    0    0 -0.49107791906E+03  0.60395434901E+02 -0.69986732394E+03  0.10462414704E+04  0.60000151015E+03 0.  0.
         23    2    4    4    0    0 -0.50695681085E+03 -0.12620756385E+03 -0.63751582969E+03  0.82921185904E+03  0.90732115667E+02 0.  0.
         23    2    4    4    0    0  0.15878891788E+02  0.18660299876E+03 -0.62351494248E+02  0.21702961140E+03  0.90229291470E+02 0.  0.
          2    1    3    3  502    0  0.40454656953E+02 -0.11123815367E+02 -0.26293259571E+02  0.49514180154E+02  0.00000000000E+00 0. -1.
         -2    1    3    3    0  502  0.45062326211E+03 -0.49271619534E+02  0.27441233960E+02  0.45413878734E+03  0.00000000000E+00 0.  1.
         13    1    5    5    0    0 -0.23669345064E+03 -0.10280955031E+03 -0.33521967074E+03  0.42304352124E+03  0.00000000000E+00 0. -1.
        -13    1    5    5    0    0 -0.27026336021E+03 -0.23398013541E+02 -0.30229615895E+03  0.40616833779E+03  0.00000000000E+00 0.  1.
          4    1    6    6  503    0 -0.19735249758E+02  0.47680985128E+02 -0.51972700182E+02  0.73240139200E+02  0.00000000000E+00 0. -1.
         -4    1    6    6    0  503  0.35614141546E+02  0.13892201363E+03 -0.10378794066E+02  0.14378947220E+03  0.00000000000E+00 0.  1.
<mgrwt>
<rscale>  0 0.60980751E+03</rscale>
<asrwt>0</asrwt>
<pdfrwt beam="1">  1        2 0.17297029E+00 0.60980751E+03</pdfrwt>
<pdfrwt beam="2">  1       -2 0.65475008E-01 0.60980751E+03</pdfrwt>
<totfact> 0.46675829E+01</totfact>
</mgrwt>
</event>
<event>
12    1  0.1335216E-007  0.7971339E+03  0.7818608E-02  0.9564175E-01
          1   -1    0    0  501    0  0.00000000000E+00  0.00000000000E+00  0.62548580197E+03  0.62548580197E+03  0.00000000000E+00 0. -1.
         -1   -1    0    0    0  501 -0.00000000000E+00 -0.00000000000E+00 -0.13510725485E+04  0.13510725485E+04  0.00000000000E+00 0.  1.
         23    2    1    2    0    0  0.47566453739E+03  0.63314289865E+03 -0.10288709199E+03  0.80398723438E+03  0.93182815482E+02 0.  0.
    5000000    2    1    2    0    0 -0.47566453739E+03 -0.63314289865E+03 -0.62269965457E+03  0.11725711161E+04  0.60003456596E+03 0.  0.
         23    2    4    4    0    0 -0.96282489682E+02 -0.17078976521E+03 -0.51397176905E+03  0.55772175415E+03  0.91908182170E+02 0.  0.
         23    2    4    4    0    0 -0.37938204771E+03 -0.46235313344E+03 -0.10872788552E+03  0.61484936199E+03  0.92286655167E+02 0.  0.
          2    1    3    3  502    0  0.24216905124E+02  0.36333879407E+02  0.15549200984E+02  0.46350695117E+02  0.00000000000E+00 0. -1.
         -2    1    3    3    0  502  0.45144763227E+03  0.59680901924E+03 -0.11843629298E+03  0.75763653926E+03  0.00000000000E+00 0.  1.
         11    1    5    5    0    0 -0.48393753241E+02 -0.34711325031E+02 -0.75701185186E+02  0.96319784451E+02  0.00000000000E+00 0. -1.
        -11    1    5    5    0    0 -0.47888736441E+02 -0.13607844017E+03 -0.43827058386E+03  0.46140196970E+03  0.00000000000E+00 0.  1.
          3    1    6    6  503    0 -0.52689108687E+02 -0.53028115704E+02  0.16094534849E+02  0.76466707013E+02  0.00000000000E+00 0. -1.
         -3    1    6    6    0  503 -0.32669293902E+03 -0.40932501774E+03 -0.12482242037E+03  0.53838265498E+03  0.00000000000E+00 0.  1.
<mgrwt>
<rscale>  0 0.79713393E+03</rscale>
<asrwt>0</asrwt>
<pdfrwt beam="1">  1        1 0.96228585E-01 0.79713393E+03</pdfrwt>
<pdfrwt beam="2">  1       -1 0.20785732E+00 0.79713393E+03</pdfrwt>
<totfact> 0.44153911E+00</totfact>
</mgrwt>
</event>
<event>
12    1  0.1335216E-007  0.6160236E+03  0.7818608E-02  0.9872709E-01
          1   -1    0    0  501    0  0.00000000000E+00  0.00000000000E+00  0.33455322278E+03  0.33455322278E+03  0.00000000000E+00 0. -1.
         -1   -1    0    0    0  501 -0.00000000000E+00 -0.00000000000E+00 -0.29703006871E+04  0.29703006871E+04  0.00000000000E+00 0.  1.
         23    2    1    2    0    0 -0.16616359408E+03 -0.53683429533E+03 -0.23734726848E+04  0.24408314330E+04  0.92109165942E+02 0.  0.
    5000000    2    1    2    0    0  0.16616359408E+03  0.53683429533E+03 -0.26227477959E+03  0.86402247689E+03  0.60161896573E+03 0.  0.
         23    2    4    4    0    0 -0.88133757715E+02  0.30554737949E+03  0.11052494828E+03  0.34861254899E+03  0.90488589116E+02 0.  0.
         23    2    4    4    0    0  0.25429735180E+03  0.23128691584E+03 -0.37279972788E+03  0.51540992790E+03  0.92233270035E+02 0.  0.
          2    1    3    3  502    0 -0.11123398458E+03 -0.41664018469E+03 -0.16520496091E+04  0.17074044494E+04  0.00000000000E+00 0. -1.
         -2    1    3    3    0  502 -0.54929609499E+02 -0.12019411063E+03 -0.72142307568E+03  0.73342698366E+03  0.00000000000E+00 0.  1.
         13    1    5    5    0    0 -0.73267726749E+02  0.13395973782E+03  0.19852606718E+02  0.15397239081E+03  0.00000000000E+00 0. -1.
        -13    1    5    5    0    0 -0.14866030966E+02  0.17158764167E+03  0.90672341566E+02  0.19464015818E+03  0.00000000000E+00 0.  1.
          2    1    6    6  503    0  0.38355263236E+02  0.34716582310E+02 -0.11412391698E+03  0.12530217768E+03  0.00000000000E+00 0. -1.
         -2    1    6    6    0  503  0.21594208856E+03  0.19657033353E+03 -0.25867581090E+03  0.39010775022E+03  0.00000000000E+00 0.  1.
<mgrwt>
<rscale>  0 0.61602358E+03</rscale>
<asrwt>0</asrwt>
<pdfrwt beam="1">  1        1 0.51469724E-01 0.61602358E+03</pdfrwt>
<pdfrwt beam="2">  1       -1 0.45696936E+00 0.61602358E+03</pdfrwt>
<totfact> 0.24348041E-01</totfact>
</mgrwt>
</event>
<event>
12    1  0.1335216E-007  0.5236189E+03  0.7818608E-02  0.1007792E+00
          1   -1    0    0  501    0  0.00000000000E+00  0.00000000000E+00  0.76026998685E+03  0.76026998685E+03  0.00000000000E+00 0. -1.
         -1   -1    0    0    0  501 -0.00000000000E+00 -0.00000000000E+00 -0.40072625866E+03  0.40072625866E+03  0.00000000000E+00 0.  1.
         23    2    1    2    0    0  0.26008573049E+03 -0.26872338460E+03  0.21371512535E+03  0.43901507036E+03  0.84871859721E+02 0.  0.
    5000000    2    1    2    0    0 -0.26008573049E+03  0.26872338460E+03  0.14582860284E+03  0.72198117515E+03  0.60011164898E+03 0.  0.
         23    2    4    4    0    0  0.50423179380E+02  0.32912529584E+03  0.18128877333E+03  0.38996035226E+03  0.91309909778E+02 0.  0.
         23    2    4    4    0    0 -0.31050890987E+03 -0.60401911239E+02 -0.35460170489E+02  0.33202082289E+03  0.94425786489E+02 0.  0.
          2    1    3    3  502    0  0.17131577180E+03 -0.12768191048E+03  0.14780063405E+03  0.25980144602E+03  0.00000000000E+00 0. -1.
         -2    1    3    3    0  502  0.88769958685E+02 -0.14104147411E+03  0.65914491305E+02  0.17921362434E+03  0.00000000000E+00 0.  1.
         13    1    5    5    0    0  0.61833047005E+02  0.16720260188E+03  0.62865115661E+02  0.18902925314E+03  0.00000000000E+00 0.  1.
        -13    1    5    5    0    0 -0.11409867625E+02  0.16192269396E+03  0.11842365767E+03  0.20093109912E+03  0.00000000000E+00 0. -1.
          4    1    6    6  503    0 -0.14644249827E+03  0.12132894618E+02 -0.40976919181E+02  0.15255071398E+03  0.00000000000E+00 0.  1.
         -4    1    6    6    0  503 -0.16406641160E+03 -0.72534805857E+02  0.55167486919E+01  0.17947010891E+03  0.00000000000E+00 0. -1.
<mgrwt>
<rscale>  0 0.52361889E+03</rscale>
<asrwt>0</asrwt>
<pdfrwt beam="1">  1        1 0.11696461E+00 0.52361889E+03</pdfrwt>
<pdfrwt beam="2">  1       -1 0.61650194E-01 0.52361889E+03</pdfrwt>
<totfact> 0.66845684E+01</totfact>
</mgrwt>
</event>
<event>
12    1  0.1335216E-007  0.5788083E+03  0.7818608E-02  0.9950374E-01
          2   -1    0    0  501    0  0.00000000000E+00  0.00000000000E+00  0.34220253680E+04  0.34220253680E+04  0.00000000000E+00 0. -1.
         -2   -1    0    0    0  501 -0.00000000000E+00 -0.00000000000E+00 -0.53289700022E+03  0.53289700022E+03  0.00000000000E+00 0.  1.
         23    2    1    2    0    0  0.51524987700E+03 -0.19039001507E+03 -0.32152150045E+03  0.64276924095E+03  0.89696311368E+02 0.  0.
    5000000    2    1    2    0    0 -0.51524987700E+03  0.19039001507E+03  0.32106498683E+04  0.33121531273E+04  0.60029573416E+03 0.  0.
         23    2    4    4    0    0 -0.42657113701E+03  0.18670114881E+03  0.31137192432E+04  0.31496652294E+04  0.91232002383E+02 0.  0.
         23    2    4    4    0    0 -0.88678739988E+02  0.36888662542E+01  0.96930625086E+02  0.16248789786E+03  0.95547078505E+02 0.  0.
          3    1    3    3  502    0  0.25681810639E+03 -0.52821333029E+02 -0.12752584582E+03  0.29156212776E+03  0.00000000000E+00 0. -1.
         -3    1    3    3    0  502  0.25843177061E+03 -0.13756868204E+03 -0.19399565463E+03  0.35120711319E+03  0.00000000000E+00 0.  1.
         11    1    5    5    0    0 -0.83696139850E+02  0.78796453571E+02  0.72881589341E+03  0.73782554267E+03  0.00000000000E+00 0. -1.
        -11    1    5    5    0    0 -0.34287499716E+03  0.10790469524E+03  0.23849033498E+04  0.24118396868E+04  0.00000000000E+00 0.  1.
          1    1    6    6  503    0  0.86047970524E+00  0.33780029122E+02  0.39322659135E+02  0.51846912293E+02  0.00000000000E+00 0. -1.
         -1    1    6    6    0  503 -0.89539219693E+02 -0.30091162868E+02  0.57607965951E+02  0.11064098557E+03  0.00000000000E+00 0.  1.
<mgrwt>
<rscale>  0 0.57880833E+03</rscale>
<asrwt>0</asrwt>
<pdfrwt beam="1">  1        2 0.52646543E+00 0.57880833E+03</pdfrwt>
<pdfrwt beam="2">  1       -2 0.81984156E-01 0.57880833E+03</pdfrwt>
<totfact> 0.13668697E+00</totfact>
</mgrwt>
</event>
<event>
12    1  0.1335216E-007  0.1257270E+04  0.7818608E-02  0.9064154E-01
          2   -1    0    0  501    0  0.00000000000E+00  0.00000000000E+00  0.27122960501E+04  0.27122960501E+04  0.00000000000E+00 0. -1.
         -2   -1    0    0    0  501 -0.00000000000E+00 -0.00000000000E+00 -0.62030821557E+03  0.62030821557E+03  0.00000000000E+00 0.  1.
         23    2    1    2    0    0 -0.42964377924E+03  0.11390907591E+04  0.80629128670E+03  0.14630646895E+04  0.91274926014E+02 0.  0.
    5000000    2    1    2    0    0  0.42964377924E+03 -0.11390907591E+04  0.12856965479E+04  0.18695395762E+04  0.60003423188E+03 0.  0.
         23    2    4    4    0    0 -0.21175118765E+02 -0.50376447763E+03  0.79009950460E+03  0.94164345679E+03  0.90598774647E+02 0.  0.
         23    2    4    4    0    0  0.45081889800E+03 -0.63532628145E+03  0.49559704326E+03  0.92789611944E+03  0.92182517201E+02 0.  0.
          3    1    3    3  502    0 -0.27391003441E+03  0.78468346049E+03  0.59398505027E+03  0.10215542472E+04  0.00000000000E+00 0. -1.
         -3    1    3    3    0  502 -0.15573374482E+03  0.35440729859E+03  0.21230623643E+03  0.44151044223E+03  0.00000000000E+00 0.  1.
         13    1    5    5    0    0  0.25066151622E+02 -0.35922080097E+03  0.57318985921E+03  0.67691543823E+03  0.00000000000E+00 0. -1.
        -13    1    5    5    0    0 -0.46241270386E+02 -0.14454367666E+03  0.21690964539E+03  0.26472801856E+03  0.00000000000E+00 0.  1.
          3    1    6    6  503    0  0.60900335092E+02 -0.15003776319E+03  0.10343105877E+03  0.19214100321E+03  0.00000000000E+00 0. -1.
         -3    1    6    6    0  503  0.38991856291E+03 -0.48528851827E+03  0.39216598449E+03  0.73575511622E+03  0.00000000000E+00 0.  1.
<mgrwt>
<rscale>  0 0.12572701E+04</rscale>
<asrwt>0</asrwt>
<pdfrwt beam="1">  1        2 0.41727631E+00 0.12572701E+04</pdfrwt>
<pdfrwt beam="2">  1       -2 0.95432035E-01 0.12572701E+04</pdfrwt>
<totfact> 0.23597606E+00</totfact>
</mgrwt>
</event>
<event>
12    1  0.1335216E-007  0.6012203E+03  0.7818608E-02  0.9902878E-01
         -1   -1    0    0    0  501 -0.00000000000E+00  0.00000000000E+00  0.51776657651E+03  0.51776657651E+03  0.00000000000E+00 0.  1.
          1   -1    0    0  501    0  0.00000000000E+00 -0.00000000000E+00 -0.99757138865E+03  0.99757138865E+03  0.00000000000E+00 0. -1.
         23    2    1    2    0    0  0.23246772404E+03 -0.52794083762E+03 -0.71970479394E+02  0.58849116066E+03  0.91538655880E+02 0.  0.
    5000000    2    1    2    0    0 -0.23246772404E+03  0.52794083762E+03 -0.40783433275E+03  0.92684680451E+03  0.59996115317E+03 0.  0.
         23    2    4    4    0    0 -0.80461972339E+02  0.33650368102E+02  0.12509577341E+03  0.17860067599E+03  0.92966513723E+02 0.  0.
         23    2    4    4    0    0 -0.15200575170E+03  0.49429046952E+03 -0.53293010615E+03  0.74824612852E+03  0.91809335004E+02 0.  0.
          3    1    3    3  502    0  0.21405913685E+03 -0.39305647047E+03 -0.64063154038E+02  0.45212696309E+03  0.00000000000E+00 0. -1.
         -3    1    3    3    0  502  0.18408587188E+02 -0.13488436715E+03 -0.79073253557E+01  0.13636419757E+03  0.00000000000E+00 0.  1.
         13    1    5    5    0    0 -0.78158101183E+01  0.22223153791E+02  0.97093233460E+02  0.99910216875E+02  0.00000000000E+00 0. -1.
        -13    1    5    5    0    0 -0.72646162220E+02  0.11427214311E+02  0.28002539946E+02  0.78690459114E+02  0.00000000000E+00 0.  1.
          4    1    6    6  503    0 -0.10884596724E+03  0.43435565813E+03 -0.48549505945E+03  0.66046781533E+03  0.00000000000E+00 0. -1.
         -4    1    6    6    0  503 -0.43159784462E+02  0.59934811388E+02 -0.47435046700E+02  0.87778313189E+02  0.00000000000E+00 0.  1.
<mgrwt>
<rscale>  0 0.60122028E+03</rscale>
<asrwt>0</asrwt>
<pdfrwt beam="1">  1        1 0.15347252E+00 0.60122028E+03</pdfrwt>
<pdfrwt beam="2">  1       -1 0.79656397E-01 0.60122028E+03</pdfrwt>
<totfact> 0.25073948E+01</totfact>
</mgrwt>
</event>
<event>
12    1  0.1541683E-007  0.7799721E+03  0.7818608E-02  0.9589468E-01
          2   -1    0    0  501    0  0.00000000000E+00  0.00000000000E+00  0.84802407871E+03  0.84802407871E+03  0.00000000000E+00 0. -1.
         -2   -1    0    0    0  501 -0.00000000000E+00 -0.00000000000E+00 -0.81758002284E+03  0.81758002284E+03  0.00000000000E+00 0.  1.
         23    2    1    2    0    0  0.66119838494E+03 -0.28503911863E+03  0.57358428620E+02  0.72802631205E+03  0.91113765700E+02 0.  0.
    5000000    2    1    2    0    0 -0.66119838494E+03  0.28503911863E+03 -0.26914372750E+02  0.93757778950E+03  0.59991426429E+03 0.  0.
         23    2    4    4    0    0 -0.77630948093E+00  0.14043813294E+03 -0.17047172853E+03  0.24032607667E+03  0.94723497917E+02 0.  0.
         23    2    4    4    0    0 -0.66042207546E+03  0.14460098569E+03  0.14355735578E+03  0.69725171283E+03  0.92111203569E+02 0.  0.
          3    1    3    3  502    0  0.34194806774E+03 -0.19570042477E+03  0.40845390503E+02  0.39610034487E+03  0.00000000000E+00 0. -1.
         -3    1    3    3    0  502  0.31925031721E+03 -0.89338693860E+02  0.16513038117E+02  0.33192596717E+03  0.00000000000E+00 0.  1.
         13    1    5    5    0    0 -0.29177201827E+02  0.56103738895E+02 -0.12569848693E+03  0.14070909082E+03  0.00000000000E+00 0.  1.
        -13    1    5    5    0    0  0.28400892346E+02  0.84334394045E+02 -0.44773241606E+02  0.99616985845E+02  0.00000000000E+00 0. -1.
          1    1    6    6  503    0 -0.37798801254E+03  0.36293969416E+02  0.74032562141E+02  0.38687596216E+03  0.00000000000E+00 0. -1.
         -1    1    6    6    0  503 -0.28243406292E+03  0.10830701627E+03  0.69524793643E+02  0.31037575067E+03  0.00000000000E+00 0.  1.
<mgrwt>
<rscale>  0 0.77997212E+03</rscale>
<asrwt>0</asrwt>
<pdfrwt beam="1">  1        2 0.13046524E+00 0.77997212E+03</pdfrwt>
<pdfrwt beam="2">  1       -2 0.12578154E+00 0.77997212E+03</pdfrwt>
<totfact> 0.15213483E+01</totfact>
</mgrwt>
</event>
<event>
12    1  0.1335216E-007  0.9177327E+03  0.7818608E-02  0.9403682E-01
         -1   -1    0    0    0  501 -0.00000000000E+00  0.00000000000E+00  0.10563511502E+04  0.10563511502E+04  0.00000000000E+00 0.  1.
          1   -1    0    0  501    0  0.00000000000E+00 -0.00000000000E+00 -0.17303436527E+04  0.17303436527E+04  0.00000000000E+00 0. -1.
         23    2    1    2    0    0 -0.27411519426E+03 -0.78354124816E+03  0.68830244100E+03  0.10822969357E+04  0.92360053738E+02 0.  0.
    5000000    2    1    2    0    0  0.27411519426E+03  0.78354124816E+03 -0.13622949435E+04  0.17043978671E+04  0.60004045622E+03 0.  0.
         23    2    4    4    0    0  0.44204567838E+03  0.47879768583E+03 -0.78556137017E+03  0.10243061827E+04  0.86283740912E+02 0.  0.
         23    2    4    4    0    0 -0.16793048412E+03  0.30474356234E+03 -0.57673357330E+03  0.68009168438E+03  0.93988288150E+02 0.  0.
          3    1    3    3  502    0 -0.17669053411E+03 -0.48379936509E+03  0.36863226467E+03  0.63338070468E+03  0.00000000000E+00 0. -1.
         -3    1    3    3    0  502 -0.97424660154E+02 -0.29974188307E+03  0.31967017633E+03  0.44891623106E+03  0.00000000000E+00 0.  1.
         11    1    5    5    0    0  0.41262883039E+03  0.40649054363E+03 -0.69659007476E+03  0.90594417376E+03  0.00000000000E+00 0.  1.
        -11    1    5    5    0    0  0.29416847988E+02  0.72307142196E+02 -0.88971295410E+02  0.11836200896E+03  0.00000000000E+00 0. -1.
          1    1    6    6  503    0 -0.10955041663E+03  0.19848173017E+03 -0.45462113430E+03  0.50801246712E+03  0.00000000000E+00 0. -1.
         -1    1    6    6    0  503 -0.58380067484E+02  0.10626183216E+03 -0.12211243900E+03  0.17207921726E+03  0.00000000000E+00 0.  1.
<mgrwt>
<rscale>  0 0.91773273E+03</rscale>
<asrwt>0</asrwt>
<pdfrwt beam="1">  1        1 0.26620672E+00 0.91773273E+03</pdfrwt>
<pdfrwt beam="2">  1       -1 0.16251556E+00 0.91773273E+03</pdfrwt>
<totfact> 0.12979796E+00</totfact>
</mgrwt>
</event>
<event>
12    1  0.1474311E-007  0.6950359E+03  0.7818608E-02  0.9725759E-01
          1   -1    0    0  501    0  0.00000000000E+00  0.00000000000E+00  0.13878921431E+04  0.13878921431E+04  0.00000000000E+00 0. -1.
         -1   -1    0    0    0  501 -0.00000000000E+00 -0.00000000000E+00 -0.94005115735E+03  0.94005115735E+03  0.00000000000E+00 0.  1.
         23    2    1    2    0    0  0.67555373269E+03  0.13614800560E+03  0.10312436610E+04  0.12438409142E+04  0.93635497467E+02 0.  0.
    5000000    2    1    2    0    0 -0.67555373269E+03 -0.13614800560E+03 -0.58340267515E+03  0.10841023863E+04  0.60000848115E+03 0.  0.
         23    2    4    4    0    0 -0.43152644910E+03 -0.63641268303E+02 -0.44834074507E+01  0.44560105112E+03  0.90966524155E+02 0.  0.
         23    2    4    4    0    0 -0.24402728359E+03 -0.72506737294E+02 -0.57891926770E+03  0.63850133518E+03  0.87919818170E+02 0.  0.
          1    1    3    3  502    0  0.34683166136E+03  0.76083896826E+02  0.61397883255E+03  0.70926085998E+03  0.00000000000E+00 0. -1.
         -1    1    3    3    0  502  0.32872207133E+03  0.60064108771E+02  0.41726482840E+03  0.53458005421E+03  0.00000000000E+00 0.  1.
         11    1    5    5    0    0 -0.98414184691E+02 -0.29014078902E+02  0.34925049289E+02  0.10838324405E+03  0.00000000000E+00 0.  1.
        -11    1    5    5    0    0 -0.33311226441E+03 -0.34627189401E+02 -0.39408456740E+02  0.33721780707E+03  0.00000000000E+00 0. -1.
          2    1    6    6  503    0 -0.18908820193E+03 -0.25085978552E+02 -0.35338225788E+03  0.40157524153E+03  0.00000000000E+00 0. -1.
         -2    1    6    6    0  503 -0.54939081661E+02 -0.47420758742E+02 -0.22553700982E+03  0.23692609365E+03  0.00000000000E+00 0.  1.
<mgrwt>
<rscale>  0 0.69503589E+03</rscale>
<asrwt>0</asrwt>
<pdfrwt beam="1">  1        1 0.21352187E+00 0.69503589E+03</pdfrwt>
<pdfrwt beam="2">  1       -1 0.14462326E+00 0.69503589E+03</pdfrwt>
<totfact> 0.31759809E+00</totfact>
</mgrwt>
</event>
<event>
12    1  0.1335216E-007  0.2065927E+04  0.7818608E-02  0.8576403E-01
          2   -1    0    0  501    0  0.00000000000E+00  0.00000000000E+00  0.24984502226E+04  0.24984502226E+04  0.00000000000E+00 0. -1.
         -2   -1    0    0    0  501 -0.00000000000E+00 -0.00000000000E+00 -0.18837951260E+04  0.18837951260E+04  0.00000000000E+00 0.  1.
         23    2    1    2    0    0 -0.55195150367E+03 -0.19607507131E+04 -0.31698770552E+03  0.20633637895E+04  0.88289869464E+02 0.  0.
    5000000    2    1    2    0    0  0.55195150367E+03  0.19607507131E+04  0.93164280208E+03  0.23188815592E+04  0.60004962582E+03 0.  0.
         23    2    4    4    0    0  0.61449345024E+03  0.16105943458E+04  0.90712392695E+03  0.19505987642E+04  0.10171220621E+03 0.  0.
         23    2    4    4    0    0 -0.62541946572E+02  0.35015636730E+03  0.24518875131E+02  0.36828279497E+03  0.92250014623E+02 0.  0.
          3    1    3    3  502    0 -0.30725303101E+03 -0.12389526699E+04 -0.18319659065E+03  0.12895616054E+04  0.00000000000E+00 0. -1.
         -3    1    3    3    0  502 -0.24469847266E+03 -0.72179804320E+03 -0.13379111488E+03  0.77380218409E+03  0.00000000000E+00 0.  1.
         13    1    5    5    0    0  0.42400667571E+03  0.98163857343E+03  0.58139694874E+03  0.12171353096E+04  0.00000000000E+00 0. -1.
        -13    1    5    5    0    0  0.19048677453E+03  0.62895577236E+03  0.32572697821E+03  0.73346345457E+03  0.00000000000E+00 0.  1.
          2    1    6    6  503    0 -0.85758345409E+02  0.26835487119E+03  0.28464291941E+02  0.28315904827E+03  0.00000000000E+00 0. -1.
         -2    1    6    6    0  503  0.23216398837E+02  0.81801496102E+02 -0.39454168103E+01  0.85123746706E+02  0.00000000000E+00 0.  1.
<mgrwt>
<rscale>  0 0.20659267E+04</rscale>
<asrwt>0</asrwt>
<pdfrwt beam="1">  1        2 0.38437696E+00 0.20659267E+04</pdfrwt>
<pdfrwt beam="2">  1       -2 0.28981464E+00 0.20659267E+04</pdfrwt>
<totfact> 0.11282884E-01</totfact>
</mgrwt>
</event>
<event>
12    1  0.1335216E-007  0.7262355E+03  0.7818608E-02  0.9673389E-01
          2   -1    0    0  501    0  0.00000000000E+00  0.00000000000E+00  0.18298397641E+04  0.18298397641E+04  0.00000000000E+00 0. -1.
         -2   -1    0    0    0  501 -0.00000000000E+00 -0.00000000000E+00 -0.56206791488E+03  0.56206791488E+03  0.00000000000E+00 0.  1.
         23    2    1    2    0    0 -0.18284900489E+03 -0.57738592709E+03  0.14018249177E+04  0.15298333103E+04  0.92024941462E+02 0.  0.
    5000000    2    1    2    0    0  0.18284900489E+03  0.57738592709E+03 -0.13405306854E+03  0.86207436867E+03  0.59865994065E+03 0.  0.
         23    2    4    4    0    0  0.21139676198E+03 -0.28680540509E+02 -0.83714204586E+02  0.24677121054E+03  0.91524848656E+02 0.  0.
         23    2    4    4    0    0 -0.28547757085E+02  0.60606646760E+03 -0.50338863954E+02  0.61530315813E+03  0.89064232983E+02 0.  0.
          3    1    3    3  502    0 -0.13479564809E+03 -0.27357351520E+03  0.69035329642E+03  0.75471849642E+03  0.00000000000E+00 0. -1.
         -3    1    3    3    0  502 -0.48053356808E+02 -0.30381241189E+03  0.71147162131E+03  0.77511481385E+03  0.00000000000E+00 0.  1.
         11    1    5    5    0    0  0.20027957070E+03 -0.51171769860E+02 -0.78688896060E+02  0.22118408359E+03  0.00000000000E+00 0. -1.
        -11    1    5    5    0    0  0.11117191280E+02  0.22491229351E+02 -0.50253085265E+01  0.25587126949E+02  0.00000000000E+00 0.  1.
          1    1    6    6  503    0 -0.37719237426E+02  0.38490284598E+03 -0.70177902423E+02  0.39306218300E+03  0.00000000000E+00 0. -1.
         -1    1    6    6    0  503  0.91714803413E+01  0.22116362162E+03  0.19839038469E+02  0.22224097513E+03  0.00000000000E+00 0.  1.
<mgrwt>
<rscale>  0 0.72623550E+03</rscale>
<asrwt>0</asrwt>
<pdfrwt beam="1">  1        2 0.28151381E+00 0.72623550E+03</pdfrwt>
<pdfrwt beam="2">  1       -2 0.86471988E-01 0.72623550E+03</pdfrwt>
<totfact> 0.99603798E+00</totfact>
</mgrwt>
</event>
<event>
12    1  0.1335216E-007  0.1052253E+04  0.7818608E-02  0.9253021E-01
         -2   -1    0    0    0  501 -0.00000000000E+00  0.00000000000E+00  0.10736285690E+04  0.10736285690E+04  0.00000000000E+00 0.  1.
          2   -1    0    0  501    0  0.00000000000E+00 -0.00000000000E+00 -0.13812325040E+04  0.13812325040E+04  0.00000000000E+00 0. -1.
         23    2    1    2    0    0 -0.40718993963E+03 -0.91592900392E+03  0.40673674467E+03  0.10855288144E+04  0.90600443219E+02 0.  0.
    5000000    2    1    2    0    0  0.40718993963E+03  0.91592900392E+03 -0.71434067966E+03  0.13693322586E+04  0.60004886523E+03 0.  0.
         23    2    4    4    0    0  0.32039268079E+03  0.92280176233E+03 -0.75393656787E+03  0.12380230437E+04  0.10033018417E+03 0.  0.
         23    2    4    4    0    0  0.86797258839E+02 -0.68727584042E+01  0.39595888217E+02  0.13130921491E+03  0.89962640066E+02 0.  0.
          4    1    3    3  502    0 -0.18766181211E+03 -0.50958748195E+03  0.24980074268E+03  0.59774306230E+03  0.00000000000E+00 0. -1.
         -4    1    3    3    0  502 -0.21952812752E+03 -0.40634152197E+03  0.15693600199E+03  0.48778575212E+03  0.00000000000E+00 0.  1.
         11    1    5    5    0    0  0.97765105653E+02  0.25301964401E+03 -0.15551244768E+03  0.31266767905E+03  0.00000000000E+00 0. -1.
        -11    1    5    5    0    0  0.22262757514E+03  0.66978211832E+03 -0.59842412019E+03  0.92535536464E+03  0.00000000000E+00 0.  1.
          1    1    6    6  503    0  0.99546245598E+02 -0.22822671993E+02  0.22267217440E+02  0.10452826576E+03  0.00000000000E+00 0. -1.
         -1    1    6    6    0  503 -0.12748986759E+02  0.15949913589E+02  0.17328670777E+02  0.26780949158E+02  0.00000000000E+00 0.  1.
<mgrwt>
<rscale>  0 0.10522527E+04</rscale>
<asrwt>0</asrwt>
<pdfrwt beam="1">  1        2 0.21249731E+00 0.10522527E+04</pdfrwt>
<pdfrwt beam="2">  1       -2 0.16517363E+00 0.10522527E+04</pdfrwt>
<totfact> 0.33765309E+00</totfact>
</mgrwt>
</event>
<event>
12    1  0.1335216E-007  0.6204735E+03  0.7818608E-02  0.9863817E-01
         -1   -1    0    0    0  501 -0.00000000000E+00  0.00000000000E+00  0.11453229196E+04  0.11453229196E+04  0.00000000000E+00 0.  1.
          1   -1    0    0  501    0  0.00000000000E+00 -0.00000000000E+00 -0.47878038949E+03  0.47878038949E+03  0.00000000000E+00 0. -1.
         23    2    1    2    0    0 -0.52316675376E+03  0.22656641028E+03  0.53261983428E+03  0.78569734469E+03  0.92739630544E+02 0.  0.
    5000000    2    1    2    0    0  0.52316675376E+03 -0.22656641028E+03  0.13392269583E+03  0.83840596440E+03  0.59996123389E+03 0.  0.
         23    2    4    4    0    0  0.37776071214E+03  0.14511184825E+02  0.30670305054E+03  0.49533945900E+03  0.91546099364E+02 0.  0.
         23    2    4    4    0    0  0.14540604162E+03 -0.24107759510E+03 -0.17278035471E+03  0.34306650540E+03  0.92629651581E+02 0.  0.
          4    1    3    3  502    0 -0.19604470551E+03  0.13333284287E+03  0.20490268033E+03  0.31336285988E+03  0.00000000000E+00 0. -1.
         -4    1    3    3    0  502 -0.32712204825E+03  0.93233567404E+02  0.32771715395E+03  0.47233448481E+03  0.00000000000E+00 0.  1.
         13    1    5    5    0    0  0.23269074382E+03  0.36207715406E+02  0.23261548864E+03  0.33100747193E+03  0.00000000000E+00 0.  1.
        -13    1    5    5    0    0  0.14506996832E+03 -0.21696530582E+02  0.74087561901E+02  0.16433198708E+03  0.00000000000E+00 0. -1.
          2    1    6    6  503    0  0.11898719260E+03 -0.19676479245E+03 -0.92957606441E+02  0.24802308793E+03  0.00000000000E+00 0. -1.
         -2    1    6    6    0  503  0.26418849014E+02 -0.44312802650E+02 -0.79822748269E+02  0.95043417463E+02  0.00000000000E+00 0.  1.
<mgrwt>
<rscale>  0 0.62047352E+03</rscale>
<asrwt>0</asrwt>
<pdfrwt beam="1">  1        1 0.73658521E-01 0.62047352E+03</pdfrwt>
<pdfrwt beam="2">  1       -1 0.17620353E+00 0.62047352E+03</pdfrwt>
<totfact> 0.10934239E+01</totfact>
</mgrwt>
</event>
<event>
12    1  0.1335216E-007  0.7975082E+03  0.7818608E-02  0.9563631E-01
         -1   -1    0    0    0  501 -0.00000000000E+00  0.00000000000E+00  0.99298362415E+03  0.99298362415E+03  0.00000000000E+00 0.  1.
          1   -1    0    0  501    0  0.00000000000E+00 -0.00000000000E+00 -0.73162803352E+03  0.73162803352E+03  0.00000000000E+00 0. -1.
         23    2    1    2    0    0  0.70821946842E+03  0.22549092420E+03  0.90532657593E+02  0.75417160893E+03  0.90319883084E+02 0.  0.
    5000000    2    1    2    0    0 -0.70821946842E+03 -0.22549092420E+03  0.17082293303E+03  0.97044004873E+03  0.60012702104E+03 0.  0.
         23    2    4    4    0    0 -0.50803926038E+03  0.44247204505E+02  0.30110162816E+03  0.59879657675E+03  0.88506749215E+02 0.  0.
         23    2    4    4    0    0 -0.20018020804E+03 -0.26973812871E+03 -0.13027869513E+03  0.37164347198E+03  0.91189681933E+02 0.  0.
          1    1    3    3  502    0  0.56947981108E+03  0.16821398786E+03  0.37523750364E+02  0.59498843080E+03  0.00000000000E+00 0. -1.
         -1    1    3    3    0  502  0.13873965734E+03  0.57276936343E+02  0.53008907230E+02  0.15918317813E+03  0.00000000000E+00 0.  1.
         13    1    5    5    0    0 -0.69256568736E+02  0.28318976547E+02  0.19997912946E+02  0.77449036585E+02  0.00000000000E+00 0.  1.
        -13    1    5    5    0    0 -0.43878269164E+03  0.15928227958E+02  0.28110371521E+03  0.52134754017E+03  0.00000000000E+00 0. -1.
          2    1    6    6  503    0 -0.13003253384E+03 -0.15064515709E+03 -0.30853078911E+02  0.20138107083E+03  0.00000000000E+00 0. -1.
         -2    1    6    6    0  503 -0.70147674203E+02 -0.11909297162E+03 -0.99425616215E+02  0.17026240115E+03  0.00000000000E+00 0.  1.
<mgrwt>
<rscale>  0 0.79750818E+03</rscale>
<asrwt>0</asrwt>
<pdfrwt beam="1">  1        1 0.11255816E+00 0.79750818E+03</pdfrwt>
<pdfrwt beam="2">  1       -1 0.15276671E+00 0.79750818E+03</pdfrwt>
<totfact> 0.86667923E+00</totfact>
</mgrwt>
</event>
<event>
12    1  0.1335216E-007  0.1432425E+04  0.7818608E-02  0.8930677E-01
          1   -1    0    0  501    0  0.00000000000E+00  0.00000000000E+00  0.21309021919E+04  0.21309021919E+04  0.00000000000E+00 0. -1.
         -1   -1    0    0    0  501 -0.00000000000E+00 -0.00000000000E+00 -0.97961284140E+03  0.97961284140E+03  0.00000000000E+00 0.  1.
         23    2    1    2    0    0  0.12922997004E+04 -0.48657144425E+03  0.53545679552E+03  0.14838217421E+04  0.90679085492E+02 0.  0.
    5000000    2    1    2    0    0 -0.12922997004E+04  0.48657144425E+03  0.61583255499E+03  0.16266932912E+04  0.60007586337E+03 0.  0.
         23    2    4    4    0    0 -0.11421603961E+04  0.59973815594E+03  0.48889797978E+03  0.13824738202E+04  0.89422608187E+02 0.  0.
         23    2    4    4    0    0 -0.15013930434E+03 -0.11316671169E+03  0.12693457522E+03  0.24421947100E+03  0.90455780834E+02 0.  0.
          3    1    3    3  502    0  0.10448659274E+03 -0.61383236982E+02  0.63520495003E+02  0.13682179333E+03  0.00000000000E+00 0. -1.
         -3    1    3    3    0  502  0.11878131077E+04 -0.42518820727E+03  0.47193630052E+03  0.13469999488E+04  0.00000000000E+00 0.  1.
         11    1    5    5    0    0 -0.60355821045E+03  0.30854391543E+03  0.30389055333E+03  0.74285350477E+03  0.00000000000E+00 0.  1.
        -11    1    5    5    0    0 -0.53860218560E+03  0.29119424051E+03  0.18500742645E+03  0.63962031541E+03  0.00000000000E+00 0. -1.
          3    1    6    6  503    0 -0.41707141802E+02 -0.11469677650E+02 -0.73664660885E+01  0.43878286263E+02  0.00000000000E+00 0. -1.
         -3    1    6    6    0  503 -0.10843216253E+03 -0.10169703404E+03  0.13430104130E+03  0.20034118473E+03  0.00000000000E+00 0.  1.
<mgrwt>
<rscale>  0 0.14324246E+04</rscale>
<asrwt>0</asrwt>
<pdfrwt beam="1">  1        1 0.32783111E+00 0.14324246E+04</pdfrwt>
<pdfrwt beam="2">  1       -1 0.15070967E+00 0.14324246E+04</pdfrwt>
<totfact> 0.80004705E-01</totfact>
</mgrwt>
</event>
<event>
12    1  0.1335216E-007  0.2300449E+03  0.7818608E-02  0.1126608E+00
          2   -1    0    0  501    0  0.00000000000E+00  0.00000000000E+00  0.50813145590E+03  0.50813145590E+03  0.00000000000E+00 0. -1.
         -2   -1    0    0    0  501 -0.00000000000E+00 -0.00000000000E+00 -0.34176883289E+03  0.34176883289E+03  0.00000000000E+00 0.  1.
         23    2    1    2    0    0  0.54434878996E+02 -0.17083301554E+03  0.80038587519E+02  0.21765652601E+03  0.93920778182E+02 0.  0.
    5000000    2    1    2    0    0 -0.54434878996E+02  0.17083301554E+03  0.86324035490E+02  0.63224376277E+03  0.60011104073E+03 0.  0.
         23    2    4    4    0    0 -0.38771904417E+02  0.17430646233E+02 -0.24084426915E+03  0.26078027680E+03  0.90516864667E+02 0.  0.
         23    2    4    4    0    0 -0.15662974579E+02  0.15340236931E+03  0.32716830463E+03  0.37146348597E+03  0.84666440626E+02 0.  0.
          3    1    3    3  502    0  0.16548194266E+02 -0.14500710259E+03  0.28555902422E+02  0.14871564174E+03  0.00000000000E+00 0. -1.
         -3    1    3    3    0  502  0.37886684731E+02 -0.25825912950E+02  0.51482685097E+02  0.68940884273E+02  0.00000000000E+00 0.  1.
         13    1    5    5    0    0 -0.51506960805E+02  0.44904492084E+02 -0.14559269362E+03  0.16083100714E+03  0.00000000000E+00 0.  1.
        -13    1    5    5    0    0  0.12735056388E+02 -0.27473845850E+02 -0.95251575525E+02  0.99949269667E+02  0.00000000000E+00 0. -1.
          3    1    6    6  503    0 -0.38363199132E+02  0.45989308665E+02  0.16584630393E+03  0.17632852318E+03  0.00000000000E+00 0. -1.
         -3    1    6    6    0  503  0.22700224554E+02  0.10741306064E+03  0.16132200070E+03  0.19513496278E+03  0.00000000000E+00 0.  1.
<mgrwt>
<rscale>  0 0.23004490E+03</rscale>
<asrwt>0</asrwt>
<pdfrwt beam="1">  1        2 0.78174070E-01 0.23004490E+03</pdfrwt>
<pdfrwt beam="2">  1       -2 0.52579820E-01 0.23004490E+03</pdfrwt>
<totfact> 0.21481953E+02</totfact>
</mgrwt>
</event>
<event>
12    1  0.1335216E-007  0.6304804E+03  0.7818608E-02  0.9844112E-01
          2   -1    0    0  501    0  0.00000000000E+00  0.00000000000E+00  0.30396920116E+03  0.30396920116E+03  0.00000000000E+00 0. -1.
         -2   -1    0    0    0  501 -0.00000000000E+00 -0.00000000000E+00 -0.15700590769E+04  0.15700590769E+04  0.00000000000E+00 0.  1.
         23    2    1    2    0    0 -0.16704944584E+02 -0.49330305585E+03 -0.16826101384E+03  0.52913098039E+03  0.89670873461E+02 0.  0.
    5000000    2    1    2    0    0  0.16704944584E+02  0.49330305585E+03 -0.10978288619E+04  0.13448972977E+04  0.59991130276E+03 0.  0.
         23    2    4    4    0    0  0.22014486188E+01  0.61572087094E+03 -0.85012679280E+03  0.10540803036E+04  0.96190879940E+02 0.  0.
         23    2    4    4    0    0  0.14503495966E+02 -0.12241781509E+03 -0.24770206912E+03  0.29081699406E+03  0.89564145394E+02 0.  0.
          4    1    3    3  502    0 -0.38439575756E+02 -0.25553796932E+03 -0.12271003025E+03  0.28606818466E+03  0.00000000000E+00 0. -1.
         -4    1    3    3    0  502  0.21734631171E+02 -0.23776508653E+03 -0.45550983590E+02  0.24306279574E+03  0.00000000000E+00 0.  1.
         13    1    5    5    0    0  0.40006428478E+02  0.27317719840E+03 -0.42517859768E+03  0.50695476718E+03  0.00000000000E+00 0.  1.
        -13    1    5    5    0    0 -0.37804979859E+02  0.34254367254E+03 -0.42494819512E+03  0.54712553645E+03  0.00000000000E+00 0. -1.
          4    1    6    6  503    0 -0.17290221721E+02 -0.10579745846E+03 -0.22248621189E+03  0.24696592572E+03  0.00000000000E+00 0. -1.
         -4    1    6    6    0  503  0.31793717686E+02 -0.16620356623E+02 -0.25215857228E+02  0.43851068338E+02  0.00000000000E+00 0.  1.
<mgrwt>
<rscale>  0 0.63048043E+03</rscale>
<asrwt>0</asrwt>
<pdfrwt beam="1">  1        2 0.46764493E-01 0.63048043E+03</pdfrwt>
<pdfrwt beam="2">  1       -2 0.24154755E+00 0.63048043E+03</pdfrwt>
<totfact> 0.81549235E+00</totfact>
</mgrwt>
</event>
<event>
12    1  0.1335216E-007  0.1070690E+04  0.7818608E-02  0.9234240E-01
          2   -1    0    0  501    0  0.00000000000E+00  0.00000000000E+00  0.16619274450E+04  0.16619274450E+04  0.00000000000E+00 0. -1.
         -2   -1    0    0    0  501 -0.00000000000E+00 -0.00000000000E+00 -0.12763091318E+04  0.12763091318E+04  0.00000000000E+00 0.  1.
         23    2    1    2    0    0 -0.95735223724E+03 -0.32929534379E+03 -0.78045863592E+03  0.12815041547E+04  0.90434984777E+02 0.  0.
    5000000    2    1    2    0    0  0.95735223724E+03  0.32929534379E+03  0.11660769492E+04  0.16567324221E+04  0.60005677863E+03 0.  0.
         23    2    4    4    0    0  0.30328301490E+03  0.34119011086E+03  0.25271797229E+03  0.52954405406E+03  0.90328582372E+02 0.  0.
         23    2    4    4    0    0  0.65406922234E+03 -0.11894767067E+02  0.91335897687E+03  0.11271883681E+04  0.91547601808E+02 0.  0.
          1    1    3    3  502    0 -0.46058703347E+03 -0.20476463720E+03 -0.37306643315E+03  0.62709451886E+03  0.00000000000E+00 0. -1.
         -1    1    3    3    0  502 -0.49676520377E+03 -0.12453070660E+03 -0.40739220277E+03  0.65440963581E+03  0.00000000000E+00 0.  1.
         11    1    5    5    0    0  0.21904144990E+03  0.18146404530E+03  0.16420370108E+03  0.32843753129E+03  0.00000000000E+00 0. -1.
        -11    1    5    5    0    0  0.84241565005E+02  0.15972606556E+03  0.88514271218E+02  0.20110652277E+03  0.00000000000E+00 0.  1.
          1    1    6    6  503    0  0.58670425328E+03 -0.37970559056E+02  0.80098479831E+03  0.99359966349E+03  0.00000000000E+00 0. -1.
         -1    1    6    6    0  503  0.67364969058E+02  0.26075791989E+02  0.11237417856E+03  0.13358870458E+03  0.00000000000E+00 0.  1.
<mgrwt>
<rscale>  0 0.10706899E+04</rscale>
<asrwt>0</asrwt>
<pdfrwt beam="1">  1        2 0.25568114E+00 0.10706899E+04</pdfrwt>
<pdfrwt beam="2">  1       -2 0.19635525E+00 0.10706899E+04</pdfrwt>
<totfact> 0.14264189E+00</totfact>
</mgrwt>
</event>
<event>
12    1  0.1335216E-007  0.4960163E+03  0.7818608E-02  0.1014824E+00
         -4   -1    0    0    0  501 -0.00000000000E+00  0.00000000000E+00  0.25226403677E+03  0.25226403677E+03  0.00000000000E+00 0.  1.
          4   -1    0    0  501    0  0.00000000000E+00 -0.00000000000E+00 -0.14300070044E+04  0.14300070044E+04  0.00000000000E+00 0. -1.
         23    2    1    2    0    0 -0.11550901233E+03  0.40151407696E+03 -0.23889720726E+03  0.49229307037E+03  0.10356015432E+03 0.  0.
    5000000    2    1    2    0    0  0.11550901233E+03 -0.40151407696E+03 -0.93884576037E+03  0.11899779708E+04  0.60005026729E+03 0.  0.
         23    2    4    4    0    0 -0.11640353616E+03 -0.84969938824E+02 -0.70169835075E+03  0.72235258832E+03  0.92967804501E+02 0.  0.
         23    2    4    4    0    0  0.23191254849E+03 -0.31654413814E+03 -0.23714740963E+03  0.46762538248E+03  0.91929227715E+02 0.  0.
          3    1    3    3  502    0 -0.12996043317E+02  0.22905432962E+03 -0.13791656701E+03  0.26768594008E+03  0.00000000000E+00 0. -1.
         -3    1    3    3    0  502 -0.10251296902E+03  0.17245974734E+03 -0.10098064025E+03  0.22460713028E+03  0.00000000000E+00 0.  1.
         13    1    5    5    0    0 -0.90228128435E+02 -0.11044971597E+02 -0.31883696170E+03  0.33154202555E+03  0.00000000000E+00 0. -1.
        -13    1    5    5    0    0 -0.26175407723E+02 -0.73924967227E+02 -0.38286138904E+03  0.39081056277E+03  0.00000000000E+00 0.  1.
          2    1    6    6  503    0  0.10329230041E+03 -0.12925199072E+03 -0.48791613845E+02  0.17249926960E+03  0.00000000000E+00 0. -1.
         -2    1    6    6    0  503  0.12862024808E+03 -0.18729214742E+03 -0.18835579578E+03  0.29512611288E+03  0.00000000000E+00 0.  1.
<mgrwt>
<rscale>  0 0.49601628E+03</rscale>
<asrwt>0</asrwt>
<pdfrwt beam="1">  1        4 0.22000107E+00 0.49601628E+03</pdfrwt>
<pdfrwt beam="2">  1       -4 0.38809852E-01 0.49601628E+03</pdfrwt>
<totfact> 0.12618882E+00</totfact>
</mgrwt>
</event>
<event>
12    1  0.1803706E-007  0.1051994E+04  0.7818608E-02  0.9253287E-01
          1   -1    0    0  501    0  0.00000000000E+00  0.00000000000E+00  0.16009351462E+04  0.16009351462E+04  0.00000000000E+00 0. -1.
         -1   -1    0    0    0  501 -0.00000000000E+00 -0.00000000000E+00 -0.91476921610E+03  0.91476921610E+03  0.00000000000E+00 0.  1.
         23    2    1    2    0    0 -0.98766840848E+03  0.11634527097E+03 -0.24373343578E+03  0.10277973512E+04  0.89085915247E+02 0.  0.
    5000000    2    1    2    0    0  0.98766840848E+03 -0.11634527097E+03  0.92989936592E+03  0.14879070111E+04  0.60010777017E+03 0.  0.
         23    2    4    4    0    0  0.29470503794E+03  0.18237786418E+03  0.12249573417E+03  0.37884680299E+03  0.91689424223E+02 0.  0.
         23    2    4    4    0    0  0.69296337054E+03 -0.29872313515E+03  0.80740363176E+03  0.11090602081E+04  0.93167463815E+02 0.  0.
          3    1    3    3  502    0 -0.57171981080E+03  0.27330652125E+02 -0.15936355065E+03  0.59414413056E+03  0.00000000000E+00 0. -1.
         -3    1    3    3    0  502 -0.41594859768E+03  0.89014618840E+02 -0.84369885133E+02  0.43365322067E+03  0.00000000000E+00 0.  1.
         11    1    5    5    0    0  0.11127040852E+03  0.10350050220E+03  0.89795019266E+02  0.17651233173E+03  0.00000000000E+00 0.  1.
        -11    1    5    5    0    0  0.18343462943E+03  0.78877361983E+02  0.32700714901E+02  0.20233447126E+03  0.00000000000E+00 0. -1.
          3    1    6    6  503    0  0.30743902773E+03 -0.13327305909E+03  0.29168274729E+03  0.44425138054E+03  0.00000000000E+00 0. -1.
         -3    1    6    6    0  503  0.38552434281E+03 -0.16545007606E+03  0.51572088447E+03  0.66480882759E+03  0.00000000000E+00 0.  1.
<mgrwt>
<rscale>  0 0.10519944E+04</rscale>
<asrwt>0</asrwt>
<pdfrwt beam="1">  1        1 0.24629771E+00 0.10519944E+04</pdfrwt>
<pdfrwt beam="2">  1       -1 0.14073373E+00 0.10519944E+04</pdfrwt>
<totfact> 0.23022342E+00</totfact>
</mgrwt>
</event>
<event>
12    1  0.1335216E-007  0.1197551E+04  0.7818608E-02  0.9115003E-01
          1   -1    0    0  501    0  0.00000000000E+00  0.00000000000E+00  0.28852892999E+04  0.28852892999E+04  0.00000000000E+00 0. -1.
         -1   -1    0    0    0  501 -0.00000000000E+00 -0.00000000000E+00 -0.72311965544E+03  0.72311965544E+03  0.00000000000E+00 0.  1.
         23    2    1    2    0    0  0.80662787835E+03  0.84945764879E+03  0.12261709631E+03  0.11811007271E+04  0.87961037270E+02 0.  0.
    5000000    2    1    2    0    0 -0.80662787835E+03 -0.84945764879E+03  0.20395525482E+04  0.24273082283E+04  0.59985315452E+03 0.  0.
         23    2    4    4    0    0 -0.89329100363E+02 -0.54592923499E+01  0.29314362002E+02  0.13030139697E+03  0.90053485152E+02 0.  0.
         23    2    4    4    0    0 -0.71729877799E+03 -0.84399835644E+03  0.20102381862E+04  0.22970068313E+04  0.91280092376E+02 0.  0.
          1    1    3    3  502    0  0.40441076557E+03  0.37112779735E+03  0.79924862355E+02  0.55468179427E+03  0.00000000000E+00 0. -1.
         -1    1    3    3    0  502  0.40221711279E+03  0.47832985143E+03  0.42692233957E+02  0.62641893285E+03  0.00000000000E+00 0.  1.
         13    1    5    5    0    0 -0.21251631966E+02  0.27918049431E+02 -0.19486326654E+02  0.40134352763E+02  0.00000000000E+00 0. -1.
        -13    1    5    5    0    0 -0.68077468397E+02 -0.33377341781E+02  0.48800688656E+02  0.90167044206E+02  0.00000000000E+00 0.  1.
          3    1    6    6  503    0 -0.15971192401E+03 -0.24036213119E+03  0.56713258530E+03  0.63633420628E+03  0.00000000000E+00 0. -1.
         -3    1    6    6    0  503 -0.55758685398E+03 -0.60363622525E+03  0.14431056009E+04  0.16606726250E+04  0.00000000000E+00 0.  1.
<mgrwt>
<rscale>  0 0.11975508E+04</rscale>
<asrwt>0</asrwt>
<pdfrwt beam="1">  1        1 0.44389066E+00 0.11975508E+04</pdfrwt>
<pdfrwt beam="2">  1       -1 0.11124918E+00 0.11975508E+04</pdfrwt>
<totfact> 0.53469678E-01</totfact>
</mgrwt>
</event>
<event>
12    1  0.1335216E-007  0.5054895E+03  0.7818608E-02  0.1012356E+00
         -2   -1    0    0    0  501 -0.00000000000E+00  0.00000000000E+00  0.15202484161E+03  0.15202484161E+03  0.00000000000E+00 0.  1.
          2   -1    0    0  501    0  0.00000000000E+00 -0.00000000000E+00 -0.21334405922E+04  0.21334405922E+04  0.00000000000E+00 0. -1.
         23    2    1    2    0    0  0.10648948247E+03  0.37344476473E+03 -0.95281891632E+03  0.10329288137E+04  0.90978264886E+02 0.  0.
    5000000    2    1    2    0    0 -0.10648948247E+03 -0.37344476473E+03 -0.10285968342E+04  0.12525366201E+04  0.60002961183E+03 0.  0.
         23    2    4    4    0    0  0.54065561167E+02 -0.43072991075E+03 -0.40764300668E+03  0.60233133012E+03  0.90437102077E+02 0.  0.
         23    2    4    4    0    0 -0.16055504363E+03  0.57285146016E+02 -0.62095382754E+03  0.65020528995E+03  0.90131865377E+02 0.  0.
          1    1    3    3  502    0  0.97297545351E+02  0.23374601124E+03 -0.69280557659E+03  0.73762021194E+03  0.00000000000E+00 0. -1.
         -1    1    3    3    0  502  0.91919371151E+01  0.13969875349E+03 -0.26001333973E+03  0.29530860176E+03  0.00000000000E+00 0.  1.
         13    1    5    5    0    0  0.64557197017E+01  0.28379478878E+01 -0.89693043024E+01  0.11409587405E+02  0.00000000000E+00 0.  1.
        -13    1    5    5    0    0  0.47609841465E+02 -0.43356785864E+03 -0.39867370238E+03  0.59092174272E+03  0.00000000000E+00 0. -1.
          3    1    6    6  503    0 -0.99992363727E+02  0.15989968922E+02 -0.48788329344E+03  0.49828130602E+03  0.00000000000E+00 0. -1.
         -3    1    6    6    0  503 -0.60562679907E+02  0.41295177094E+02 -0.13307053409E+03  0.15192398393E+03  0.00000000000E+00 0.  1.
<mgrwt>
<rscale>  0 0.50548948E+03</rscale>
<asrwt>0</asrwt>
<pdfrwt beam="1">  1        2 0.32822162E+00 0.50548948E+03</pdfrwt>
<pdfrwt beam="2">  1       -2 0.23388438E-01 0.50548948E+03</pdfrwt>
<totfact> 0.96742507E+01</totfact>
</mgrwt>
</event>
<event>
12    1  0.1335216E-007  0.3988240E+03  0.7818608E-02  0.1044188E+00
          2   -1    0    0  501    0  0.00000000000E+00  0.00000000000E+00  0.14377195510E+04  0.14377195510E+04  0.00000000000E+00 0. -1.
         -2   -1    0    0    0  501 -0.00000000000E+00 -0.00000000000E+00 -0.21167347309E+03  0.21167347309E+03  0.00000000000E+00 0.  1.
         23    2    1    2    0    0 -0.12692270927E+02 -0.23515636766E+03 -0.14555874814E+02  0.25127062796E+03  0.86402800834E+02 0.  0.
    5000000    2    1    2    0    0  0.12692270927E+02  0.23515636766E+03  0.12406019527E+04  0.13981223961E+04  0.60016116038E+03 0.  0.
         23    2    4    4    0    0 -0.20786668880E+03  0.25323705117E+03  0.39755567342E+03  0.52280897803E+03  0.89113128340E+02 0.  0.
         23    2    4    4    0    0  0.22055895972E+03 -0.18080683514E+02  0.84304627925E+03  0.87531341804E+03  0.80457349034E+02 0.  0.
          1    1    3    3  502    0 -0.11164891700E+02 -0.21768812223E+03 -0.38748560122E+02  0.22139156325E+03  0.00000000000E+00 0. -1.
         -1    1    3    3    0  502 -0.15273792271E+01 -0.17468245435E+02  0.24192685308E+02  0.29879064716E+02  0.00000000000E+00 0.  1.
         13    1    5    5    0    0 -0.96071334531E+02  0.88816121480E+02  0.22141199837E+03  0.25717946609E+03  0.00000000000E+00 0. -1.
        -13    1    5    5    0    0 -0.11179535426E+03  0.16442092969E+03  0.17614367505E+03  0.26562951195E+03  0.00000000000E+00 0.  1.
          3    1    6    6  503    0  0.14673605903E+03 -0.45649310796E+02  0.61982136270E+03  0.63858738811E+03  0.00000000000E+00 0. -1.
         -3    1    6    6    0  503  0.73822900697E+02  0.27568627282E+02  0.22322491655E+03  0.23672602993E+03  0.00000000000E+00 0.  1.
<mgrwt>
<rscale>  0 0.39882401E+03</rscale>
<asrwt>0</asrwt>
<pdfrwt beam="1">  1        2 0.22118762E+00 0.39882401E+03</pdfrwt>
<pdfrwt beam="2">  1       -2 0.32565151E-01 0.39882401E+03</pdfrwt>
<totfact> 0.12795001E+02</totfact>
</mgrwt>
</event>
<event>
12    1  0.1335216E-007  0.7612480E+03  0.7818608E-02  0.9617867E-01
          1   -1    0    0  501    0  0.00000000000E+00  0.00000000000E+00  0.79096271255E+03  0.79096271255E+03  0.00000000000E+00 0. -1.
         -1   -1    0    0    0  501 -0.00000000000E+00 -0.00000000000E+00 -0.81053897929E+03  0.81053897929E+03  0.00000000000E+00 0.  1.
         23    2    1    2    0    0 -0.66187984894E+03  0.15272918013E+03 -0.96383512525E+02  0.69198784552E+03  0.90256633867E+02 0.  0.
    5000000    2    1    2    0    0  0.66187984894E+03 -0.15272918013E+03  0.76807245777E+02  0.90951384632E+03  0.59992078372E+03 0.  0.
         23    2    4    4    0    0 -0.33076411291E+02  0.93666946050E+02  0.95352706332E+02  0.16557355852E+03  0.91950632998E+02 0.  0.
         23    2    4    4    0    0  0.69495626024E+03 -0.24639612618E+03 -0.18545460555E+02  0.74394028780E+03  0.97097698602E+02 0.  0.
          1    1    3    3  502    0 -0.10610492297E+03  0.49410839562E+02  0.72509772921E+01  0.11727004057E+03  0.00000000000E+00 0. -1.
         -1    1    3    3    0  502 -0.55577492598E+03  0.10331834057E+03 -0.10363448982E+03  0.57471780495E+03  0.00000000000E+00 0.  1.
         13    1    5    5    0    0 -0.32507540033E+02  0.59480311327E+02  0.38518536153E+01  0.67893183537E+02  0.00000000000E+00 0. -1.
        -13    1    5    5    0    0 -0.56887125820E+00  0.34186634723E+02  0.91500852717E+02  0.97680374979E+02  0.00000000000E+00 0.  1.
          3    1    6    6  503    0  0.53443584912E+03 -0.17361386312E+03  0.24669722837E+02  0.56246959519E+03  0.00000000000E+00 0. -1.
         -3    1    6    6    0  503  0.16052041111E+03 -0.72782263064E+02 -0.43215183393E+02  0.18147069261E+03  0.00000000000E+00 0.  1.
<mgrwt>
<rscale>  0 0.76124798E+03</rscale>
<asrwt>0</asrwt>
<pdfrwt beam="1">  1        1 0.12168657E+00 0.76124798E+03</pdfrwt>
<pdfrwt beam="2">  1       -1 0.12469830E+00 0.76124798E+03</pdfrwt>
<totfact> 0.13034349E+01</totfact>
</mgrwt>
</event>
<event>
12    1  0.1335216E-007  0.5222584E+03  0.7818608E-02  0.1008127E+00
          2   -1    0    0  501    0  0.00000000000E+00  0.00000000000E+00  0.56843420544E+03  0.56843420544E+03  0.00000000000E+00 0. -1.
         -2   -1    0    0    0  501 -0.00000000000E+00 -0.00000000000E+00 -0.49538406452E+03  0.49538406452E+03  0.00000000000E+00 0.  1.
         23    2    1    2    0    0  0.28723229765E+03 -0.19423586481E+03  0.91548834251E+02  0.37060625130E+03  0.93476416585E+02 0.  0.
    5000000    2    1    2    0    0 -0.28723229765E+03  0.19423586481E+03 -0.18498693331E+02  0.69321201865E+03  0.59997561380E+03 0.  0.
         23    2    4    4    0    0 -0.31525046506E+03  0.36929410218E+03 -0.18762817985E+02  0.49421368293E+03  0.90189419740E+02 0.  0.
         23    2    4    4    0    0  0.28018167406E+02 -0.17505823737E+03  0.26412465337E+00  0.19899833572E+03  0.90387298224E+02 0.  0.
          3    1    3    3  502    0  0.26079173374E+03 -0.19834000814E+03  0.99967418358E+02  0.34255593988E+03  0.00000000000E+00 0. -1.
         -3    1    3    3    0  502  0.26440563915E+02  0.41041433242E+01 -0.84185841070E+01  0.28050311423E+02  0.00000000000E+00 0.  1.
         13    1    5    5    0    0 -0.80228797337E+02  0.48334580224E+02  0.15486306418E+02  0.94935331958E+02  0.00000000000E+00 0. -1.
        -13    1    5    5    0    0 -0.23502166772E+03  0.32095952196E+03 -0.34249124403E+02  0.39927835097E+03  0.00000000000E+00 0.  1.
          1    1    6    6  503    0 -0.32709943278E+02 -0.70761769956E+02  0.58951713643E+01  0.78178779231E+02  0.00000000000E+00 0. -1.
         -1    1    6    6    0  503  0.60728110685E+02 -0.10429646742E+03 -0.56310467110E+01  0.12081955649E+03  0.00000000000E+00 0.  1.
<mgrwt>
<rscale>  0 0.52225843E+03</rscale>
<asrwt>0</asrwt>
<pdfrwt beam="1">  1        2 0.87451416E-01 0.52225843E+03</pdfrwt>
<pdfrwt beam="2">  1       -2 0.76212933E-01 0.52225843E+03</pdfrwt>
<totfact> 0.83842317E+01</totfact>
</mgrwt>
</event>
<event>
12    1  0.1335216E-007  0.5038217E+03  0.7818608E-02  0.1012786E+00
          1   -1    0    0  501    0  0.00000000000E+00  0.00000000000E+00  0.23125832638E+04  0.23125832638E+04  0.00000000000E+00 0. -1.
         -1   -1    0    0    0  501 -0.00000000000E+00 -0.00000000000E+00 -0.29526925979E+03  0.29526925979E+03  0.00000000000E+00 0.  1.
         23    2    1    2    0    0  0.20353572489E+03  0.25893013169E+03  0.18787101139E+04  0.19094738022E+04  0.89815948810E+02 0.  0.
    5000000    2    1    2    0    0 -0.20353572489E+03 -0.25893013169E+03  0.13860389010E+03  0.69837872142E+03  0.60004182836E+03 0.  0.
         23    2    4    4    0    0 -0.15939455050E+03 -0.43445054078E+03  0.15131062304E+03  0.49540143138E+03  0.91508351811E+02 0.  0.
         23    2    4    4    0    0 -0.44141174395E+02  0.17552040909E+03 -0.12706732936E+02  0.20297729004E+03  0.91008032206E+02 0.  0.
          4    1    3    3  502    0  0.14999336510E+03  0.13121102642E+03  0.12410454374E+04  0.12569439609E+04  0.00000000000E+00 0. -1.
         -4    1    3    3    0  502  0.53542359792E+02  0.12771910527E+03  0.63766467649E+03  0.65252984130E+03  0.00000000000E+00 0.  1.
         11    1    5    5    0    0 -0.90073206971E+02 -0.14760940074E+03  0.86155265285E+02  0.19319536107E+03  0.00000000000E+00 0. -1.
        -11    1    5    5    0    0 -0.69321343528E+02 -0.28684114004E+03  0.65155357753E+02  0.30220607031E+03  0.00000000000E+00 0.  1.
          2    1    6    6  503    0  0.25589057897E+02  0.24122553292E+02  0.42961184532E+01  0.35428153990E+02  0.00000000000E+00 0.  1.
         -2    1    6    6    0  503 -0.69730232292E+02  0.15139785580E+03 -0.17002851390E+02  0.16754913605E+03  0.00000000000E+00 0. -1.
<mgrwt>
<rscale>  0 0.50382174E+03</rscale>
<asrwt>0</asrwt>
<pdfrwt beam="1">  1        1 0.35578203E+00 0.50382174E+03</pdfrwt>
<pdfrwt beam="2">  1       -1 0.45426041E-01 0.50382174E+03</pdfrwt>
<totfact> 0.96960037E+00</totfact>
</mgrwt>
</event>
<event>
12    1  0.1335216E-007  0.4556242E+03  0.7818608E-02  0.1026058E+00
          2   -1    0    0  501    0  0.00000000000E+00  0.00000000000E+00  0.23071960739E+04  0.23071960739E+04  0.00000000000E+00 0. -1.
         -2   -1    0    0    0  501 -0.00000000000E+00 -0.00000000000E+00 -0.12450695269E+03  0.12450695269E+03  0.00000000000E+00 0.  1.
         23    2    1    2    0    0 -0.14052269123E+02 -0.25918899017E+03  0.13249724606E+04  0.13534354865E+04  0.94123301617E+02 0.  0.
    5000000    2    1    2    0    0  0.14052269123E+02  0.25918899017E+03  0.85771666068E+03  0.10782675402E+04  0.59967209310E+03 0.  0.
         23    2    4    4    0    0 -0.19136634292E+03  0.34819556013E+03  0.51085582970E+03  0.65511719385E+03  0.10170365596E+03 0.  0.
         23    2    4    4    0    0  0.20541861204E+03 -0.89006569961E+02  0.34686083097E+03  0.42315034630E+03  0.92869822028E+02 0.  0.
          3    1    3    3  502    0  0.31150510056E+02 -0.48336502877E+02  0.36812963907E+03  0.37259388475E+03  0.00000000000E+00 0.  1.
         -3    1    3    3    0  502 -0.45202779179E+02 -0.21085248729E+03  0.95684282149E+03  0.98084160173E+03  0.00000000000E+00 0. -1.
         13    1    5    5    0    0 -0.10131767234E+03  0.21012746002E+03  0.21921427587E+03  0.32011516510E+03  0.00000000000E+00 0.  1.
        -13    1    5    5    0    0 -0.90048670576E+02  0.13806810011E+03  0.29164155384E+03  0.33500202875E+03  0.00000000000E+00 0. -1.
          3    1    6    6  503    0 -0.44517673342E+01 -0.17822647855E+02  0.45567726487E+02  0.49131280323E+02  0.00000000000E+00 0. -1.
         -3    1    6    6    0  503  0.20987037938E+03 -0.71183922106E+02  0.30129310449E+03  0.37401906598E+03  0.00000000000E+00 0.  1.
<mgrwt>
<rscale>  0 0.45562422E+03</rscale>
<asrwt>0</asrwt>
<pdfrwt beam="1">  1        2 0.35495321E+00 0.45562422E+03</pdfrwt>
<pdfrwt beam="2">  1       -2 0.19154918E-01 0.45562422E+03</pdfrwt>
<totfact> 0.11132625E+02</totfact>
</mgrwt>
</event>
<event>
12    1  0.1335216E-007  0.8411029E+03  0.7818608E-02  0.9502357E-01
          4   -1    0    0  501    0  0.00000000000E+00  0.00000000000E+00  0.73514852195E+03  0.73514852195E+03  0.00000000000E+00 0. -1.
         -4   -1    0    0    0  501 -0.00000000000E+00 -0.00000000000E+00 -0.10875487357E+04  0.10875487357E+04  0.00000000000E+00 0.  1.
         23    2    1    2    0    0 -0.75343107535E+03  0.15832694245E+03 -0.33976608993E+03  0.84656413716E+03  0.92217332662E+02 0.  0.
    5000000    2    1    2    0    0  0.75343107535E+03 -0.15832694245E+03 -0.12634123789E+02  0.97613312045E+03  0.59995870004E+03 0.  0.
         23    2    4    4    0    0  0.77967848949E+03 -0.22205043560E+03  0.93010017055E+02  0.82096592782E+03  0.90162344973E+02 0.  0.
         23    2    4    4    0    0 -0.26247414136E+02  0.63723493147E+02 -0.10564414084E+03  0.15516719263E+03  0.90369036993E+02 0.  0.
          2    1    3    3  502    0 -0.29406659942E+03  0.10258093365E+03 -0.15997606308E+03  0.35012905278E+03  0.00000000000E+00 0. -1.
         -2    1    3    3    0  502 -0.45936447593E+03  0.55746008804E+02 -0.17979002685E+03  0.49643508438E+03  0.00000000000E+00 0.  1.
         13    1    5    5    0    0 -0.87537145614E+00 -0.25576002282E+00  0.46235970075E+01  0.47126783959E+01  0.00000000000E+00 0.  1.
        -13    1    5    5    0    0  0.78055386094E+03 -0.22179467558E+03  0.88386420047E+02  0.81625324942E+03  0.00000000000E+00 0. -1.
          3    1    6    6  503    0 -0.26570244467E+02 -0.49151135356E+01 -0.75519706321E+02  0.80208243186E+02  0.00000000000E+00 0.  1.
         -3    1    6    6    0  503  0.32283033090E+00  0.68638606682E+02 -0.30124434522E+02  0.74958949446E+02  0.00000000000E+00 0. -1.
<mgrwt>
<rscale>  0 0.84110290E+03</rscale>
<asrwt>0</asrwt>
<pdfrwt beam="1">  1        4 0.11309977E+00 0.84110290E+03</pdfrwt>
<pdfrwt beam="2">  1       -4 0.16731519E+00 0.84110290E+03</pdfrwt>
<totfact> 0.26348438E-01</totfact>
</mgrwt>
</event>
<event>
12    1  0.1335216E-007  0.8904349E+03  0.7818608E-02  0.9437618E-01
         -2   -1    0    0    0  501 -0.00000000000E+00  0.00000000000E+00  0.77685955823E+03  0.77685955823E+03  0.00000000000E+00 0.  1.
          2   -1    0    0  501    0  0.00000000000E+00 -0.00000000000E+00 -0.12900040065E+04  0.12900040065E+04  0.00000000000E+00 0. -1.
         23    2    1    2    0    0  0.21512145132E+03  0.79073985626E+03 -0.63960981862E+03  0.10434501461E+04  0.90225983948E+02 0.  0.
    5000000    2    1    2    0    0 -0.21512145132E+03 -0.79073985626E+03  0.12646537038E+03  0.10234134186E+04  0.59986229788E+03 0.  0.
         23    2    4    4    0    0 -0.24869560765E+03 -0.10742263666E+03  0.17044469910E+03  0.33216086423E+03  0.88827451501E+02 0.  0.
         23    2    4    4    0    0  0.33574156331E+02 -0.68331721960E+03 -0.43979328718E+02  0.69125255440E+03  0.88579151225E+02 0.  0.
          1    1    3    3  502    0  0.14138764767E+03  0.35168651456E+03 -0.28308341308E+03  0.47308571126E+03  0.00000000000E+00 0. -1.
         -1    1    3    3    0  502  0.73733803651E+02  0.43905334170E+03 -0.35652640554E+03  0.57036443482E+03  0.00000000000E+00 0.  1.
         13    1    5    5    0    0 -0.21667876454E+03 -0.96512865301E+02  0.10690503510E+03  0.26017898973E+03  0.00000000000E+00 0.  1.
        -13    1    5    5    0    0 -0.32016843116E+02 -0.10909771359E+02  0.63539663999E+02  0.71981874492E+02  0.00000000000E+00 0. -1.
          3    1    6    6  503    0 -0.10728413884E+02 -0.91732185763E+02  0.20227510765E+02  0.94546522734E+02  0.00000000000E+00 0. -1.
         -3    1    6    6    0  503  0.44302570215E+02 -0.59158503383E+03 -0.64206839483E+02  0.59670603166E+03  0.00000000000E+00 0.  1.
<mgrwt>
<rscale>  0 0.89043490E+03</rscale>
<asrwt>0</asrwt>
<pdfrwt beam="1">  1        2 0.19846215E+00 0.89043490E+03</pdfrwt>
<pdfrwt beam="2">  1       -2 0.11951686E+00 0.89043490E+03</pdfrwt>
<totfact> 0.90248505E+00</totfact>
</mgrwt>
</event>
<event>
12    1  0.1335216E-007  0.7011137E+03  0.7818608E-02  0.9715329E-01
          2   -1    0    0  501    0  0.00000000000E+00  0.00000000000E+00  0.64910971433E+03  0.64910971433E+03  0.00000000000E+00 0. -1.
         -2   -1    0    0    0  501 -0.00000000000E+00 -0.00000000000E+00 -0.91040995543E+03  0.91040995543E+03  0.00000000000E+00 0.  1.
         23    2    1    2    0    0  0.21169050590E+03  0.54368971006E+03 -0.39692492932E+03  0.71165619066E+03  0.92161613900E+02 0.  0.
    5000000    2    1    2    0    0 -0.21169050590E+03 -0.54368971006E+03  0.13562468822E+03  0.84786347910E+03  0.60005587409E+03 0.  0.
         23    2    4    4    0    0 -0.36872067753E+03 -0.16303467548E+03  0.69928269801E+02  0.41950846678E+03  0.92531871986E+02 0.  0.
         23    2    4    4    0    0  0.15703017163E+03 -0.38065503458E+03  0.65696418423E+02  0.42835501232E+03  0.98057468026E+02 0.  0.
          4    1    3    3  502    0  0.16035995368E+03  0.33107474050E+03 -0.28868178260E+03  0.46761412526E+03  0.00000000000E+00 0.  1.
         -4    1    3    3    0  502  0.51330552228E+02  0.21261496956E+03 -0.10824314673E+03  0.24404206540E+03  0.00000000000E+00 0. -1.
         11    1    5    5    0    0 -0.25836984797E+03 -0.10545959917E+03  0.49663693594E+01  0.27910816939E+03  0.00000000000E+00 0. -1.
        -11    1    5    5    0    0 -0.11035082956E+03 -0.57575076312E+02  0.64961900442E+02  0.14040029739E+03  0.00000000000E+00 0.  1.
          1    1    6    6  503    0  0.32067198010E+02 -0.61491305173E+02 -0.25141144484E+02  0.73766950229E+02  0.00000000000E+00 0. -1.
         -1    1    6    6    0  503  0.12496297362E+03 -0.31916372940E+03  0.90837562907E+02  0.35458806209E+03  0.00000000000E+00 0.  1.
<mgrwt>
<rscale>  0 0.70111372E+03</rscale>
<asrwt>0</asrwt>
<pdfrwt beam="1">  1        2 0.99863033E-01 0.70111372E+03</pdfrwt>
<pdfrwt beam="2">  1       -2 0.14006307E+00 0.70111372E+03</pdfrwt>
<totfact> 0.16466468E+01</totfact>
</mgrwt>
</event>
<event>
12    1  0.1335216E-007  0.6881594E+03  0.7818608E-02  0.9737698E-01
          1   -1    0    0  501    0  0.00000000000E+00  0.00000000000E+00  0.79627998899E+03  0.79627998899E+03  0.00000000000E+00 0. -1.
         -1   -1    0    0    0  501 -0.00000000000E+00 -0.00000000000E+00 -0.68071102323E+03  0.68071102323E+03  0.00000000000E+00 0.  1.
         23    2    1    2    0    0 -0.14922556650E+03 -0.58235925675E+03 -0.55076533609E+02  0.61061661184E+03  0.91698683054E+02 0.  0.
    5000000    2    1    2    0    0  0.14922556650E+03  0.58235925675E+03  0.17064549937E+03  0.86637440038E+03  0.60006178145E+03 0.  0.
         23    2    4    4    0    0  0.33622855249E+02  0.62747993312E+03 -0.26955060186E+01  0.63534199533E+03  0.93758319212E+02 0.  0.
         23    2    4    4    0    0  0.11560271126E+03 -0.45120676364E+02  0.17334100539E+03  0.23103240505E+03  0.89044964760E+02 0.  0.
          1    1    3    3  502    0 -0.13118737213E+03 -0.34778748174E+03 -0.15367965507E+02  0.37202477529E+03  0.00000000000E+00 0. -1.
         -1    1    3    3    0  502 -0.18038194371E+02 -0.23457177501E+03 -0.39708568103E+02  0.23859183655E+03  0.00000000000E+00 0.  1.
         13    1    5    5    0    0  0.48186386374E+02  0.16552071677E+03  0.13048326946E+02  0.17288520569E+03  0.00000000000E+00 0. -1.
        -13    1    5    5    0    0 -0.14563531124E+02  0.46195921635E+03 -0.15743832965E+02  0.46245678964E+03  0.00000000000E+00 0.  1.
          3    1    6    6  503    0  0.34216841432E+01  0.94254765128E+01 -0.66575253012E+01  0.12036202599E+02  0.00000000000E+00 0. -1.
         -3    1    6    6    0  503  0.11218102711E+03 -0.54546152877E+02  0.17999853069E+03  0.21899620245E+03  0.00000000000E+00 0.  1.
<mgrwt>
<rscale>  0 0.68815944E+03</rscale>
<asrwt>0</asrwt>
<pdfrwt beam="1">  1        1 0.12250461E+00 0.68815944E+03</pdfrwt>
<pdfrwt beam="2">  1       -1 0.10472477E+00 0.68815944E+03</pdfrwt>
<totfact> 0.19755463E+01</totfact>
</mgrwt>
</event>
<event>
12    1  0.1335216E-007  0.6754558E+03  0.7818608E-02  0.9760152E-01
          2   -1    0    0  501    0  0.00000000000E+00  0.00000000000E+00  0.28002773369E+04  0.28002773369E+04  0.00000000000E+00 0. -1.
         -2   -1    0    0    0  501 -0.00000000000E+00 -0.00000000000E+00 -0.25180825303E+03  0.25180825303E+03  0.00000000000E+00 0.  1.
         23    2    1    2    0    0  0.52351111879E+03  0.19648139318E+03  0.19664694534E+04  0.20463982955E+04  0.89861244138E+02 0.  0.
    5000000    2    1    2    0    0 -0.52351111879E+03 -0.19648139318E+03  0.58199963042E+03  0.10056872944E+04  0.60001211233E+03 0.  0.
         23    2    4    4    0    0 -0.32139748505E+03  0.16285459750E+03  0.40508489967E+03  0.54965546665E+03  0.90605699380E+02 0.  0.
         23    2    4    4    0    0 -0.20211363375E+03 -0.35933599068E+03  0.17691473075E+03  0.45603182774E+03  0.81816445858E+02 0.  0.
          2    1    3    3  502    0  0.31682473075E+02  0.31171568356E+02  0.22171772610E+03  0.22612871520E+03  0.00000000000E+00 0. -1.
         -2    1    3    3    0  502  0.49182864572E+03  0.16530982483E+03  0.17447517273E+04  0.18202695803E+04  0.00000000000E+00 0.  1.
         13    1    5    5    0    0 -0.17901803134E+03  0.50602594204E+02  0.16398106874E+03  0.24798763879E+03  0.00000000000E+00 0.  1.
        -13    1    5    5    0    0 -0.14237945370E+03  0.11225200329E+03  0.24110383092E+03  0.30166782786E+03  0.00000000000E+00 0. -1.
          2    1    6    6  503    0 -0.59195332591E+02 -0.18822317764E+03  0.79281937923E+02  0.21264448661E+03  0.00000000000E+00 0. -1.
         -2    1    6    6    0  503 -0.14291830115E+03 -0.17111281304E+03  0.97632792824E+02  0.24338734114E+03  0.00000000000E+00 0.  1.
<mgrwt>
<rscale>  0 0.67545578E+03</rscale>
<asrwt>0</asrwt>
<pdfrwt beam="1">  1        2 0.43081188E+00 0.67545578E+03</pdfrwt>
<pdfrwt beam="2">  1       -2 0.38739733E-01 0.67545578E+03</pdfrwt>
<totfact> 0.15557173E+01</totfact>
</mgrwt>
</event>
<event>
12    1  0.1335216E-007  0.4882024E+03  0.7818608E-02  0.1016905E+00
         -2   -1    0    0    0  501 -0.00000000000E+00  0.00000000000E+00  0.59385796168E+03  0.59385796168E+03  0.00000000000E+00 0.  1.
          2   -1    0    0  501    0  0.00000000000E+00 -0.00000000000E+00 -0.55033804869E+03  0.55033804869E+03  0.00000000000E+00 0. -1.
         23    2    1    2    0    0  0.38718116077E+03  0.81616686497E+02  0.11621051668E+03  0.42130518914E+03  0.86154764467E+02 0.  0.
    5000000    2    1    2    0    0 -0.38718116077E+03 -0.81616686497E+02 -0.72690603684E+02  0.72289082123E+03  0.60059693705E+03 0.  0.
         23    2    4    4    0    0  0.16695541969E+02 -0.13936298544E+03 -0.22258811614E+03  0.27832424975E+03  0.90653933847E+02 0.  0.
         23    2    4    4    0    0 -0.40387670274E+03  0.57746298944E+02  0.14989751246E+03  0.44456657148E+03  0.93376368440E+02 0.  0.
          4    1    3    3  502    0  0.13289641852E+03  0.68971815019E+02  0.54457509807E+02  0.15932416545E+03  0.00000000000E+00 0. -1.
         -4    1    3    3    0  502  0.25428474224E+03  0.12644871477E+02  0.61753006875E+02  0.26198102369E+03  0.00000000000E+00 0.  1.
         11    1    5    5    0    0  0.25969609366E+02 -0.14259296375E+03 -0.16378560013E+03  0.21870733122E+03  0.00000000000E+00 0.  1.
        -11    1    5    5    0    0 -0.92740673970E+01  0.32299783076E+01 -0.58802516009E+02  0.59616918529E+02  0.00000000000E+00 0. -1.
          2    1    6    6  503    0 -0.32178811591E+03  0.81334747358E+02  0.13263952349E+03  0.35742995938E+03  0.00000000000E+00 0. -1.
         -2    1    6    6    0  503 -0.82088586822E+02 -0.23588448414E+02  0.17257988963E+02  0.87136612099E+02  0.00000000000E+00 0.  1.
<mgrwt>
<rscale>  0 0.48820236E+03</rscale>
<asrwt>0</asrwt>
<pdfrwt beam="1">  1        2 0.84667392E-01 0.48820236E+03</pdfrwt>
<pdfrwt beam="2">  1       -2 0.91362763E-01 0.48820236E+03</pdfrwt>
<totfact> 0.58032955E+01</totfact>
</mgrwt>
</event>
<event>
12    1  0.1335216E-007  0.8547789E+03  0.7818608E-02  0.9483945E-01
         -1   -1    0    0    0  501 -0.00000000000E+00  0.00000000000E+00  0.10939798096E+04  0.10939798096E+04  0.00000000000E+00 0.  1.
          1   -1    0    0  501    0  0.00000000000E+00 -0.00000000000E+00 -0.15774103818E+04  0.15774103818E+04  0.00000000000E+00 0. -1.
         23    2    1    2    0    0  0.19422470839E+03  0.82747690517E+03  0.69332064671E+03  0.11006905679E+04  0.91569324897E+02 0.  0.
    5000000    2    1    2    0    0 -0.19422470839E+03 -0.82747690517E+03 -0.11767512189E+04  0.15706996234E+04  0.59992717045E+03 0.  0.
         23    2    4    4    0    0 -0.36280000246E+02 -0.36279881361E+03 -0.95158594051E+03  0.10230923934E+04  0.90901186728E+02 0.  0.
         23    2    4    4    0    0 -0.15794470815E+03 -0.46467809156E+03 -0.22516527842E+03  0.54760723000E+03  0.91115400084E+02 0.  0.
          3    1    3    3  502    0  0.13093987439E+03  0.56061017583E+03  0.52334649548E+03  0.77802350496E+03  0.00000000000E+00 0. -1.
         -3    1    3    3    0  502  0.63284834007E+02  0.26686672934E+03  0.16997415124E+03  0.32266706298E+03  0.00000000000E+00 0.  1.
         13    1    5    5    0    0 -0.12365781760E+02 -0.18521158780E+03 -0.36110223437E+03  0.40601855681E+03  0.00000000000E+00 0. -1.
        -13    1    5    5    0    0 -0.23914218485E+02 -0.17758722581E+03 -0.59048370615E+03  0.61707383662E+03  0.00000000000E+00 0.  1.
          2    1    6    6  503    0 -0.11463037379E+03 -0.24010281928E+03 -0.15708984391E+03  0.30897686884E+03  0.00000000000E+00 0. -1.
         -2    1    6    6    0  503 -0.43314334358E+02 -0.22457527228E+03 -0.68075434513E+02  0.23863036116E+03  0.00000000000E+00 0.  1.
<mgrwt>
<rscale>  0 0.85477887E+03</rscale>
<asrwt>0</asrwt>
<pdfrwt beam="1">  1        1 0.24267852E+00 0.85477887E+03</pdfrwt>
<pdfrwt beam="2">  1       -1 0.16830459E+00 0.85477887E+03</pdfrwt>
<totfact> 0.15085069E+00</totfact>
</mgrwt>
</event>
<event>
12    1  0.1335216E-007  0.7038086E+03  0.7818608E-02  0.9710741E-01
          2   -1    0    0  501    0  0.00000000000E+00  0.00000000000E+00  0.11241189088E+04  0.11241189088E+04  0.00000000000E+00 0. -1.
         -2   -1    0    0    0  501 -0.00000000000E+00 -0.00000000000E+00 -0.11304385397E+04  0.11304385397E+04  0.00000000000E+00 0.  1.
         23    2    1    2    0    0 -0.10524451558E+03  0.58831687937E+03  0.85459176607E+03  0.10469235334E+04  0.92350633204E+02 0.  0.
    5000000    2    1    2    0    0  0.10524451558E+03 -0.58831687937E+03 -0.86091139695E+03  0.12076339151E+04  0.60001506725E+03 0.  0.
         23    2    4    4    0    0  0.30930181054E+03 -0.26277822984E+03 -0.26746096993E+03  0.49478454931E+03  0.92500657948E+02 0.  0.
         23    2    4    4    0    0 -0.20405729496E+03 -0.32553864953E+03 -0.59345042703E+03  0.71284936581E+03  0.91411252199E+02 0.  0.
          4    1    3    3  502    0 -0.75407484933E+02  0.18098970809E+03  0.26293600836E+03  0.32799223727E+03  0.00000000000E+00 0.  1.
         -4    1    3    3    0  502 -0.29837030649E+02  0.40732717128E+03  0.59165575771E+03  0.71893129609E+03  0.00000000000E+00 0. -1.
         11    1    5    5    0    0  0.96108304328E+02 -0.30180926925E+02 -0.63346911356E+02  0.11899800708E+03  0.00000000000E+00 0. -1.
        -11    1    5    5    0    0  0.21319350621E+03 -0.23259730292E+03 -0.20411405857E+03  0.37578654223E+03  0.00000000000E+00 0.  1.
          4    1    6    6  503    0 -0.14992404552E+03 -0.19829304274E+03 -0.30912772427E+03  0.39668287099E+03  0.00000000000E+00 0. -1.
         -4    1    6    6    0  503 -0.54133249440E+02 -0.12724560679E+03 -0.28432270276E+03  0.31616649482E+03  0.00000000000E+00 0.  1.
<mgrwt>
<rscale>  0 0.70380863E+03</rscale>
<asrwt>0</asrwt>
<pdfrwt beam="1">  1        2 0.17294137E+00 0.70380863E+03</pdfrwt>
<pdfrwt beam="2">  1       -2 0.17391362E+00 0.70380863E+03</pdfrwt>
<totfact> 0.43340119E+00</totfact>
</mgrwt>
</event>
<event>
12    1  0.1335216E-007  0.7248033E+03  0.7818608E-02  0.9675731E-01
          2   -1    0    0  501    0  0.00000000000E+00  0.00000000000E+00  0.56685355614E+03  0.56685355614E+03  0.00000000000E+00 0. -1.
         -2   -1    0    0    0  501 -0.00000000000E+00 -0.00000000000E+00 -0.17057695712E+04  0.17057695712E+04  0.00000000000E+00 0.  1.
         23    2    1    2    0    0 -0.36975798823E+03 -0.56541500594E+03 -0.11858867529E+04  0.13678924800E+04  0.91582461847E+02 0.  0.
    5000000    2    1    2    0    0  0.36975798823E+03  0.56541500594E+03  0.46970737818E+02  0.90473064737E+03  0.59993015866E+03 0.  0.
         23    2    4    4    0    0 -0.98799179526E+01  0.15296749395E+02 -0.17152148189E+03  0.19587654168E+03  0.92824552293E+02 0.  0.
         23    2    4    4    0    0  0.37963790619E+03  0.55011825654E+03  0.21849221971E+03  0.70885410569E+03  0.89332284632E+02 0.  0.
          4    1    3    3  502    0 -0.11093235326E+03 -0.10375511806E+03 -0.28908455943E+03  0.32655932696E+03  0.00000000000E+00 0.  1.
         -4    1    3    3    0  502 -0.25882563497E+03 -0.46165988788E+03 -0.89680219348E+03  0.10413331530E+04  0.00000000000E+00 0. -1.
         13    1    5    5    0    0  0.13786140532E+02  0.50383757416E+02 -0.97421338406E+02  0.11054183760E+03  0.00000000000E+00 0. -1.
        -13    1    5    5    0    0 -0.23666058485E+02 -0.35087008022E+02 -0.74100143488E+02  0.85334704084E+02  0.00000000000E+00 0.  1.
          4    1    6    6  503    0  0.14803436547E+03  0.29007265811E+03  0.11850343163E+03  0.34655357977E+03  0.00000000000E+00 0. -1.
         -4    1    6    6    0  503  0.23160354072E+03  0.26004559844E+03  0.99988788078E+02  0.36230052592E+03  0.00000000000E+00 0.  1.
<mgrwt>
<rscale>  0 0.72480334E+03</rscale>
<asrwt>0</asrwt>
<pdfrwt beam="1">  1        2 0.87208239E-01 0.72480334E+03</pdfrwt>
<pdfrwt beam="2">  1       -2 0.26242609E+00 0.72480334E+03</pdfrwt>
<totfact> 0.29677514E+00</totfact>
</mgrwt>
</event>
<event>
12    1  0.1335216E-007  0.7514265E+03  0.7818608E-02  0.9633115E-01
         -2   -1    0    0    0  501 -0.00000000000E+00  0.00000000000E+00  0.12270301466E+04  0.12270301466E+04  0.00000000000E+00 0. -1.
          2   -1    0    0  501    0  0.00000000000E+00 -0.00000000000E+00 -0.57086883308E+03  0.57086883308E+03  0.00000000000E+00 0.  1.
         23    2    1    2    0    0 -0.57177080132E+03  0.37890470158E+03  0.54367101830E+03  0.87977075694E+03  0.89038118253E+02 0.  0.
    5000000    2    1    2    0    0  0.57177080132E+03 -0.37890470158E+03  0.11249029517E+03  0.91812822270E+03  0.59984560071E+03 0.  0.
         23    2    4    4    0    0  0.57102393002E+03 -0.41993894175E+03 -0.61249787789E+02  0.71733602966E+03  0.91664603232E+02 0.  0.
         23    2    4    4    0    0  0.74687130069E+00  0.41034240169E+02  0.17374008296E+03  0.20079219305E+03  0.91910400277E+02 0.  0.
          1    1    3    3  502    0 -0.54860239551E+03  0.33908407807E+03  0.49726872927E+03  0.81438245897E+03  0.00000000000E+00 0. -1.
         -1    1    3    3    0  502 -0.23168405807E+02  0.39820623510E+02  0.46402289028E+02  0.65388297970E+02  0.00000000000E+00 0.  1.
         11    1    5    5    0    0  0.39830256787E+02 -0.49777171267E+02  0.14777202853E+02  0.65441438395E+02  0.00000000000E+00 0.  1.
        -11    1    5    5    0    0  0.53119367323E+03 -0.37016177048E+03 -0.76026990642E+02  0.65189459126E+03  0.00000000000E+00 0. -1.
          1    1    6    6  503    0 -0.40419866443E+02  0.43536186082E+02  0.10131496217E+03  0.11744737827E+03  0.00000000000E+00 0. -1.
         -1    1    6    6    0  503  0.41166737743E+02 -0.25019459122E+01  0.72425120787E+02  0.83344814780E+02  0.00000000000E+00 0.  1.
<mgrwt>
<rscale>  0 0.75142652E+03</rscale>
<asrwt>0</asrwt>
<pdfrwt beam="1">  1        2 0.87825975E-01 0.75142652E+03</pdfrwt>
<pdfrwt beam="2">  1       -2 0.18877387E+00 0.75142652E+03</pdfrwt>
<totfact> 0.84695008E+00</totfact>
</mgrwt>
</event>
<event>
12    1  0.1335216E-007  0.1046947E+04  0.7818608E-02  0.9258502E-01
         -2   -1    0    0    0  501 -0.00000000000E+00  0.00000000000E+00  0.51690402467E+03  0.51690402467E+03  0.00000000000E+00 0. -1.
          2   -1    0    0  501    0  0.00000000000E+00 -0.00000000000E+00 -0.23993760059E+04  0.23993760059E+04  0.00000000000E+00 0.  1.
         23    2    1    2    0    0 -0.95395556535E+03 -0.28160068241E+03 -0.12281271423E+04  0.15830158758E+04  0.91174668905E+02 0.  0.
    5000000    2    1    2    0    0  0.95395556535E+03  0.28160068241E+03 -0.65434483889E+03  0.13332641548E+04  0.60007997238E+03 0.  0.
         23    2    4    4    0    0  0.11350197797E+03 -0.98095398279E+02  0.35431501173E+02  0.17823794821E+03  0.89487254621E+02 0.  0.
         23    2    4    4    0    0  0.84045358738E+03  0.37969608069E+03 -0.68977634007E+03  0.11550262066E+04  0.88106709910E+02 0.  0.
          2    1    3    3  502    0 -0.88959424519E+03 -0.23735542085E+03 -0.11332115766E+04  0.14600972550E+04  0.00000000000E+00 0. -1.
         -2    1    3    3    0  502 -0.64361320163E+02 -0.44245261556E+02 -0.94915565734E+02  0.12291862073E+03  0.00000000000E+00 0.  1.
         13    1    5    5    0    0  0.23800187162E+02  0.11982278390E+02  0.23862307166E+02  0.35769171190E+02  0.00000000000E+00 0.  1.
        -13    1    5    5    0    0  0.89701790811E+02 -0.11007767667E+03  0.11569194007E+02  0.14246877702E+03  0.00000000000E+00 0. -1.
          1    1    6    6  503    0  0.45282702041E+03  0.15632141804E+03 -0.35400410556E+03  0.59565728645E+03  0.00000000000E+00 0. -1.
         -1    1    6    6    0  503  0.38762656697E+03  0.22337466264E+03 -0.33577223451E+03  0.55936892013E+03  0.00000000000E+00 0.  1.
<mgrwt>
<rscale>  0 0.10469468E+04</rscale>
<asrwt>0</asrwt>
<pdfrwt beam="1">  1        2 0.36913476E+00 0.10469468E+04</pdfrwt>
<pdfrwt beam="2">  1       -2 0.79523698E-01 0.10469468E+04</pdfrwt>
<totfact> 0.55880079E+00</totfact>
</mgrwt>
</event>
<event>
12    1  0.1335216E-007  0.7949939E+03  0.7818608E-02  0.9567292E-01
          2   -1    0    0  501    0  0.00000000000E+00  0.00000000000E+00  0.16177394859E+04  0.16177394859E+04  0.00000000000E+00 0.  1.
         -2   -1    0    0    0  501 -0.00000000000E+00 -0.00000000000E+00 -0.48458844723E+03  0.48458844723E+03  0.00000000000E+00 0. -1.
         23    2    1    2    0    0  0.56504623080E+03  0.46567168638E+03  0.82386228621E+03  0.11060097986E+04  0.91549142441E+02 0.  0.
    5000000    2    1    2    0    0 -0.56504623080E+03 -0.46567168638E+03  0.30928875247E+03  0.99631813456E+03  0.60071867827E+03 0.  0.
         23    2    4    4    0    0  0.32696565288E+02 -0.20063399038E+03 -0.73217453923E+02  0.23463833217E+03  0.91494742404E+02 0.  0.
         23    2    4    4    0    0 -0.59774279608E+03 -0.26503769600E+03  0.38250620639E+03  0.76167980239E+03  0.79395798807E+02 0.  0.
          3    1    3    3  502    0  0.24884849690E+03  0.18734983786E+03  0.28642329385E+03  0.42315935464E+03  0.00000000000E+00 0. -1.
         -3    1    3    3    0  502  0.31619773389E+03  0.27832184852E+03  0.53743899236E+03  0.68285044394E+03  0.00000000000E+00 0.  1.
         11    1    5    5    0    0  0.24596397294E+02 -0.16646843281E+03 -0.18045208834E+02  0.16924051360E+03  0.00000000000E+00 0.  1.
        -11    1    5    5    0    0  0.81001679939E+01 -0.34165557570E+02 -0.55172245088E+02  0.65397818570E+02  0.00000000000E+00 0. -1.
          3    1    6    6  503    0 -0.55643033764E+03 -0.24722414269E+03  0.33007451918E+03  0.69259200514E+03  0.00000000000E+00 0. -1.
         -3    1    6    6    0  503 -0.41312458440E+02 -0.17813553308E+02  0.52431687217E+02  0.69087797246E+02  0.00000000000E+00 0.  1.
<mgrwt>
<rscale>  0 0.79499388E+03</rscale>
<asrwt>0</asrwt>
<pdfrwt beam="1">  1        2 0.24888300E+00 0.79499388E+03</pdfrwt>
<pdfrwt beam="2">  1       -2 0.74552069E-01 0.79499388E+03</pdfrwt>
<totfact> 0.18000899E+01</totfact>
</mgrwt>
</event>
<event>
12    1  0.1335216E-007  0.7200204E+03  0.7818608E-02  0.9683594E-01
          2   -1    0    0  501    0  0.00000000000E+00  0.00000000000E+00  0.44764421944E+04  0.44764421944E+04  0.00000000000E+00 0.  1.
         -2   -1    0    0    0  501 -0.00000000000E+00 -0.00000000000E+00 -0.21744324461E+03  0.21744324461E+03  0.00000000000E+00 0. -1.
         23    2    1    2    0    0 -0.13325682408E+03 -0.64364018465E+03  0.33768366720E+04  0.34414377265E+04  0.91856667687E+02 0.  0.
    5000000    2    1    2    0    0  0.13325682408E+03  0.64364018465E+03  0.88216227774E+03  0.12524477125E+04  0.59865258688E+03 0.  0.
         23    2    4    4    0    0 -0.61875949128E+02  0.53781958394E+03  0.85111696767E+03  0.10126672694E+04  0.89534171635E+02 0.  0.
         23    2    4    4    0    0  0.19513277321E+03  0.10582060072E+03  0.31045310068E+02  0.23978044310E+03  0.85182456509E+02 0.  0.
          2    1    3    3  502    0 -0.61429971176E+02 -0.20032439176E+03  0.88603026337E+03  0.91046863257E+03  0.00000000000E+00 0. -1.
         -2    1    3    3    0  502 -0.71826852908E+02 -0.44331579289E+03  0.24908064087E+04  0.25309690939E+04  0.00000000000E+00 0.  1.
         13    1    5    5    0    0  0.34670449296E+01  0.21400623906E+03  0.39823044286E+03  0.45210416540E+03  0.00000000000E+00 0. -1.
        -13    1    5    5    0    0 -0.65342994058E+02  0.32381334488E+03  0.45288652481E+03  0.56056310398E+03  0.00000000000E+00 0.  1.
          3    1    6    6  503    0  0.17640845266E+03  0.58027067766E+02  0.16552620721E+02  0.18644321392E+03  0.00000000000E+00 0. -1.
         -3    1    6    6    0  503  0.18724320555E+02  0.47793532952E+02  0.14492689347E+02  0.53337229181E+02  0.00000000000E+00 0.  1.
<mgrwt>
<rscale>  0 0.72002036E+03</rscale>
<asrwt>0</asrwt>
<pdfrwt beam="1">  1        2 0.68868335E+00 0.72002036E+03</pdfrwt>
<pdfrwt beam="2">  1       -2 0.33452810E-01 0.72002036E+03</pdfrwt>
<totfact> 0.12405418E+00</totfact>
</mgrwt>
</event>
<event>
12    1  0.1335216E-007  0.4306449E+03  0.7818608E-02  0.1033656E+00
         -1   -1    0    0    0  501 -0.00000000000E+00  0.00000000000E+00  0.31110048547E+03  0.31110048547E+03  0.00000000000E+00 0.  1.
          1   -1    0    0  501    0  0.00000000000E+00 -0.00000000000E+00 -0.77298893317E+03  0.77298893317E+03  0.00000000000E+00 0. -1.
         23    2    1    2    0    0 -0.23788373643E+01  0.25479079299E+03  0.23370087607E+02  0.27146742896E+03  0.90688460847E+02 0.  0.
    5000000    2    1    2    0    0  0.23788373643E+01 -0.25479079299E+03 -0.48525853531E+03  0.81262198967E+03  0.59996220294E+03 0.  0.
         23    2    4    4    0    0 -0.17227993373E+03  0.96281340048E+02 -0.29671791747E+03  0.36770584725E+03  0.90639922477E+02 0.  0.
         23    2    4    4    0    0  0.17465877109E+03 -0.35107213304E+03 -0.18854061784E+03  0.44491614243E+03  0.92981074953E+02 0.  0.
          1    1    3    3  502    0 -0.11075463612E+02  0.21648678510E+03  0.51929617154E+02  0.22290329552E+03  0.00000000000E+00 0. -1.
         -1    1    3    3    0  502  0.86966262475E+01  0.38304007898E+02 -0.28559529547E+02  0.48564133443E+02  0.00000000000E+00 0.  1.
         13    1    5    5    0    0 -0.12047859162E+02  0.27286342566E+02 -0.88703398506E+01  0.31118777773E+02  0.00000000000E+00 0. -1.
        -13    1    5    5    0    0 -0.16023207457E+03  0.68994997482E+02 -0.28784757762E+03  0.33658706947E+03  0.00000000000E+00 0.  1.
          3    1    6    6  503    0 -0.93785172297E+01 -0.12863861319E+02  0.59891404529E+00  0.15930919982E+02  0.00000000000E+00 0. -1.
         -3    1    6    6    0  503  0.18403728832E+03 -0.33820827172E+03 -0.18913953188E+03  0.42898522244E+03  0.00000000000E+00 0.  1.
<mgrwt>
<rscale>  0 0.43064490E+03</rscale>
<asrwt>0</asrwt>
<pdfrwt beam="1">  1        1 0.11892137E+00 0.43064490E+03</pdfrwt>
<pdfrwt beam="2">  1       -1 0.47861613E-01 0.43064490E+03</pdfrwt>
<totfact> 0.10692819E+02</totfact>
</mgrwt>
</event>
<event>
12    1  0.1335216E-007  0.7371866E+03  0.7818608E-02  0.9655670E-01
         -2   -1    0    0    0  501 -0.00000000000E+00  0.00000000000E+00  0.13133643882E+04  0.13133643882E+04  0.00000000000E+00 0.  1.
          2   -1    0    0  501    0  0.00000000000E+00 -0.00000000000E+00 -0.42936225198E+03  0.42936225198E+03  0.00000000000E+00 0. -1.
         23    2    1    2    0    0 -0.43531984027E+03 -0.44875368259E+03  0.32064923886E+03  0.70920611482E+03  0.96302377656E+02 0.  0.
    5000000    2    1    2    0    0  0.43531984027E+03  0.44875368259E+03  0.56335289739E+03  0.10335205254E+04  0.59992912786E+03 0.  0.
         23    2    4    4    0    0 -0.91187090814E+02 -0.48725719733E+02  0.96615205736E+02  0.16700065169E+03  0.88687306828E+02 0.  0.
         23    2    4    4    0    0  0.52650693108E+03  0.49747940232E+03  0.46673769165E+03  0.86651987371E+03  0.91199311995E+02 0.  0.
          2    1    3    3  502    0 -0.23975234021E+02 -0.61777914159E+01  0.29464019611E+02  0.38485132256E+02  0.00000000000E+00 0. -1.
         -2    1    3    3    0  502 -0.41134460625E+03 -0.44257589117E+03  0.29118521925E+03  0.67072098256E+03  0.00000000000E+00 0.  1.
         13    1    5    5    0    0 -0.64970070943E+02 -0.32623459687E+01  0.94181156267E+02  0.11446328326E+03  0.00000000000E+00 0. -1.
        -13    1    5    5    0    0 -0.26217019870E+02 -0.45463373764E+02  0.24340494694E+01  0.52537368431E+02  0.00000000000E+00 0.  1.
          1    1    6    6  503    0  0.76147810409E+02  0.40438723490E+02  0.78236303176E+02  0.11642464740E+03  0.00000000000E+00 0. -1.
         -1    1    6    6    0  503  0.45035912067E+03  0.45704067883E+03  0.38850138848E+03  0.75009522631E+03  0.00000000000E+00 0.  1.
<mgrwt>
<rscale>  0 0.73718663E+03</rscale>
<asrwt>0</asrwt>
<pdfrwt beam="1">  1        2 0.66055732E-01 0.73718663E+03</pdfrwt>
<pdfrwt beam="2">  1       -2 0.20205606E+00 0.73718663E+03</pdfrwt>
<totfact> 0.96554364E+00</totfact>
</mgrwt>
</event>
<event>
12    1  0.1335216E-007  0.1367216E+04  0.7818608E-02  0.8977898E-01
         -2   -1    0    0    0  501 -0.00000000000E+00  0.00000000000E+00  0.15951548012E+04  0.15951548012E+04  0.00000000000E+00 0.  1.
          2   -1    0    0  501    0  0.00000000000E+00 -0.00000000000E+00 -0.18884278857E+04  0.18884278857E+04  0.00000000000E+00 0. -1.
         23    2    1    2    0    0  0.12907103339E+04 -0.20803253989E+03 -0.12051549010E+04  0.17804918535E+04  0.92424029202E+02 0.  0.
    5000000    2    1    2    0    0 -0.12907103339E+04  0.20803253989E+03  0.91188181650E+03  0.17030908334E+04  0.59981600165E+03 0.  0.
         23    2    4    4    0    0 -0.90386118406E+03 -0.12278734308E+03  0.51450165534E+03  0.10506681164E+04  0.84556287274E+02 0.  0.
         23    2    4    4    0    0 -0.38684914981E+03  0.33081988296E+03  0.39738016116E+03  0.65242271701E+03  0.93007255177E+02 0.  0.
          1    1    3    3  502    0  0.56260325610E+03 -0.82101581405E+02 -0.46326900781E+03  0.73340389080E+03  0.00000000000E+00 0. -1.
         -1    1    3    3    0  502  0.72810707777E+03 -0.12593095848E+03 -0.74188589320E+03  0.10470879627E+04  0.00000000000E+00 0.  1.
         13    1    5    5    0    0 -0.70770909426E+03 -0.11289120801E+03  0.43792460481E+03  0.83986579073E+03  0.00000000000E+00 0.  1.
        -13    1    5    5    0    0 -0.19615208980E+03 -0.98961350686E+01  0.76577050529E+02  0.21080232563E+03  0.00000000000E+00 0. -1.
          4    1    6    6  503    0 -0.37936365167E+03  0.30427301340E+03  0.39126926886E+03  0.62417184144E+03  0.00000000000E+00 0.  1.
         -4    1    6    6    0  503 -0.74854981463E+01  0.26546869560E+02  0.61108922991E+01  0.28250875573E+02  0.00000000000E+00 0. -1.
<mgrwt>
<rscale>  0 0.13672155E+04</rscale>
<asrwt>0</asrwt>
<pdfrwt beam="1">  1        2 0.29052737E+00 0.13672155E+04</pdfrwt>
<pdfrwt beam="2">  1       -2 0.24540843E+00 0.13672155E+04</pdfrwt>
<totfact> 0.50320494E-01</totfact>
</mgrwt>
</event>
<event>
12    1  0.1335216E-007  0.5015407E+03  0.7818608E-02  0.1013378E+00
          2   -1    0    0  501    0  0.00000000000E+00  0.00000000000E+00  0.32765403419E+03  0.32765403419E+03  0.00000000000E+00 0. -1.
         -2   -1    0    0    0  501 -0.00000000000E+00 -0.00000000000E+00 -0.10578566805E+04  0.10578566805E+04  0.00000000000E+00 0.  1.
         23    2    1    2    0    0  0.31129467435E+03 -0.10527462345E+03 -0.59837014875E+03  0.68876941391E+03  0.91484151676E+02 0.  0.
    5000000    2    1    2    0    0 -0.31129467435E+03  0.10527462345E+03 -0.13183249754E+03  0.69674130076E+03  0.60006792295E+03 0.  0.
         23    2    4    4    0    0 -0.28317427501E+02  0.30767006235E+03 -0.35334811738E+02  0.32433742197E+03  0.92105756636E+02 0.  0.
         23    2    4    4    0    0 -0.28297724685E+03 -0.20239543890E+03 -0.96497685797E+02  0.37240387878E+03  0.91284224516E+02 0.  0.
          2    1    3    3  502    0  0.72192985988E+02  0.10279651564E+02 -0.16674224524E+03  0.18199031516E+03  0.00000000000E+00 0.  1.
         -2    1    3    3    0  502  0.23910168837E+03 -0.11555427502E+03 -0.43162790350E+03  0.50677909875E+03  0.00000000000E+00 0. -1.
         13    1    5    5    0    0 -0.58022236533E+01  0.25248605610E+02 -0.31774843016E+02  0.40997543015E+02  0.00000000000E+00 0. -1.
        -13    1    5    5    0    0 -0.22515203848E+02  0.28242145674E+03 -0.35599687228E+01  0.28333987896E+03  0.00000000000E+00 0.  1.
          3    1    6    6  503    0 -0.12292093008E+03 -0.45010751488E+02 -0.63593911883E+02  0.14553249957E+03  0.00000000000E+00 0. -1.
         -3    1    6    6    0  503 -0.16005631677E+03 -0.15738468741E+03 -0.32903773914E+02  0.22687137921E+03  0.00000000000E+00 0.  1.
<mgrwt>
<rscale>  0 0.50154066E+03</rscale>
<asrwt>0</asrwt>
<pdfrwt beam="1">  1        2 0.50408313E-01 0.50154066E+03</pdfrwt>
<pdfrwt beam="2">  1       -2 0.16274718E+00 0.50154066E+03</pdfrwt>
<totfact> 0.24802800E+01</totfact>
</mgrwt>
</event>
<event>
12    1  0.1917912E-007  0.1659099E+04  0.7818608E-02  0.8785042E-01
          2   -1    0    0  501    0  0.00000000000E+00  0.00000000000E+00  0.14695710235E+04  0.14695710235E+04  0.00000000000E+00 0. -1.
         -2   -1    0    0    0  501 -0.00000000000E+00 -0.00000000000E+00 -0.19574224650E+04  0.19574224650E+04  0.00000000000E+00 0.  1.
         23    2    1    2    0    0 -0.12367913261E+04 -0.10647108736E+04 -0.56521653446E+02  0.16354872226E+04  0.91442492539E+02 0.  0.
    5000000    2    1    2    0    0  0.12367913261E+04  0.10647108736E+04 -0.43132978804E+03  0.17915062660E+04  0.60015605171E+03 0.  0.
         23    2    4    4    0    0  0.46744700757E+03  0.67220115263E+03 -0.46004005082E+01  0.82377235092E+03  0.90656648803E+02 0.  0.
         23    2    4    4    0    0  0.76934431851E+03  0.39250972092E+03 -0.42672938753E+03  0.96773391504E+03  0.91958679308E+02 0.  0.
          1    1    3    3  502    0 -0.62294570504E+03 -0.52936400457E+03 -0.73760059197E+02  0.82080944628E+03  0.00000000000E+00 0. -1.
         -1    1    3    3    0  502 -0.61384562104E+03 -0.53534686898E+03  0.17238405751E+02  0.81467777632E+03  0.00000000000E+00 0.  1.
         11    1    5    5    0    0  0.22317718492E+03  0.25793003864E+03 -0.28388692180E+02  0.34225995755E+03  0.00000000000E+00 0.  1.
        -11    1    5    5    0    0  0.24426982266E+03  0.41427111399E+03  0.23788291672E+02  0.48151239337E+03  0.00000000000E+00 0. -1.
          2    1    6    6  503    0  0.42471098279E+03  0.19987191153E+03 -0.27982741277E+03  0.54647193968E+03  0.00000000000E+00 0. -1.
         -2    1    6    6    0  503  0.34463333572E+03  0.19263780939E+03 -0.14690197476E+03  0.42126197536E+03  0.00000000000E+00 0.  1.
<mgrwt>
<rscale>  0 0.16590993E+04</rscale>
<asrwt>0</asrwt>
<pdfrwt beam="1">  1        2 0.22608785E+00 0.16590993E+04</pdfrwt>
<pdfrwt beam="2">  1       -2 0.30114192E+00 0.16590993E+04</pdfrwt>
<totfact> 0.38262591E-01</totfact>
</mgrwt>
</event>
<event>
12    1  0.1335216E-007  0.1614204E+04  0.7818608E-02  0.8811869E-01
          2   -1    0    0  501    0  0.00000000000E+00  0.00000000000E+00  0.21692761480E+04  0.21692761480E+04  0.00000000000E+00 0. -1.
         -2   -1    0    0    0  501 -0.00000000000E+00 -0.00000000000E+00 -0.12787132302E+04  0.12787132302E+04  0.00000000000E+00 0.  1.
         23    2    1    2    0    0 -0.46642295558E+03 -0.15150845286E+04  0.72293411500E+03  0.17448618017E+04  0.94220327231E+02 0.  0.
    5000000    2    1    2    0    0  0.46642295558E+03  0.15150845286E+04  0.16762880279E+03  0.17031275765E+04  0.59959371587E+03 0.  0.
         23    2    4    4    0    0  0.47716340579E+03  0.88321309849E+03  0.29721986872E+03  0.10509668435E+04  0.91876888209E+02 0.  0.
         23    2    4    4    0    0 -0.10740450212E+02  0.63187143012E+03 -0.12959106593E+03  0.65216073304E+03  0.95618595895E+02 0.  0.
          1    1    3    3  502    0 -0.11774277893E+03 -0.36845780651E+03  0.22130166185E+03  0.44564441285E+03  0.00000000000E+00 0. -1.
         -1    1    3    3    0  502 -0.34868017665E+03 -0.11466267221E+04  0.50163245315E+03  0.12992173888E+04  0.00000000000E+00 0.  1.
         13    1    5    5    0    0  0.23412999569E+03  0.39504360438E+03  0.92183819732E+02  0.46837395409E+03  0.00000000000E+00 0. -1.
        -13    1    5    5    0    0  0.24303341011E+03  0.48816949410E+03  0.20503604899E+03  0.58259288941E+03  0.00000000000E+00 0.  1.
          1    1    6    6  503    0  0.81430846540E+01  0.60845593238E+03 -0.11755662684E+03  0.61976164127E+03  0.00000000000E+00 0. -1.
         -1    1    6    6    0  503 -0.18883534866E+02  0.23415497741E+02 -0.12034439093E+02  0.32399091774E+02  0.00000000000E+00 0.  1.
<mgrwt>
<rscale>  0 0.16142042E+04</rscale>
<asrwt>0</asrwt>
<pdfrwt beam="1">  1        2 0.33373479E+00 0.16142042E+04</pdfrwt>
<pdfrwt beam="2">  1       -2 0.19672511E+00 0.16142042E+04</pdfrwt>
<totfact> 0.69770205E-01</totfact>
</mgrwt>
</event>
<event>
12    1  0.1335216E-007  0.4350396E+03  0.7818608E-02  0.1032280E+00
          2   -1    0    0  501    0  0.00000000000E+00  0.00000000000E+00  0.81913168877E+03  0.81913168877E+03  0.00000000000E+00 0. -1.
         -2   -1    0    0    0  501 -0.00000000000E+00 -0.00000000000E+00 -0.42244052369E+03  0.42244052369E+03  0.00000000000E+00 0.  1.
         23    2    1    2    0    0 -0.39606874297E+02 -0.38146460625E+03 -0.57386588422E+02  0.39708639548E+03  0.85442580917E+02 0.  0.
    5000000    2    1    2    0    0  0.39606874297E+02  0.38146460625E+03  0.45407775350E+03  0.84448581697E+03  0.59990477455E+03 0.  0.
         23    2    4    4    0    0 -0.82641330779E+02  0.27289139478E+03  0.55385009857E+03  0.62956381115E+03  0.91111787013E+02 0.  0.
         23    2    4    4    0    0  0.12224820508E+03  0.10857321147E+03 -0.99772345065E+02  0.21492200582E+03  0.97489393542E+02 0.  0.
          1    1    3    3  502    0 -0.25481938675E+02 -0.14311380382E+03  0.18525684925E+02  0.14654040755E+03  0.00000000000E+00 0.  1.
         -1    1    3    3    0  502 -0.14124935622E+02 -0.23835080243E+03 -0.75912273347E+02  0.25054598793E+03  0.00000000000E+00 0. -1.
         11    1    5    5    0    0  0.15164446721E+02  0.49755915902E+02  0.63991992406E+02  0.82465669849E+02  0.00000000000E+00 0. -1.
        -11    1    5    5    0    0 -0.97805777500E+02  0.22313547888E+03  0.48985810616E+03  0.54709814130E+03  0.00000000000E+00 0.  1.
          1    1    6    6  503    0  0.10637053188E+03  0.30539408396E+02 -0.55364475444E+02  0.12374397221E+03  0.00000000000E+00 0. -1.
         -1    1    6    6    0  503  0.15877673193E+02  0.78033803073E+02 -0.44407869621E+02  0.91178033606E+02  0.00000000000E+00 0.  1.
<mgrwt>
<rscale>  0 0.43503964E+03</rscale>
<asrwt>0</asrwt>
<pdfrwt beam="1">  1        2 0.12602026E+00 0.43503964E+03</pdfrwt>
<pdfrwt beam="2">  1       -2 0.64990850E-01 0.43503964E+03</pdfrwt>
<totfact> 0.76039701E+01</totfact>
</mgrwt>
</event>
<event>
12    1  0.1335216E-007  0.8525219E+03  0.7818608E-02  0.9486958E-01
          2   -1    0    0  501    0  0.00000000000E+00  0.00000000000E+00  0.91574390634E+03  0.91574390634E+03  0.00000000000E+00 0. -1.
         -2   -1    0    0    0  501 -0.00000000000E+00 -0.00000000000E+00 -0.16309913489E+04  0.16309913489E+04  0.00000000000E+00 0.  1.
         23    2    1    2    0    0 -0.53888615857E+03 -0.58738368685E+03 -0.11950413413E+04  0.14396224599E+04  0.94716059847E+02 0.  0.
    5000000    2    1    2    0    0  0.53888615857E+03  0.58738368685E+03  0.47979389877E+03  0.11071127954E+04  0.60006555382E+03 0.  0.
         23    2    4    4    0    0  0.63207425011E+02 -0.45300990411E+02 -0.72104521040E+02  0.13784881332E+03  0.88067446143E+02 0.  0.
         23    2    4    4    0    0  0.47567873356E+03  0.63268467726E+03  0.55189841981E+03  0.96926398204E+03  0.91217556973E+02 0.  0.
          3    1    3    3  502    0 -0.35926597556E+03 -0.45214448499E+03 -0.88025444641E+03  0.10527841977E+04  0.00000000000E+00 0. -1.
         -3    1    3    3    0  502 -0.17962018301E+03 -0.13523920186E+03 -0.31478689494E+03  0.38683826218E+03  0.00000000000E+00 0.  1.
         11    1    5    5    0    0 -0.16740605430E+02 -0.23481515730E+01  0.61755770103E+01  0.17997206377E+02  0.00000000000E+00 0. -1.
        -11    1    5    5    0    0  0.79948030441E+02 -0.42952838838E+02 -0.78280098050E+02  0.11985160694E+03  0.00000000000E+00 0.  1.
          3    1    6    6  503    0  0.40140919569E+03  0.57376989945E+03  0.46429283947E+03  0.84018395645E+03  0.00000000000E+00 0. -1.
         -3    1    6    6    0  503  0.74269537868E+02  0.58914777809E+02  0.87605580343E+02  0.12908002559E+03  0.00000000000E+00 0.  1.
<mgrwt>
<rscale>  0 0.85252193E+03</rscale>
<asrwt>0</asrwt>
<pdfrwt beam="1">  1        2 0.14088368E+00 0.85252193E+03</pdfrwt>
<pdfrwt beam="2">  1       -2 0.25092175E+00 0.85252193E+03</pdfrwt>
<totfact> 0.18455228E+00</totfact>
</mgrwt>
</event>
<event>
12    1  0.1335216E-007  0.8279248E+03  0.7818608E-02  0.9520454E-01
          2   -1    0    0  501    0  0.00000000000E+00  0.00000000000E+00  0.65806422842E+03  0.65806422842E+03  0.00000000000E+00 0. -1.
         -2   -1    0    0    0  501 -0.00000000000E+00 -0.00000000000E+00 -0.15884253911E+04  0.15884253911E+04  0.00000000000E+00 0.  1.
         23    2    1    2    0    0  0.34357132706E+03 -0.64416574124E+03 -0.10631011325E+04  0.12926632271E+04  0.88337092396E+02 0.  0.
    5000000    2    1    2    0    0 -0.34357132706E+03  0.64416574124E+03  0.13273996980E+03  0.95382639241E+03  0.59931137842E+03 0.  0.
         23    2    4    4    0    0  0.17598885412E+02  0.54645422489E+03  0.29402510191E+02  0.55539281636E+03  0.93138242365E+02 0.  0.
         23    2    4    4    0    0 -0.36117021247E+03  0.97711516352E+02  0.10333745961E+03  0.39843357605E+03  0.89884487849E+02 0.  0.
          3    1    3    3  502    0  0.38249526520E+02 -0.12288866869E+03 -0.23032029801E+03  0.26384103329E+03  0.00000000000E+00 0. -1.
         -3    1    3    3    0  502  0.30532180054E+03 -0.52127707255E+03 -0.83278083447E+03  0.10288221938E+04  0.00000000000E+00 0.  1.
         11    1    5    5    0    0  0.31200463056E+02  0.37515808880E+03  0.58933803480E+02  0.38103838872E+03  0.00000000000E+00 0.  1.
        -11    1    5    5    0    0 -0.13601577644E+02  0.17129613609E+03 -0.29531293289E+02  0.17435442764E+03  0.00000000000E+00 0. -1.
          4    1    6    6  503    0 -0.19833321709E+03  0.42796583959E+02  0.10634889727E+02  0.20317655740E+03  0.00000000000E+00 0. -1.
         -4    1    6    6    0  503 -0.16283699539E+03  0.54914932393E+02  0.92702569883E+02  0.19525701864E+03  0.00000000000E+00 0.  1.
<mgrwt>
<rscale>  0 0.82792483E+03</rscale>
<asrwt>0</asrwt>
<pdfrwt beam="1">  1        2 0.10124065E+00 0.82792483E+03</pdfrwt>
<pdfrwt beam="2">  1       -2 0.24437313E+00 0.82792483E+03</pdfrwt>
<totfact> 0.31382196E+00</totfact>
</mgrwt>
</event>
<event>
12    1  0.1335216E-007  0.8881621E+03  0.7818608E-02  0.9440502E-01
          2   -1    0    0  501    0  0.00000000000E+00  0.00000000000E+00  0.12258272015E+04  0.12258272015E+04  0.00000000000E+00 0. -1.
         -2   -1    0    0    0  501 -0.00000000000E+00 -0.00000000000E+00 -0.66395695018E+03  0.66395695018E+03  0.00000000000E+00 0.  1.
         23    2    1    2    0    0  0.21403191959E+03 -0.76519724108E+03  0.16223704526E+03  0.81700461819E+03  0.99192776581E+02 0.  0.
    5000000    2    1    2    0    0 -0.21403191959E+03  0.76519724108E+03  0.39963320604E+03  0.10727795335E+04  0.59984393612E+03 0.  0.
         23    2    4    4    0    0 -0.19168758056E+03 -0.12006582638E+02  0.75311861452E+02  0.22548444085E+03  0.91011373042E+02 0.  0.
         23    2    4    4    0    0 -0.22344339024E+02  0.77720382372E+03  0.32432134458E+03  0.84729509262E+03  0.90441065480E+02 0.  0.
          2    1    3    3  502    0  0.40640526367E+02 -0.31926919016E+03  0.52029020712E+02  0.32602375246E+03  0.00000000000E+00 0. -1.
         -2    1    3    3    0  502  0.17339139322E+03 -0.44592805092E+03  0.11020802455E+03  0.49098086573E+03  0.00000000000E+00 0.  1.
         11    1    5    5    0    0 -0.13036755278E+03  0.13137580134E+02  0.88226744693E+02  0.15796282255E+03  0.00000000000E+00 0.  1.
        -11    1    5    5    0    0 -0.61320027785E+02 -0.25144162772E+02 -0.12914883241E+02  0.67521618303E+02  0.00000000000E+00 0. -1.
          1    1    6    6  503    0 -0.22885246264E+02  0.17154782783E+03  0.37165894387E+02  0.17701326344E+03  0.00000000000E+00 0. -1.
         -1    1    6    6    0  503  0.54090723948E+00  0.60565599589E+03  0.28715545020E+03  0.67028182917E+03  0.00000000000E+00 0.  1.
<mgrwt>
<rscale>  0 0.88816208E+03</rscale>
<asrwt>0</asrwt>
<pdfrwt beam="1">  1        2 0.18858880E+00 0.88816208E+03</pdfrwt>
<pdfrwt beam="2">  1       -2 0.10214722E+00 0.88816208E+03</pdfrwt>
<totfact> 0.14419772E+01</totfact>
</mgrwt>
</event>
<event>
12    1  0.1335216E-007  0.4613275E+03  0.7818608E-02  0.1024397E+00
         -2   -1    0    0    0  501 -0.00000000000E+00  0.00000000000E+00  0.18667202507E+03  0.18667202507E+03  0.00000000000E+00 0.  1.
          2   -1    0    0  501    0  0.00000000000E+00 -0.00000000000E+00 -0.32636715991E+04  0.32636715991E+04  0.00000000000E+00 0. -1.
         23    2    1    2    0    0  0.26190585694E+03  0.29056732811E+03 -0.13739518796E+03  0.42472356106E+03  0.92133683161E+02 0.  0.
    5000000    2    1    2    0    0 -0.26190585694E+03 -0.29056732811E+03 -0.29396043861E+04  0.30256200632E+04  0.60006563781E+03 0.  0.
         23    2    4    4    0    0  0.18132447902E+02  0.23473943685E+02 -0.18724509213E+04  0.18748642401E+04  0.90352943991E+02 0.  0.
         23    2    4    4    0    0 -0.28003830485E+03 -0.31404127180E+03 -0.10671534648E+04  0.11507558231E+04  0.91537283319E+02 0.  0.
          4    1    3    3  502    0  0.22251896024E+03  0.18869826628E+03 -0.11256675493E+03  0.31271871975E+03  0.00000000000E+00 0. -1.
         -4    1    3    3    0  502  0.39386896707E+02  0.10186906183E+03 -0.24828433028E+02  0.11200484131E+03  0.00000000000E+00 0.  1.
         13    1    5    5    0    0  0.47291190884E+02  0.37637789017E+02 -0.13988963272E+04  0.14002014120E+04  0.00000000000E+00 0. -1.
        -13    1    5    5    0    0 -0.29158742981E+02 -0.14163845331E+02 -0.47355459409E+03  0.47466282811E+03  0.00000000000E+00 0.  1.
          3    1    6    6  503    0 -0.88549702768E+02 -0.16078909060E+03 -0.40565459932E+03  0.44525255246E+03  0.00000000000E+00 0. -1.
         -3    1    6    6    0  503 -0.19148860208E+03 -0.15325218119E+03 -0.66149886550E+03  0.70550327060E+03  0.00000000000E+00 0.  1.
<mgrwt>
<rscale>  0 0.46132749E+03</rscale>
<asrwt>0</asrwt>
<pdfrwt beam="1">  1        2 0.50210334E+00 0.46132749E+03</pdfrwt>
<pdfrwt beam="2">  1       -2 0.28718772E-01 0.46132749E+03</pdfrwt>
<totfact> 0.14961520E+01</totfact>
</mgrwt>
</event>
<event>
12    1  0.1335216E-007  0.1192585E+04  0.7818608E-02  0.9119372E-01
         -2   -1    0    0    0  501 -0.00000000000E+00  0.00000000000E+00  0.36227331706E+03  0.36227331706E+03  0.00000000000E+00 0.  1.
          2   -1    0    0  501    0  0.00000000000E+00 -0.00000000000E+00 -0.41107393111E+04  0.41107393111E+04  0.00000000000E+00 0. -1.
         23    2    1    2    0    0  0.63458268249E+03 -0.94221581263E+03 -0.15064115767E+04  0.18889682553E+04  0.91975066000E+02 0.  0.
    5000000    2    1    2    0    0 -0.63458268249E+03  0.94221581263E+03 -0.22420544173E+04  0.25840443728E+04  0.60000957649E+03 0.  0.
         23    2    4    4    0    0 -0.13930063644E+03  0.64765226464E+03 -0.14808911266E+04  0.16248534763E+04  0.90841440891E+02 0.  0.
         23    2    4    4    0    0 -0.49528204605E+03  0.29456354799E+03 -0.76116329078E+03  0.95919089655E+03  0.92766544944E+02 0.  0.
          4    1    3    3  502    0  0.14285538605E+03 -0.15028539386E+03 -0.26127098766E+03  0.33355043085E+03  0.00000000000E+00 0.  1.
         -4    1    3    3    0  502  0.49172729644E+03 -0.79193041878E+03 -0.12451405890E+04  0.15554178245E+04  0.00000000000E+00 0. -1.
         11    1    5    5    0    0 -0.13633751994E+03  0.60812034044E+03 -0.13289143716E+04  0.14677914275E+04  0.00000000000E+00 0. -1.
        -11    1    5    5    0    0 -0.29631165056E+01  0.39531924206E+02 -0.15197675500E+03  0.15706204873E+03  0.00000000000E+00 0.  1.
          2    1    6    6  503    0 -0.29333839508E+03  0.22322377144E+03 -0.50662867565E+03  0.62653721450E+03  0.00000000000E+00 0. -1.
         -2    1    6    6    0  503 -0.20194365097E+03  0.71339776550E+02 -0.25453461513E+03  0.33265368205E+03  0.00000000000E+00 0.  1.
<mgrwt>
<rscale>  0 0.11925851E+04</rscale>
<asrwt>0</asrwt>
<pdfrwt beam="1">  1        2 0.63242141E+00 0.11925851E+04</pdfrwt>
<pdfrwt beam="2">  1       -2 0.55734358E-01 0.11925851E+04</pdfrwt>
<totfact> 0.85909986E-01</totfact>
</mgrwt>
</event>
<event>
12    1  0.1335216E-007  0.7590776E+03  0.7818608E-02  0.9621216E-01
          1   -1    0    0  501    0  0.00000000000E+00  0.00000000000E+00  0.15719908040E+04  0.15719908040E+04  0.00000000000E+00 0. -1.
         -1   -1    0    0    0  501 -0.00000000000E+00 -0.00000000000E+00 -0.39263697323E+03  0.39263697323E+03  0.00000000000E+00 0.  1.
         23    2    1    2    0    0 -0.38913779661E+03  0.53675034063E+03  0.39813459058E+03  0.77706980802E+03  0.76139223790E+02 0.  0.
    5000000    2    1    2    0    0  0.38913779661E+03 -0.53675034063E+03  0.78121924016E+03  0.11875579692E+04  0.60038427364E+03 0.  0.
         23    2    4    4    0    0 -0.12366995217E+03 -0.48833930186E+02  0.59813496415E+02  0.17261138786E+03  0.92401445124E+02 0.  0.
         23    2    4    4    0    0  0.51280774878E+03 -0.48791641044E+03  0.72140574374E+03  0.10149465813E+04  0.93038191150E+02 0.  0.
          4    1    3    3  502    0 -0.28457306021E+03  0.44501506849E+03  0.31607331680E+03  0.61556687644E+03  0.00000000000E+00 0. -1.
         -4    1    3    3    0  502 -0.10456473640E+03  0.91735272141E+02  0.82061273777E+02  0.16150293157E+03  0.00000000000E+00 0.  1.
         11    1    5    5    0    0 -0.91794747595E+02 -0.95801296661E+01  0.75957875324E+02  0.11953097253E+03  0.00000000000E+00 0. -1.
        -11    1    5    5    0    0 -0.31875204571E+02 -0.39253800519E+02 -0.16144378909E+02  0.53080415334E+02  0.00000000000E+00 0.  1.
          2    1    6    6  503    0  0.45217459068E+03 -0.43622422834E+03  0.67742775634E+03  0.92393820297E+03  0.00000000000E+00 0. -1.
         -2    1    6    6    0  503  0.60633158095E+02 -0.51692182100E+02  0.43977987405E+02  0.91008378335E+02  0.00000000000E+00 0.  1.
<mgrwt>
<rscale>  0 0.75907758E+03</rscale>
<asrwt>0</asrwt>
<pdfrwt beam="1">  1        1 0.24184473E+00 0.75907758E+03</pdfrwt>
<pdfrwt beam="2">  1       -1 0.60405689E-01 0.75907758E+03</pdfrwt>
<totfact> 0.16783364E+01</totfact>
</mgrwt>
</event>
<event>
12    1  0.1335216E-007  0.1028224E+04  0.7818608E-02  0.9278120E-01
          2   -1    0    0  501    0  0.00000000000E+00  0.00000000000E+00  0.18593787335E+04  0.18593787335E+04  0.00000000000E+00 0. -1.
         -2   -1    0    0    0  501 -0.00000000000E+00 -0.00000000000E+00 -0.62380254712E+03  0.62380254712E+03  0.00000000000E+00 0.  1.
         23    2    1    2    0    0 -0.88952588454E+03 -0.30188898777E+03  0.93661441603E+03  0.13295928262E+04  0.90428198161E+02 0.  0.
    5000000    2    1    2    0    0  0.88952588454E+03  0.30188898777E+03  0.29896177030E+03  0.11535884543E+04  0.59916184933E+03 0.  0.
         23    2    4    4    0    0  0.78772229750E+03  0.11182184623E+02  0.20770764159E+03  0.81984497842E+03  0.91497896341E+02 0.  0.
         23    2    4    4    0    0  0.10180358704E+03  0.29070680315E+03  0.91254128714E+02  0.33374347592E+03  0.90459803137E+02 0.  0.
          2    1    3    3  502    0 -0.69148672134E+03 -0.27319203946E+03  0.74568352612E+03  0.10530107774E+04  0.00000000000E+00 0. -1.
         -2    1    3    3    0  502 -0.19803916320E+03 -0.28696948305E+02  0.19093088992E+03  0.27658204881E+03  0.00000000000E+00 0.  1.
         13    1    5    5    0    0  0.35286501070E+03 -0.34596189280E+02  0.11619582486E+03  0.37311135309E+03  0.00000000000E+00 0.  1.
        -13    1    5    5    0    0  0.43485728681E+03  0.45778373903E+02  0.91511816728E+02  0.44673362534E+03  0.00000000000E+00 0. -1.
          3    1    6    6  503    0  0.11664953170E+03  0.22252362028E+03  0.71556925892E+02  0.26123603977E+03  0.00000000000E+00 0. -1.
         -3    1    6    6    0  503 -0.14845944668E+02  0.68183182861E+02  0.19697202822E+02  0.72507436151E+02  0.00000000000E+00 0.  1.
<mgrwt>
<rscale>  0 0.10282235E+04</rscale>
<asrwt>0</asrwt>
<pdfrwt beam="1">  1        2 0.28605826E+00 0.10282235E+04</pdfrwt>
<pdfrwt beam="2">  1       -2 0.95969624E-01 0.10282235E+04</pdfrwt>
<totfact> 0.72495227E+00</totfact>
</mgrwt>
</event>
<event>
12    1  0.1335216E-007  0.4229077E+03  0.7818608E-02  0.1036124E+00
         -1   -1    0    0    0  501 -0.00000000000E+00  0.00000000000E+00  0.36667444625E+03  0.36667444625E+03  0.00000000000E+00 0.  1.
          1   -1    0    0  501    0  0.00000000000E+00 -0.00000000000E+00 -0.83625355461E+03  0.83625355461E+03  0.00000000000E+00 0. -1.
         23    2    1    2    0    0  0.11705894345E+03 -0.22393472907E+03  0.14704168897E+03  0.30620098145E+03  0.91039681586E+02 0.  0.
    5000000    2    1    2    0    0 -0.11705894345E+03  0.22393472907E+03 -0.61662079732E+03  0.89672701941E+03  0.60004048240E+03 0.  0.
         23    2    4    4    0    0  0.97868100730E+02 -0.11569699379E+03 -0.38611071037E+03  0.42602386779E+03  0.97215717612E+02 0.  0.
         23    2    4    4    0    0 -0.21492704418E+03  0.33963172286E+03 -0.23051008695E+03  0.47070315162E+03  0.82965144912E+02 0.  0.
          2    1    3    3  502    0  0.99130264264E+02 -0.15173365556E+03  0.58277576647E+02  0.19038431517E+03  0.00000000000E+00 0. -1.
         -2    1    3    3    0  502  0.17928679187E+02 -0.72201073514E+02  0.88764112319E+02  0.11581666629E+03  0.00000000000E+00 0.  1.
         13    1    5    5    0    0  0.49239236134E+02  0.52350958961E+01 -0.11501501924E+03  0.12522125720E+03  0.00000000000E+00 0. -1.
        -13    1    5    5    0    0  0.48628864595E+02 -0.12093208968E+03 -0.27109569113E+03  0.30080261058E+03  0.00000000000E+00 0.  1.
          3    1    6    6  503    0 -0.59834699458E+02  0.17120378444E+03 -0.97222006877E+02  0.20577425905E+03  0.00000000000E+00 0. -1.
         -3    1    6    6    0  503 -0.15509234472E+03  0.16842793842E+03 -0.13328808008E+03  0.26492889258E+03  0.00000000000E+00 0.  1.
<mgrwt>
<rscale>  0 0.42290766E+03</rscale>
<asrwt>0</asrwt>
<pdfrwt beam="1">  1        1 0.12865439E+00 0.42290766E+03</pdfrwt>
<pdfrwt beam="2">  1       -1 0.56411453E-01 0.42290766E+03</pdfrwt>
<totfact> 0.69351377E+01</totfact>
</mgrwt>
</event>
<event>
12    1  0.1335216E-007  0.5186520E+03  0.7818608E-02  0.1009022E+00
          1   -1    0    0  501    0  0.00000000000E+00  0.00000000000E+00  0.12228818025E+04  0.12228818025E+04  0.00000000000E+00 0. -1.
         -1   -1    0    0    0  501 -0.00000000000E+00 -0.00000000000E+00 -0.28302902703E+03  0.28302902703E+03  0.00000000000E+00 0.  1.
         23    2    1    2    0    0 -0.41242347646E+03 -0.11939656199E+03  0.34772652596E+03  0.55983004271E+03  0.90262267428E+02 0.  0.
    5000000    2    1    2    0    0  0.41242347646E+03  0.11939656199E+03  0.59212624952E+03  0.94608078682E+03  0.60008890748E+03 0.  0.
         23    2    4    4    0    0 -0.44042025481E+02  0.10622197684E+03 -0.43435166422E+02  0.15816791231E+03  0.99537261509E+02 0.  0.
         23    2    4    4    0    0  0.45646550194E+03  0.13174585154E+02  0.63556141594E+03  0.78791287452E+03  0.91291074262E+02 0.  0.
          3    1    3    3  502    0 -0.36483909456E+03 -0.10809648990E+03  0.26490299869E+03  0.46364427610E+03  0.00000000000E+00 0.  1.
         -3    1    3    3    0  502 -0.47584381904E+02 -0.11300072095E+02  0.82823527267E+02  0.96185766616E+02  0.00000000000E+00 0. -1.
         11    1    5    5    0    0 -0.56431738041E+02  0.15037560689E+02 -0.55917320225E+01  0.58668021586E+02  0.00000000000E+00 0. -1.
        -11    1    5    5    0    0  0.12389712560E+02  0.91184416150E+02 -0.37843434400E+02  0.99499890719E+02  0.00000000000E+00 0.  1.
          4    1    6    6  503    0  0.28396845251E+03  0.21321414017E+02  0.46449697565E+03  0.54483954069E+03  0.00000000000E+00 0.  1.
         -4    1    6    6    0  503  0.17249704943E+03 -0.81468288628E+01  0.17106444029E+03  0.24307333383E+03  0.00000000000E+00 0. -1.
<mgrwt>
<rscale>  0 0.51865202E+03</rscale>
<asrwt>0</asrwt>
<pdfrwt beam="1">  1        1 0.18813566E+00 0.51865202E+03</pdfrwt>
<pdfrwt beam="2">  1       -1 0.43542928E-01 0.51865202E+03</pdfrwt>
<totfact> 0.56442641E+01</totfact>
</mgrwt>
</event>
<event>
12    1  0.1335216E-007  0.4744314E+03  0.7818608E-02  0.1020677E+00
         -2   -1    0    0    0  501 -0.00000000000E+00  0.00000000000E+00  0.74954495663E+03  0.74954495663E+03  0.00000000000E+00 0. -1.
          2   -1    0    0  501    0  0.00000000000E+00 -0.00000000000E+00 -0.79345294510E+03  0.79345294510E+03  0.00000000000E+00 0.  1.
         23    2    1    2    0    0  0.17351378258E+03  0.32161327043E+03 -0.55728935650E+03  0.67292530248E+03  0.93353668332E+02 0.  0.
    5000000    2    1    2    0    0 -0.17351378258E+03 -0.32161327043E+03  0.51338136803E+03  0.87007259925E+03  0.59993647201E+03 0.  0.
         23    2    4    4    0    0  0.12538189460E+03 -0.18631451653E+03 -0.13637853599E+02  0.24169314942E+03  0.88294217599E+02 0.  0.
         23    2    4    4    0    0 -0.29889567719E+03 -0.13529875390E+03  0.52701922163E+03  0.62837944983E+03  0.97298994577E+02 0.  0.
          3    1    3    3  502    0  0.20853488746E+02  0.18621648463E+02 -0.11398294461E+02  0.30191967491E+02  0.00000000000E+00 0. -1.
         -3    1    3    3    0  502  0.15266029384E+03  0.30299162197E+03 -0.54589106204E+03  0.64273333499E+03  0.00000000000E+00 0.  1.
         11    1    5    5    0    0  0.86395640154E+02 -0.53765891644E+02 -0.18579339043E+02  0.10344162403E+03  0.00000000000E+00 0.  1.
        -11    1    5    5    0    0  0.38986254450E+02 -0.13254862489E+03  0.49414854437E+01  0.13825152540E+03  0.00000000000E+00 0. -1.
          2    1    6    6  503    0 -0.14895958254E+03 -0.11944207724E+03  0.31142275134E+03  0.36529371347E+03  0.00000000000E+00 0. -1.
         -2    1    6    6    0  503 -0.14993609465E+03 -0.15856676655E+02  0.21559647029E+03  0.26308573636E+03  0.00000000000E+00 0.  1.
<mgrwt>
<rscale>  0 0.47443137E+03</rscale>
<asrwt>0</asrwt>
<pdfrwt beam="1">  1        2 0.12206968E+00 0.47443137E+03</pdfrwt>
<pdfrwt beam="2">  1       -2 0.11531461E+00 0.47443137E+03</pdfrwt>
<totfact> 0.21390659E+01</totfact>
</mgrwt>
</event>
<event>
12    1  0.1557684E-007  0.7515173E+03  0.7818608E-02  0.9632973E-01
         -2   -1    0    0    0  501 -0.00000000000E+00  0.00000000000E+00  0.54924463891E+03  0.54924463891E+03  0.00000000000E+00 0.  1.
          2   -1    0    0  501    0  0.00000000000E+00 -0.00000000000E+00 -0.10735413762E+04  0.10735413762E+04  0.00000000000E+00 0. -1.
         23    2    1    2    0    0 -0.23620596135E+03  0.59091870379E+03 -0.92243307255E+02  0.64740805746E+03  0.75167775380E+02 0.  0.
    5000000    2    1    2    0    0  0.23620596135E+03 -0.59091870379E+03 -0.43205343005E+03  0.97537795766E+03  0.59976147193E+03 0.  0.
         23    2    4    4    0    0  0.72549132828E+02  0.10239030783E+03 -0.94948233071E+02  0.18210753340E+03  0.91656068798E+02 0.  0.
         23    2    4    4    0    0  0.16365682852E+03 -0.69330901162E+03 -0.33710519697E+03  0.79327042426E+03  0.90427369025E+02 0.  0.
          4    1    3    3  502    0 -0.10329370506E+03  0.16554309224E+03 -0.30451873772E+02  0.19748777559E+03  0.00000000000E+00 0. -1.
         -4    1    3    3    0  502 -0.13291225629E+03  0.42537561156E+03 -0.61791433482E+02  0.44992028186E+03  0.00000000000E+00 0.  1.
         13    1    5    5    0    0 -0.13836028241E+02  0.25242830692E+02 -0.50350511213E+02  0.57998363410E+02  0.00000000000E+00 0. -1.
        -13    1    5    5    0    0  0.86385161069E+02  0.77147477134E+02 -0.44597721858E+02  0.12410916999E+03  0.00000000000E+00 0.  1.
          1    1    6    6  503    0  0.49929641646E+02 -0.39927595128E+03 -0.17532042042E+03  0.43892084048E+03  0.00000000000E+00 0. -1.
         -1    1    6    6    0  503  0.11372718688E+03 -0.29403306034E+03 -0.16178477655E+03  0.35434958378E+03  0.00000000000E+00 0.  1.
<mgrwt>
<rscale>  0 0.75151731E+03</rscale>
<asrwt>0</asrwt>
<pdfrwt beam="1">  1        2 0.16516021E+00 0.75151731E+03</pdfrwt>
<pdfrwt beam="2">  1       -2 0.84499176E-01 0.75151731E+03</pdfrwt>
<totfact> 0.28099637E+01</totfact>
</mgrwt>
</event>
<event>
12    1  0.1335216E-007  0.9150089E+03  0.7818608E-02  0.9407012E-01
         -2   -1    0    0    0  501 -0.00000000000E+00  0.00000000000E+00  0.64947200713E+03  0.64947200713E+03  0.00000000000E+00 0. -1.
          2   -1    0    0  501    0  0.00000000000E+00 -0.00000000000E+00 -0.21064617991E+04  0.21064617991E+04  0.00000000000E+00 0.  1.
         23    2    1    2    0    0 -0.65161687063E+03  0.62035237662E+03  0.44533635898E+02  0.90555568518E+03  0.92769806386E+02 0.  0.
    5000000    2    1    2    0    0  0.65161687063E+03 -0.62035237662E+03 -0.15015234278E+04  0.18503781210E+04  0.59990413331E+03 0.  0.
         23    2    4    4    0    0  0.37258235330E+03 -0.23004509795E+03 -0.11884490326E+04  0.12698858242E+04  0.91981228411E+02 0.  0.
         23    2    4    4    0    0  0.27903451733E+03 -0.39030727866E+03 -0.31307439520E+03  0.58049229678E+03  0.93571876375E+02 0.  0.
          3    1    3    3  502    0 -0.45104499599E+03  0.38136284586E+03  0.19639527766E+01  0.59066324223E+03  0.00000000000E+00 0. -1.
         -3    1    3    3    0  502 -0.20057187464E+03  0.23898953076E+03  0.42569683121E+02  0.31489244295E+03  0.00000000000E+00 0.  1.
         13    1    5    5    0    0  0.20079408570E+03 -0.70013403154E+02 -0.56147821851E+03  0.60039814401E+03  0.00000000000E+00 0.  1.
        -13    1    5    5    0    0  0.17178826760E+03 -0.16003169480E+03 -0.62697081411E+03  0.66948768022E+03  0.00000000000E+00 0. -1.
          1    1    6    6  503    0  0.19740755427E+03 -0.28488692711E+03 -0.27320982033E+03  0.44133197215E+03  0.00000000000E+00 0. -1.
         -1    1    6    6    0  503  0.81626963055E+02 -0.10542035155E+03 -0.39864574874E+02  0.13916032462E+03  0.00000000000E+00 0.  1.
<mgrwt>
<rscale>  0 0.91500887E+03</rscale>
<asrwt>0</asrwt>
<pdfrwt beam="1">  1        2 0.32407104E+00 0.91500887E+03</pdfrwt>
<pdfrwt beam="2">  1       -2 0.99918771E-01 0.91500887E+03</pdfrwt>
<totfact> 0.48860113E+00</totfact>
</mgrwt>
</event>
<event>
12    1  0.1335216E-007  0.2084798E+04  0.7818608E-02  0.8567970E-01
          1   -1    0    0  501    0  0.00000000000E+00  0.00000000000E+00  0.21763371691E+04  0.21763371691E+04  0.00000000000E+00 0. -1.
         -1   -1    0    0    0  501 -0.00000000000E+00 -0.00000000000E+00 -0.23073452423E+04  0.23073452423E+04  0.00000000000E+00 0.  1.
         23    2    1    2    0    0  0.15341989417E+04  0.14000246611E+04 -0.78921006106E+03  0.22237335499E+04  0.91120446669E+02 0.  0.
    5000000    2    1    2    0    0 -0.15341989417E+04 -0.14000246611E+04  0.65820198786E+03  0.22599488615E+04  0.60025290930E+03 0.  0.
         23    2    4    4    0    0 -0.17782769189E+03 -0.10727496820E+03 -0.89304685047E+02  0.24048572534E+03  0.82021037026E+02 0.  0.
         23    2    4    4    0    0 -0.13563712499E+04 -0.12927496929E+04  0.74750667290E+03  0.20194631362E+04  0.92305992500E+02 0.  0.
          1    1    3    3  502    0  0.92228187684E+03  0.80415144075E+03 -0.42697421982E+03  0.12959824013E+04  0.00000000000E+00 0. -1.
         -1    1    3    3    0  502  0.61191706491E+03  0.59587322038E+03 -0.36223584124E+03  0.92775114862E+03  0.00000000000E+00 0.  1.
         13    1    5    5    0    0 -0.72505919015E+02 -0.84512871143E+01 -0.56686668877E+02  0.92422459254E+02  0.00000000000E+00 0.  1.
        -13    1    5    5    0    0 -0.10532177287E+03 -0.98823681083E+02 -0.32618016170E+02  0.14806326608E+03  0.00000000000E+00 0. -1.
          1    1    6    6  503    0 -0.82255236155E+03 -0.74966342131E+03  0.48453154885E+03  0.12138197785E+04  0.00000000000E+00 0. -1.
         -1    1    6    6    0  503 -0.53381888830E+03 -0.54308627162E+03  0.26297512406E+03  0.80564335770E+03  0.00000000000E+00 0.  1.
<mgrwt>
<rscale>  0 0.20847977E+04</rscale>
<asrwt>0</asrwt>
<pdfrwt beam="1">  1        1 0.33482110E+00 0.20847977E+04</pdfrwt>
<pdfrwt beam="2">  1       -1 0.35497619E+00 0.20847977E+04</pdfrwt>
<totfact> 0.28649112E-02</totfact>
</mgrwt>
</event>
<event>
12    1  0.1335216E-007  0.1384229E+04  0.7818608E-02  0.8965314E-01
         -2   -1    0    0    0  501 -0.00000000000E+00  0.00000000000E+00  0.14838177815E+04  0.14838177815E+04  0.00000000000E+00 0.  1.
          2   -1    0    0  501    0  0.00000000000E+00 -0.00000000000E+00 -0.15780755003E+04  0.15780755003E+04  0.00000000000E+00 0. -1.
         23    2    1    2    0    0 -0.35431725304E+03 -0.12847056720E+04  0.57526275918E+03  0.14543316554E+04  0.90243794629E+02 0.  0.
    5000000    2    1    2    0    0  0.35431725304E+03  0.12847056720E+04 -0.66952047797E+03  0.16075616263E+04  0.59998944376E+03 0.  0.
         23    2    4    4    0    0  0.25334098561E+03  0.12848074688E+04 -0.66617976595E+03  0.14721993423E+04  0.93078117541E+02 0.  0.
         23    2    4    4    0    0  0.10097626743E+03 -0.10179689738E+00 -0.33407120183E+01  0.13536228399E+03  0.90086461938E+02 0.  0.
          2    1    3    3  502    0 -0.15341028703E+03 -0.68931506620E+03  0.33472811131E+03  0.78149400840E+03  0.00000000000E+00 0. -1.
         -2    1    3    3    0  502 -0.20090696601E+03 -0.59539060575E+03  0.24053464788E+03  0.67283764701E+03  0.00000000000E+00 0.  1.
         13    1    5    5    0    0  0.95740645762E+02  0.32534995386E+03 -0.14294204705E+03  0.36803708040E+03  0.00000000000E+00 0. -1.
        -13    1    5    5    0    0  0.15760033985E+03  0.95945751499E+03 -0.52323771890E+03  0.11041622619E+04  0.00000000000E+00 0.  1.
          1    1    6    6  503    0  0.95366989943E+02 -0.23636135693E+02 -0.26612677953E+02  0.10179275175E+03  0.00000000000E+00 0. -1.
         -1    1    6    6    0  503  0.56092774855E+01  0.23534338795E+02  0.23271965935E+02  0.33569532241E+02  0.00000000000E+00 0.  1.
<mgrwt>
<rscale>  0 0.13842295E+04</rscale>
<asrwt>0</asrwt>
<pdfrwt beam="1">  1        2 0.24278085E+00 0.13842295E+04</pdfrwt>
<pdfrwt beam="2">  1       -2 0.22827966E+00 0.13842295E+04</pdfrwt>
<totfact> 0.95625259E-01</totfact>
</mgrwt>
</event>
<event>
12    1  0.1335216E-007  0.1255015E+04  0.7818608E-02  0.9066019E-01
          2   -1    0    0  501    0  0.00000000000E+00  0.00000000000E+00  0.39115777383E+04  0.39115777383E+04  0.00000000000E+00 0. -1.
         -2   -1    0    0    0  501 -0.00000000000E+00 -0.00000000000E+00 -0.62079638118E+03  0.62079638118E+03  0.00000000000E+00 0.  1.
         23    2    1    2    0    0  0.66637957222E+03  0.10082960551E+04  0.28759792577E+04  0.31209105944E+04  0.90019877955E+02 0.  0.
    5000000    2    1    2    0    0 -0.66637957222E+03 -0.10082960551E+04  0.41480209941E+03  0.14114635251E+04  0.59953801555E+03 0.  0.
         23    2    4    4    0    0 -0.43063251608E+03 -0.25129040142E+03 -0.10183488953E+02  0.50727644794E+03  0.92921802856E+02 0.  0.
         23    2    4    4    0    0 -0.23574705615E+03 -0.75700565365E+03  0.42498558837E+03  0.90418707716E+03  0.91144314384E+02 0.  0.
          4    1    3    3  502    0  0.36983307127E+03  0.57201950840E+03  0.15061882199E+04  0.16530534693E+04  0.00000000000E+00 0. -1.
         -4    1    3    3    0  502  0.29654650096E+03  0.43627654667E+03  0.13697910379E+04  0.14678571251E+04  0.00000000000E+00 0.  1.
         13    1    5    5    0    0 -0.26967398833E+03 -0.20570166644E+03 -0.19461252936E+02  0.33972926857E+03  0.00000000000E+00 0. -1.
        -13    1    5    5    0    0 -0.16095852775E+03 -0.45588734971E+02  0.92777639835E+01  0.16754717937E+03  0.00000000000E+00 0.  1.
          1    1    6    6  503    0 -0.25404642314E+01 -0.56990909212E+02  0.10850697231E+02  0.58070261939E+02  0.00000000000E+00 0. -1.
         -1    1    6    6    0  503 -0.23320659192E+03 -0.70001474444E+03  0.41413489114E+03  0.84611681522E+03  0.00000000000E+00 0.  1.
<mgrwt>
<rscale>  0 0.12550151E+04</rscale>
<asrwt>0</asrwt>
<pdfrwt beam="1">  1        2 0.60178117E+00 0.12550151E+04</pdfrwt>
<pdfrwt beam="2">  1       -2 0.95507138E-01 0.12550151E+04</pdfrwt>
<totfact> 0.37159659E-01</totfact>
</mgrwt>
</event>
<event>
12    1  0.1335216E-007  0.5525763E+03  0.7818608E-02  0.1000899E+00
          2   -1    0    0  501    0  0.00000000000E+00  0.00000000000E+00  0.35360171835E+04  0.35360171835E+04  0.00000000000E+00 0. -1.
         -2   -1    0    0    0  501 -0.00000000000E+00 -0.00000000000E+00 -0.10204419875E+03  0.10204419875E+03  0.00000000000E+00 0.  1.
         23    2    1    2    0    0 -0.26341899987E+03  0.32298371587E+03  0.82645985199E+03  0.93015916775E+03  0.91935521899E+02 0.  0.
    5000000    2    1    2    0    0  0.26341899987E+03 -0.32298371587E+03  0.26075131328E+04  0.27079022145E+04  0.59991800744E+03 0.  0.
         23    2    4    4    0    0  0.28917705279E+03 -0.45789132582E+03  0.22175199053E+04  0.22842810767E+04  0.85191975362E+02 0.  0.
         23    2    4    4    0    0 -0.25758052922E+02  0.13490760996E+03  0.38999322749E+03  0.42362113788E+03  0.92177060362E+02 0.  0.
          4    1    3    3  502    0 -0.86245829379E+02  0.63662044022E+02  0.15021631439E+03  0.18454305743E+03  0.00000000000E+00 0. -1.
         -4    1    3    3    0  502 -0.17717317049E+03  0.25932167184E+03  0.67624353760E+03  0.74561611032E+03  0.00000000000E+00 0.  1.
         11    1    5    5    0    0  0.14223468575E+03 -0.22409737240E+03  0.12647920911E+04  0.12923425908E+04  0.00000000000E+00 0. -1.
        -11    1    5    5    0    0  0.14694236704E+03 -0.23379395342E+03  0.95272781418E+03  0.99193848590E+03  0.00000000000E+00 0.  1.
          3    1    6    6  503    0  0.96673636443E+01  0.23102866429E+02  0.19101801177E+03  0.19265274765E+03  0.00000000000E+00 0. -1.
         -3    1    6    6    0  503 -0.35425416566E+02  0.11180474353E+03  0.19897521572E+03  0.23096839023E+03  0.00000000000E+00 0.  1.
<mgrwt>
<rscale>  0 0.55257633E+03</rscale>
<asrwt>0</asrwt>
<pdfrwt beam="1">  1        2 0.54400255E+00 0.55257633E+03</pdfrwt>
<pdfrwt beam="2">  1       -2 0.15699110E-01 0.55257633E+03</pdfrwt>
<totfact> 0.27873636E+01</totfact>
</mgrwt>
</event>
<event>
12    1  0.1335216E-007  0.1673601E+04  0.7818608E-02  0.8776566E-01
          1   -1    0    0  501    0  0.00000000000E+00  0.00000000000E+00  0.39401978174E+04  0.39401978174E+04  0.00000000000E+00 0. -1.
         -1   -1    0    0    0  501 -0.00000000000E+00 -0.00000000000E+00 -0.79866553462E+03  0.79866553462E+03  0.00000000000E+00 0.  1.
         23    2    1    2    0    0  0.60658335168E+03  0.15259179669E+04  0.83510485863E+03  0.18446998995E+04  0.95648262516E+02 0.  0.
    5000000    2    1    2    0    0 -0.60658335168E+03 -0.15259179669E+04  0.23064274241E+04  0.28941634525E+04  0.60017132797E+03 0.  0.
         23    2    4    4    0    0 -0.67102167967E+03 -0.14658627422E+04  0.21908150431E+04  0.27215948095E+04  0.91564624390E+02 0.  0.
         23    2    4    4    0    0  0.64438327992E+02 -0.60055224691E+02  0.11561238101E+03  0.17256864301E+03  0.93031101147E+02 0.  0.
          2    1    3    3  502    0  0.33444299533E+03  0.91695113002E+03  0.45356729419E+03  0.10762782086E+04  0.00000000000E+00 0. -1.
         -2    1    3    3    0  502  0.27214035634E+03  0.60896683685E+03  0.38153756444E+03  0.76842169088E+03  0.00000000000E+00 0.  1.
         11    1    5    5    0    0 -0.37123863251E+03 -0.70892828516E+03  0.11147691668E+04  0.13722637250E+04  0.00000000000E+00 0.  1.
        -11    1    5    5    0    0 -0.29978304716E+03 -0.75693445702E+03  0.10760458763E+04  0.13493310845E+04  0.00000000000E+00 0. -1.
          3    1    6    6  503    0  0.27718825948E+02 -0.14583074925E+02  0.10939681426E+03  0.11379218935E+03  0.00000000000E+00 0. -1.
         -3    1    6    6    0  503  0.36719502043E+02 -0.45472149766E+02  0.62155667441E+01  0.58776453658E+02  0.00000000000E+00 0.  1.
<mgrwt>
<rscale>  0 0.16736006E+04</rscale>
<asrwt>0</asrwt>
<pdfrwt beam="1">  1        1 0.60618427E+00 0.16736006E+04</pdfrwt>
<pdfrwt beam="2">  1       -1 0.12287162E+00 0.16736006E+04</pdfrwt>
<totfact> 0.59621605E-02</totfact>
</mgrwt>
</event>
<event>
12    1  0.1335216E-007  0.8039080E+03  0.7818608E-02  0.9554378E-01
          1   -1    0    0  501    0  0.00000000000E+00  0.00000000000E+00  0.27328283794E+04  0.27328283794E+04  0.00000000000E+00 0. -1.
         -1   -1    0    0    0  501 -0.00000000000E+00 -0.00000000000E+00 -0.49082377641E+03  0.49082377641E+03  0.00000000000E+00 0.  1.
         23    2    1    2    0    0 -0.76802975808E+03  0.17628501351E+03  0.25965642882E+02  0.79638942158E+03  0.11231999337E+03 0.  0.
    5000000    2    1    2    0    0  0.76802975808E+03 -0.17628501351E+03  0.22160389601E+04  0.24272627343E+04  0.59985797734E+03 0.  0.
         23    2    4    4    0    0  0.49771819007E+03 -0.18966303668E+03  0.70105367261E+03  0.88519389576E+03  0.91632510592E+02 0.  0.
         23    2    4    4    0    0  0.27031156801E+03  0.13378023171E+02  0.15149852875E+04  0.15420688385E+04  0.97716763844E+02 0.  0.
          1    1    3    3  502    0 -0.88597384288E+02 -0.13000973548E+02  0.16293064252E+02  0.91016403788E+02  0.00000000000E+00 0. -1.
         -1    1    3    3    0  502 -0.67943237379E+03  0.18928598706E+03  0.96725786307E+01  0.70537301779E+03  0.00000000000E+00 0.  1.
         13    1    5    5    0    0  0.30866038262E+03 -0.84745849024E+02  0.36362539318E+03  0.48443422391E+03  0.00000000000E+00 0. -1.
        -13    1    5    5    0    0  0.18905780745E+03 -0.10491718765E+03  0.33742827943E+03  0.40075967185E+03  0.00000000000E+00 0.  1.
          1    1    6    6  503    0  0.18991362166E+03  0.35661213533E+02  0.12312994659E+04  0.12463696404E+04  0.00000000000E+00 0. -1.
         -1    1    6    6    0  503  0.80397946345E+02 -0.22283190362E+02  0.28368582164E+03  0.29569919809E+03  0.00000000000E+00 0.  1.
<mgrwt>
<rscale>  0 0.80390801E+03</rscale>
<asrwt>0</asrwt>
<pdfrwt beam="1">  1        1 0.42043513E+00 0.80390801E+03</pdfrwt>
<pdfrwt beam="2">  1       -1 0.75511351E-01 0.80390801E+03</pdfrwt>
<totfact> 0.17350404E+00</totfact>
</mgrwt>
</event>
<event>
12    1  0.1335216E-007  0.9167262E+03  0.7818608E-02  0.9404911E-01
          2   -1    0    0  501    0  0.00000000000E+00  0.00000000000E+00  0.72199908573E+03  0.72199908573E+03  0.00000000000E+00 0. -1.
         -2   -1    0    0    0  501 -0.00000000000E+00 -0.00000000000E+00 -0.12040606649E+04  0.12040606649E+04  0.00000000000E+00 0.  1.
         23    2    1    2    0    0 -0.79534307170E+03  0.24107838306E+03 -0.27796613786E+03  0.88095902745E+03  0.90190053644E+02 0.  0.
    5000000    2    1    2    0    0  0.79534307170E+03 -0.24107838306E+03 -0.20409544136E+03  0.10451007232E+04  0.59990931315E+03 0.  0.
         23    2    4    4    0    0  0.28454488143E+03  0.17175235963E+03 -0.15651602694E+03  0.37997363972E+03  0.97046574430E+02 0.  0.
         23    2    4    4    0    0  0.51079819027E+03 -0.41283074268E+03 -0.47579414422E+02  0.66512708350E+03  0.93734856024E+02 0.  0.
          4    1    3    3  502    0 -0.30826155800E+03  0.48492718091E+02 -0.96223485885E+02  0.32655120745E+03  0.00000000000E+00 0.  1.
         -4    1    3    3    0  502 -0.48708151370E+03  0.19258566496E+03 -0.18174265197E+03  0.55440782001E+03  0.00000000000E+00 0. -1.
         13    1    5    5    0    0  0.20339461973E+03  0.15040811389E+03 -0.15373426395E+03  0.29601722243E+03  0.00000000000E+00 0. -1.
        -13    1    5    5    0    0  0.81150261696E+02  0.21344245738E+02 -0.27817629857E+01  0.83956417294E+02  0.00000000000E+00 0.  1.
          3    1    6    6  503    0  0.13544664830E+03 -0.15244864772E+03  0.12810335440E+02  0.20432936505E+03  0.00000000000E+00 0. -1.
         -3    1    6    6    0  503  0.37535154197E+03 -0.26038209497E+03 -0.60389749862E+02  0.46079771845E+03  0.00000000000E+00 0.  1.
<mgrwt>
<rscale>  0 0.91672621E+03</rscale>
<asrwt>0</asrwt>
<pdfrwt beam="1">  1        2 0.11107678E+00 0.91672621E+03</pdfrwt>
<pdfrwt beam="2">  1       -2 0.18524010E+00 0.91672621E+03</pdfrwt>
<totfact> 0.65782624E+00</totfact>
</mgrwt>
</event>
<event>
12    1  0.1335216E-007  0.1222106E+04  0.7818608E-02  0.9093724E-01
         -1   -1    0    0    0  501 -0.00000000000E+00  0.00000000000E+00  0.16726602579E+04  0.16726602579E+04  0.00000000000E+00 0.  1.
          1   -1    0    0  501    0  0.00000000000E+00 -0.00000000000E+00 -0.11005782494E+04  0.11005782494E+04  0.00000000000E+00 0. -1.
         23    2    1    2    0    0 -0.10615670297E+04  0.48690263124E+03 -0.28439569617E+03  0.12054149769E+04  0.90253107915E+02 0.  0.
    5000000    2    1    2    0    0  0.10615670297E+04 -0.48690263124E+03  0.85647770463E+03  0.15678235304E+04  0.60043137240E+03 0.  0.
         23    2    4    4    0    0  0.98427142826E+03 -0.24957167619E+03  0.79964748503E+03  0.12956880663E+04  0.91077981777E+02 0.  0.
         23    2    4    4    0    0  0.77295601478E+02 -0.23733095505E+03  0.56830219593E+02  0.27213546409E+03  0.92344164527E+02 0.  0.
          4    1    3    3  502    0 -0.48537096765E+03  0.18196626918E+03 -0.15211973093E+03  0.54021950344E+03  0.00000000000E+00 0.  1.
         -4    1    3    3    0  502 -0.57619606209E+03  0.30493636206E+03 -0.13227596524E+03  0.66519547342E+03  0.00000000000E+00 0. -1.
         11    1    5    5    0    0  0.89783436714E+03 -0.25251476694E+03  0.72223268394E+03  0.11796144743E+04  0.00000000000E+00 0.  1.
        -11    1    5    5    0    0  0.86437061121E+02  0.29430907508E+01  0.77414801097E+02  0.11607359195E+03  0.00000000000E+00 0. -1.
          4    1    6    6  503    0  0.20540338077E+02 -0.15289992344E+02  0.32928071665E+02  0.41712675025E+02  0.00000000000E+00 0. -1.
         -4    1    6    6    0  503  0.56755263401E+02 -0.22204096271E+03  0.23902147928E+02  0.23042278907E+03  0.00000000000E+00 0.  1.
<mgrwt>
<rscale>  0 0.12221062E+04</rscale>
<asrwt>0</asrwt>
<pdfrwt beam="1">  1        1 0.16931973E+00 0.12221062E+04</pdfrwt>
<pdfrwt beam="2">  1       -1 0.25733235E+00 0.12221062E+04</pdfrwt>
<totfact> 0.77463730E-01</totfact>
</mgrwt>
</event>
<event>
12    1  0.1335216E-007  0.3085991E+04  0.7818608E-02  0.8219593E-01
          2   -1    0    0  501    0  0.00000000000E+00  0.00000000000E+00  0.40553546359E+04  0.40553546359E+04  0.00000000000E+00 0. -1.
         -2   -1    0    0    0  501 -0.00000000000E+00 -0.00000000000E+00 -0.23795469011E+04  0.23795469011E+04  0.00000000000E+00 0.  1.
         23    2    1    2    0    0 -0.30584624416E+04 -0.70442751601E+02  0.49078909133E+03  0.30997246746E+04  0.90908958128E+02 0.  0.
    5000000    2    1    2    0    0  0.30584624416E+04  0.70442751601E+02  0.11850186435E+04  0.33351768624E+04  0.59998402515E+03 0.  0.
         23    2    4    4    0    0  0.27482240202E+04  0.21561056496E+03  0.11140095622E+04  0.29746433590E+04  0.90898996345E+02 0.  0.
         23    2    4    4    0    0  0.31023842141E+03 -0.14516781336E+03  0.71009081231E+02  0.36053350345E+03  0.87295734934E+02 0.  0.
          3    1    3    3  502    0 -0.16374401843E+04  0.67889718765E+01  0.27143937469E+03  0.16597999221E+04  0.00000000000E+00 0. -1.
         -3    1    3    3    0  502 -0.14210222573E+04 -0.77231723477E+02  0.21934971664E+03  0.14399247526E+04  0.00000000000E+00 0.  1.
         11    1    5    5    0    0  0.15210531119E+04  0.77597061257E+02  0.59614137236E+03  0.16355452941E+04  0.00000000000E+00 0. -1.
        -11    1    5    5    0    0  0.12271709082E+04  0.13801350371E+03  0.51786818989E+03  0.13390980649E+04  0.00000000000E+00 0.  1.
          2    1    6    6  503    0 -0.40523822608E+01  0.38955213537E+01  0.98169848338E+00  0.57061914196E+01  0.00000000000E+00 0. -1.
         -2    1    6    6    0  503  0.31429080367E+03 -0.14906333472E+03  0.70027382747E+02  0.35482731203E+03  0.00000000000E+00 0.  1.
<mgrwt>
<rscale>  0 0.30859909E+04</rscale>
<asrwt>0</asrwt>
<pdfrwt beam="1">  1        2 0.62390071E+00 0.30859909E+04</pdfrwt>
<pdfrwt beam="2">  1       -2 0.36608414E+00 0.30859909E+04</pdfrwt>
<totfact> 0.29850131E-03</totfact>
</mgrwt>
</event>
<event>
12    1  0.1335216E-007  0.1300261E+04  0.7818608E-02  0.9029359E-01
         -2   -1    0    0    0  501 -0.00000000000E+00  0.00000000000E+00  0.11844633897E+04  0.11844633897E+04  0.00000000000E+00 0.  1.
          2   -1    0    0  501    0  0.00000000000E+00 -0.00000000000E+00 -0.15025604971E+04  0.15025604971E+04  0.00000000000E+00 0. -1.
         23    2    1    2    0    0  0.47777741096E+03 -0.11705522871E+04 -0.19109066203E+03  0.12819003815E+04  0.91044141199E+02 0.  0.
    5000000    2    1    2    0    0 -0.47777741096E+03  0.11705522871E+04 -0.12700644536E+03  0.14051235053E+04  0.59981456852E+03 0.  0.
         23    2    4    4    0    0 -0.34524776562E+03  0.11515035432E+04 -0.20891616461E+03  0.12235488100E+04  0.90935675473E+02 0.  0.
         23    2    4    4    0    0 -0.13252964534E+03  0.19048743932E+02  0.81909719252E+02  0.18157469524E+03  0.91286397142E+02 0.  0.
          1    1    3    3  502    0  0.45220333583E+03 -0.10954443983E+04 -0.15669939524E+03  0.11954250237E+04  0.00000000000E+00 0. -1.
         -1    1    3    3    0  502  0.25574075137E+02 -0.75107888777E+02 -0.34391266793E+02  0.86475357804E+02  0.00000000000E+00 0.  1.
         13    1    5    5    0    0 -0.10643838906E+03  0.34744621160E+03 -0.21035837961E+02  0.36399245472E+03  0.00000000000E+00 0. -1.
        -13    1    5    5    0    0 -0.23880937656E+03  0.80405733159E+03 -0.18788032665E+03  0.85955635531E+03  0.00000000000E+00 0.  1.
          1    1    6    6  503    0 -0.11088065167E+03  0.15052928120E+02  0.17186478824E+02  0.11320991394E+03  0.00000000000E+00 0. -1.
         -1    1    6    6    0  503 -0.21648993676E+02  0.39958158118E+01  0.64723240428E+02  0.68364781303E+02  0.00000000000E+00 0.  1.
<mgrwt>
<rscale>  0 0.13002605E+04</rscale>
<asrwt>0</asrwt>
<pdfrwt beam="1">  1        2 0.23116315E+00 0.13002605E+04</pdfrwt>
<pdfrwt beam="2">  1       -2 0.18222514E+00 0.13002605E+04</pdfrwt>
<totfact> 0.21273394E+00</totfact>
</mgrwt>
</event>
<event>
12    1  0.1335216E-007  0.1538896E+04  0.7818608E-02  0.8858992E-01
         -2   -1    0    0    0  501 -0.00000000000E+00  0.00000000000E+00  0.12967222657E+04  0.12967222657E+04  0.00000000000E+00 0. -1.
          2   -1    0    0  501    0  0.00000000000E+00 -0.00000000000E+00 -0.34533794386E+04  0.34533794386E+04  0.00000000000E+00 0.  1.
         23    2    1    2    0    0 -0.68280119289E+03  0.13487869180E+04  0.53481501585E+03  0.16053872593E+04  0.76141526603E+02 0.  0.
    5000000    2    1    2    0    0  0.68280119289E+03 -0.13487869180E+04 -0.26914721888E+04  0.31447144450E+04  0.59980228293E+03 0.  0.
         23    2    4    4    0    0  0.11402634300E+03 -0.64831150974E+03 -0.15518410148E+04  0.16883287951E+04  0.94518594252E+02 0.  0.
         23    2    4    4    0    0  0.56877484990E+03 -0.70047540822E+03 -0.11396311740E+04  0.14563856499E+04  0.90162747932E+02 0.  0.
          1    1    3    3  502    0 -0.39395243200E+03  0.72855434414E+03  0.26043202826E+03  0.86822508164E+03  0.00000000000E+00 0. -1.
         -1    1    3    3    0  502 -0.28884876090E+03  0.62023257383E+03  0.27438298760E+03  0.73716217767E+03  0.00000000000E+00 0.  1.
         13    1    5    5    0    0  0.11232880782E+03 -0.52395835545E+03 -0.11731808103E+04  0.12897687129E+04  0.00000000000E+00 0. -1.
        -13    1    5    5    0    0  0.16975351795E+01 -0.12435315429E+03 -0.37866020451E+03  0.39856008216E+03  0.00000000000E+00 0.  1.
          1    1    6    6  503    0  0.41874482615E+03 -0.56284645232E+03 -0.84505532652E+03  0.10982995325E+04  0.00000000000E+00 0. -1.
         -1    1    6    6    0  503  0.15003002375E+03 -0.13762895590E+03 -0.29457584751E+03  0.35808611739E+03  0.00000000000E+00 0.  1.
<mgrwt>
<rscale>  0 0.15388960E+04</rscale>
<asrwt>0</asrwt>
<pdfrwt beam="1">  1        2 0.53128915E+00 0.15388960E+04</pdfrwt>
<pdfrwt beam="2">  1       -2 0.19949573E+00 0.15388960E+04</pdfrwt>
<totfact> 0.11064499E-01</totfact>
</mgrwt>
</event>
<event>
12    1  0.1335216E-007  0.9105769E+03  0.7818608E-02  0.9412456E-01
          2   -1    0    0  501    0  0.00000000000E+00  0.00000000000E+00  0.39964446919E+04  0.39964446919E+04  0.00000000000E+00 0. -1.
         -2   -1    0    0    0  501 -0.00000000000E+00 -0.00000000000E+00 -0.27146390756E+03  0.27146390756E+03  0.00000000000E+00 0.  1.
         23    2    1    2    0    0  0.51840286322E+02  0.89411321568E+03  0.10485011408E+04  0.13824416100E+04  0.98307196826E+02 0.  0.
    5000000    2    1    2    0    0 -0.51840286322E+02 -0.89411321568E+03  0.26764796435E+04  0.28854669895E+04  0.60020880319E+03 0.  0.
         23    2    4    4    0    0 -0.60091025945E+02 -0.14002903891E+03  0.13112809655E+04  0.13232369277E+04  0.90989742064E+02 0.  0.
         23    2    4    4    0    0  0.82507396232E+01 -0.75408417677E+03  0.13651986780E+04  0.15622300618E+04  0.89912819663E+02 0.  0.
          2    1    3    3  502    0 -0.11274790511E+02  0.59947361941E+03  0.70702500501E+03  0.92702756107E+03  0.00000000000E+00 0. -1.
         -2    1    3    3    0  502  0.63115076832E+02  0.29463959627E+03  0.34147613580E+03  0.45541404890E+03  0.00000000000E+00 0.  1.
         13    1    5    5    0    0 -0.14521672917E+02 -0.97353498680E+02  0.10498703336E+04  0.10544744189E+04  0.00000000000E+00 0.  1.
        -13    1    5    5    0    0 -0.45569353028E+02 -0.42675540232E+02  0.26141063189E+03  0.26876250880E+03  0.00000000000E+00 0. -1.
          3    1    6    6  503    0 -0.37455194937E+02 -0.48547137184E+03  0.86425519008E+03  0.99197902099E+03  0.00000000000E+00 0. -1.
         -3    1    6    6    0  503  0.45705934560E+02 -0.26861280494E+03  0.50094348794E+03  0.57025104080E+03  0.00000000000E+00 0.  1.
<mgrwt>
<rscale>  0 0.91057691E+03</rscale>
<asrwt>0</asrwt>
<pdfrwt beam="1">  1        2 0.61483760E+00 0.91057691E+03</pdfrwt>
<pdfrwt beam="2">  1       -2 0.41763681E-01 0.91057691E+03</pdfrwt>
<totfact> 0.20057934E+00</totfact>
</mgrwt>
</event>
<event>
12    1  0.1335216E-007  0.3785501E+03  0.7818608E-02  0.1051471E+00
         -2   -1    0    0    0  501 -0.00000000000E+00  0.00000000000E+00  0.77029973344E+03  0.77029973344E+03  0.00000000000E+00 0.  1.
          2   -1    0    0  501    0  0.00000000000E+00 -0.00000000000E+00 -0.64545670172E+03  0.64545670172E+03  0.00000000000E+00 0. -1.
         23    2    1    2    0    0  0.10775544891E+03 -0.25183940263E+03 -0.45484148587E+03  0.53783541686E+03  0.85742853205E+02 0.  0.
    5000000    2    1    2    0    0 -0.10775544891E+03  0.25183940263E+03  0.57968451759E+03  0.87792101829E+03  0.59973065032E+03 0.  0.
         23    2    4    4    0    0 -0.23121375708E+03  0.10026348575E+03  0.10364808798E+02  0.26897497817E+03  0.93421312239E+02 0.  0.
         23    2    4    4    0    0  0.12345830817E+03  0.15157591687E+03  0.56931970880E+03  0.60894604012E+03  0.92049641634E+02 0.  0.
          4    1    3    3  502    0  0.34000669613E+02 -0.82744538170E+02 -0.23133001966E+03  0.24802476112E+03  0.00000000000E+00 0. -1.
         -4    1    3    3    0  502  0.73754779298E+02 -0.16909486446E+03 -0.22351146621E+03  0.28981065574E+03  0.00000000000E+00 0.  1.
         13    1    5    5    0    0 -0.15045310704E+03  0.16496949673E+02 -0.59910615100E+01  0.15147336262E+03  0.00000000000E+00 0. -1.
        -13    1    5    5    0    0 -0.80760650041E+02  0.83766536082E+02  0.16355870308E+02  0.11750161554E+03  0.00000000000E+00 0.  1.
          1    1    6    6  503    0  0.37824267459E+02 -0.38241449764E+01  0.83784968494E+02  0.92006631495E+02  0.00000000000E+00 0. -1.
         -1    1    6    6    0  503  0.85634040712E+02  0.15540006185E+03  0.48553474030E+03  0.51693940863E+03  0.00000000000E+00 0.  1.
<mgrwt>
<rscale>  0 0.37855005E+03</rscale>
<asrwt>0</asrwt>
<pdfrwt beam="1">  1        2 0.99301031E-01 0.37855005E+03</pdfrwt>
<pdfrwt beam="2">  1       -2 0.11850765E+00 0.37855005E+03</pdfrwt>
<totfact> 0.26313081E+01</totfact>
</mgrwt>
</event>
<event>
12    1  0.1335216E-007  0.5023509E+03  0.7818608E-02  0.1013167E+00
          1   -1    0    0  501    0  0.00000000000E+00  0.00000000000E+00  0.18297559800E+04  0.18297559800E+04  0.00000000000E+00 0. -1.
         -1   -1    0    0    0  501 -0.00000000000E+00 -0.00000000000E+00 -0.26971493986E+03  0.26971493986E+03  0.00000000000E+00 0.  1.
         23    2    1    2    0    0  0.43882870639E+03  0.10244772644E+02  0.11870088001E+04  0.12677270806E+04  0.73935582837E+02 0.  0.
    5000000    2    1    2    0    0 -0.43882870639E+03 -0.10244772644E+02  0.37303223998E+03  0.83174383921E+03  0.59997431035E+03 0.  0.
         23    2    4    4    0    0 -0.20970413485E+03  0.15961589977E+03  0.44442910149E+03  0.52435039964E+03  0.89291968941E+02 0.  0.
         23    2    4    4    0    0 -0.22912457154E+03 -0.16986067241E+03 -0.71396861511E+02  0.30739343957E+03  0.89679972912E+02 0.  0.
          1    1    3    3  502    0  0.71340535095E+02 -0.13816223304E+02  0.26794603641E+03  0.27762463580E+03  0.00000000000E+00 0. -1.
         -1    1    3    3    0  502  0.36748817129E+03  0.24060995948E+02  0.91906276371E+03  0.99010244480E+03  0.00000000000E+00 0.  1.
         11    1    5    5    0    0 -0.85151611944E+02  0.11806620231E+03  0.25965490383E+03  0.29767615663E+03  0.00000000000E+00 0. -1.
        -11    1    5    5    0    0 -0.12455252290E+03  0.41549697455E+02  0.18477419766E+03  0.22667424300E+03  0.00000000000E+00 0.  1.
          4    1    6    6  503    0 -0.95828114177E+02 -0.90219349227E+02 -0.76126253105E+02  0.15204527238E+03  0.00000000000E+00 0. -1.
         -4    1    6    6    0  503 -0.13329645736E+03 -0.79641323187E+02  0.47293915939E+01  0.15534816719E+03  0.00000000000E+00 0.  1.
<mgrwt>
<rscale>  0 0.50235092E+03</rscale>
<asrwt>0</asrwt>
<pdfrwt beam="1">  1        1 0.28150091E+00 0.50235092E+03</pdfrwt>
<pdfrwt beam="2">  1       -1 0.41494607E-01 0.50235092E+03</pdfrwt>
<totfact> 0.23927038E+01</totfact>
</mgrwt>
</event>
<event>
12    1  0.1335216E-007  0.7345583E+03  0.7818608E-02  0.9659892E-01
          2   -1    0    0  501    0  0.00000000000E+00  0.00000000000E+00  0.24468405286E+04  0.24468405286E+04  0.00000000000E+00 0. -1.
         -2   -1    0    0    0  501 -0.00000000000E+00 -0.00000000000E+00 -0.30344416610E+03  0.30344416610E+03  0.00000000000E+00 0.  1.
         23    2    1    2    0    0 -0.57305304729E+03 -0.42952835153E+03  0.56799603280E+03  0.91866834219E+03  0.91910988965E+02 0.  0.
    5000000    2    1    2    0    0  0.57305304729E+03  0.42952835153E+03  0.15754003297E+04  0.18316163525E+04  0.60003988554E+03 0.  0.
         23    2    4    4    0    0  0.78589636041E+02  0.13985167612E+03  0.38673469352E+02  0.18893839342E+03  0.92017699770E+02 0.  0.
         23    2    4    4    0    0  0.49446341125E+03  0.28967667540E+03  0.15367268604E+04  0.16426779591E+04  0.91949946472E+02 0.  0.
          1    1    3    3  502    0 -0.60080591422E+02 -0.41967962905E+02  0.97542970274E+02  0.12200663271E+03  0.00000000000E+00 0. -1.
         -1    1    3    3    0  502 -0.51297245587E+03 -0.38756038862E+03  0.47045306253E+03  0.79666170948E+03  0.00000000000E+00 0.  1.
         13    1    5    5    0    0  0.53379998110E+02  0.21257532186E+02 -0.99420395050E+01  0.58310813940E+02  0.00000000000E+00 0.  1.
        -13    1    5    5    0    0  0.25209637931E+02  0.11859414393E+03  0.48615508857E+02  0.13062757948E+03  0.00000000000E+00 0. -1.
          1    1    6    6  503    0  0.20356613469E+03  0.98754063316E+02  0.49201886884E+03  0.54154787739E+03  0.00000000000E+00 0. -1.
         -1    1    6    6    0  503  0.29089727656E+03  0.19092261209E+03  0.10447079915E+04  0.11011300817E+04  0.00000000000E+00 0.  1.
<mgrwt>
<rscale>  0 0.73455831E+03</rscale>
<asrwt>0</asrwt>
<pdfrwt beam="1">  1        2 0.37643699E+00 0.73455831E+03</pdfrwt>
<pdfrwt beam="2">  1       -2 0.46683719E-01 0.73455831E+03</pdfrwt>
<totfact> 0.17028548E+01</totfact>
</mgrwt>
</event>
<event>
12    1  0.1335216E-007  0.8087222E+03  0.7818608E-02  0.9547477E-01
          2   -1    0    0  501    0  0.00000000000E+00  0.00000000000E+00  0.32418989665E+04  0.32418989665E+04  0.00000000000E+00 0.  1.
         -2   -1    0    0    0  501 -0.00000000000E+00 -0.00000000000E+00 -0.29369772400E+03  0.29369772400E+03  0.00000000000E+00 0. -1.
         23    2    1    2    0    0 -0.24422956643E+03 -0.70763421689E+03  0.49769670797E+03  0.90399335854E+03  0.95434339322E+02 0.  0.
    5000000    2    1    2    0    0  0.24422956643E+03  0.70763421689E+03  0.24505045345E+04  0.26316033320E+04  0.59997446367E+03 0.  0.
         23    2    4    4    0    0  0.28620379759E+03  0.20770964152E+03  0.15872371676E+04  0.16289329454E+04  0.95104182153E+02 0.  0.
         23    2    4    4    0    0 -0.41974231154E+02  0.49992457537E+03  0.86326736692E+03  0.10026703866E+04  0.91820151187E+02 0.  0.
          4    1    3    3  502    0 -0.12811381622E+03 -0.47037845487E+03  0.28378927565E+03  0.56409697188E+03  0.00000000000E+00 0. -1.
         -4    1    3    3    0  502 -0.11611575021E+03 -0.23725576202E+03  0.21390743233E+03  0.33989638666E+03  0.00000000000E+00 0.  1.
         11    1    5    5    0    0  0.11928692354E+03  0.11398805539E+03  0.92430471534E+03  0.93891525373E+03  0.00000000000E+00 0. -1.
        -11    1    5    5    0    0  0.16691687405E+03  0.93721586136E+02  0.66293245226E+03  0.69001769166E+03  0.00000000000E+00 0.  1.
          3    1    6    6  503    0 -0.41549650082E+02  0.86733064209E+02  0.18355483233E+03  0.20722300626E+03  0.00000000000E+00 0. -1.
         -3    1    6    6    0  503 -0.42458107247E+00  0.41319151116E+03  0.67971253459E+03  0.79544738031E+03  0.00000000000E+00 0.  1.
<mgrwt>
<rscale>  0 0.80872216E+03</rscale>
<asrwt>0</asrwt>
<pdfrwt beam="1">  1        2 0.49875366E+00 0.80872216E+03</pdfrwt>
<pdfrwt beam="2">  1       -2 0.45184267E-01 0.80872216E+03</pdfrwt>
<totfact> 0.60035612E+00</totfact>
</mgrwt>
</event>
<event>
12    1  0.1335216E-007  0.1111583E+04  0.7818608E-02  0.9193976E-01
          2   -1    0    0  501    0  0.00000000000E+00  0.00000000000E+00  0.15100203366E+04  0.15100203366E+04  0.00000000000E+00 0. -1.
         -2   -1    0    0    0  501 -0.00000000000E+00 -0.00000000000E+00 -0.10087929412E+04  0.10087929412E+04  0.00000000000E+00 0.  1.
         23    2    1    2    0    0 -0.65921163448E+03  0.88568434787E+03 -0.12494437019E+03  0.11148574884E+04  0.91100936585E+02 0.  0.
    5000000    2    1    2    0    0  0.65921163448E+03 -0.88568434787E+03  0.62617176560E+03  0.14039557895E+04  0.60000336310E+03 0.  0.
         23    2    4    4    0    0  0.49663494099E+03 -0.62869465492E+03  0.13262195873E+03  0.81719214699E+03  0.91165714161E+02 0.  0.
         23    2    4    4    0    0  0.16257669349E+03 -0.25698969295E+03  0.49354980687E+03  0.58676364250E+03  0.90693311505E+02 0.  0.
          1    1    3    3  502    0 -0.48757983229E+03  0.64194861994E+03 -0.51065113831E+02  0.80773743837E+03  0.00000000000E+00 0. -1.
         -1    1    3    3    0  502 -0.17163180219E+03  0.24373572793E+03 -0.73879256362E+02  0.30712005000E+03  0.00000000000E+00 0.  1.
         13    1    5    5    0    0  0.20682251166E+03 -0.33089639750E+03  0.80002091446E+02  0.39833191165E+03  0.00000000000E+00 0.  1.
        -13    1    5    5    0    0  0.28981242933E+03 -0.29779825742E+03  0.52619867283E+02  0.41886023534E+03  0.00000000000E+00 0. -1.
          3    1    6    6  503    0  0.14517762903E+03 -0.16591808438E+03  0.38809973091E+03  0.44634824501E+03  0.00000000000E+00 0. -1.
         -3    1    6    6    0  503  0.17399064464E+02 -0.91071608570E+02  0.10545007596E+03  0.14041539749E+03  0.00000000000E+00 0.  1.
<mgrwt>
<rscale>  0 0.11115827E+04</rscale>
<asrwt>0</asrwt>
<pdfrwt beam="1">  1        2 0.23231082E+00 0.11115827E+04</pdfrwt>
<pdfrwt beam="2">  1       -2 0.15519891E+00 0.11115827E+04</pdfrwt>
<totfact> 0.33606211E+00</totfact>
</mgrwt>
</event>
<event>
12    1  0.1335216E-007  0.7325425E+03  0.7818608E-02  0.9663144E-01
          2   -1    0    0  501    0  0.00000000000E+00  0.00000000000E+00  0.25502583769E+04  0.25502583769E+04  0.00000000000E+00 0. -1.
         -2   -1    0    0    0  501 -0.00000000000E+00 -0.00000000000E+00 -0.21571451206E+03  0.21571451206E+03  0.00000000000E+00 0.  1.
         23    2    1    2    0    0  0.29742143090E+03 -0.53801498189E+03  0.88077842388E+03  0.10774330865E+04  0.84686454839E+02 0.  0.
    5000000    2    1    2    0    0 -0.29742143090E+03  0.53801498189E+03  0.14537654410E+04  0.16885398025E+04  0.59984421216E+03 0.  0.
         23    2    4    4    0    0 -0.42819738241E+03  0.53855085658E+03  0.12529122295E+04  0.14325318917E+04  0.94702388304E+02 0.  0.
         23    2    4    4    0    0  0.13077595152E+03 -0.53587469151E+00  0.20085321148E+03  0.25600791082E+03  0.89974447392E+02 0.  0.
          2    1    3    3  502    0  0.14407248127E+03 -0.25890962567E+03  0.49826500464E+03  0.57970603669E+03  0.00000000000E+00 0.  1.
         -2    1    3    3    0  502  0.15334894963E+03 -0.27910535622E+03  0.38251341924E+03  0.49772704982E+03  0.00000000000E+00 0. -1.
         13    1    5    5    0    0 -0.18439855225E+03  0.17543119285E+03  0.52224643604E+03  0.58096494684E+03  0.00000000000E+00 0.  1.
        -13    1    5    5    0    0 -0.24379883017E+03  0.36311966373E+03  0.73066579348E+03  0.85156694484E+03  0.00000000000E+00 0. -1.
          4    1    6    6  503    0  0.47869003121E+02  0.43399286376E+02  0.74295071590E+02  0.98461653350E+02  0.00000000000E+00 0. -1.
         -4    1    6    6    0  503  0.82906948396E+02 -0.43935161067E+02  0.12655813989E+03  0.15754625747E+03  0.00000000000E+00 0.  1.
<mgrwt>
<rscale>  0 0.73254252E+03</rscale>
<asrwt>0</asrwt>
<pdfrwt beam="1">  1        2 0.39234742E+00 0.73254252E+03</pdfrwt>
<pdfrwt beam="2">  1       -2 0.33186850E-01 0.73254252E+03</pdfrwt>
<totfact> 0.28903911E+01</totfact>
</mgrwt>
</event>
<event>
12    1  0.1335216E-007  0.5217685E+03  0.7818608E-02  0.1008248E+00
         -1   -1    0    0    0  501 -0.00000000000E+00  0.00000000000E+00  0.32899778418E+03  0.32899778418E+03  0.00000000000E+00 0.  1.
          1   -1    0    0  501    0  0.00000000000E+00 -0.00000000000E+00 -0.13726133628E+04  0.13726133628E+04  0.00000000000E+00 0. -1.
         23    2    1    2    0    0 -0.31275370156E+03 -0.36067322505E+03 -0.11923360485E+03  0.50044598615E+03  0.91265981712E+02 0.  0.
    5000000    2    1    2    0    0  0.31275370156E+03  0.36067322505E+03 -0.92438197377E+03  0.12011651608E+04  0.60034628093E+03 0.  0.
         23    2    4    4    0    0  0.33202222654E+03  0.33445573017E+03 -0.97793471422E+03  0.10894034089E+04  0.91345978168E+02 0.  0.
         23    2    4    4    0    0 -0.19268524973E+02  0.26217494875E+02  0.53552740446E+02  0.11176175190E+03  0.92542747350E+02 0.  0.
          4    1    3    3  502    0 -0.13321134804E+03 -0.19957241517E+03 -0.24150344245E+02  0.24115897510E+03  0.00000000000E+00 0. -1.
         -4    1    3    3    0  502 -0.17954235353E+03 -0.16110080988E+03 -0.95083260601E+02  0.25928701105E+03  0.00000000000E+00 0.  1.
         11    1    5    5    0    0  0.26693205223E+03  0.25366737657E+03 -0.83679618375E+03  0.91423613556E+03  0.00000000000E+00 0. -1.
        -11    1    5    5    0    0  0.65090174313E+02  0.80788353602E+02 -0.14113853047E+03  0.17516727335E+03  0.00000000000E+00 0.  1.
          4    1    6    6  503    0 -0.51161511432E+02  0.36125078091E+01  0.51398366299E+02  0.72610898100E+02  0.00000000000E+00 0. -1.
         -4    1    6    6    0  503  0.31892986459E+02  0.22604987066E+02  0.21543741468E+01  0.39150853803E+02  0.00000000000E+00 0.  1.
<mgrwt>
<rscale>  0 0.52176851E+03</rscale>
<asrwt>0</asrwt>
<pdfrwt beam="1">  1        1 0.21117128E+00 0.52176851E+03</pdfrwt>
<pdfrwt beam="2">  1       -1 0.50615044E-01 0.52176851E+03</pdfrwt>
<totfact> 0.33500795E+01</totfact>
</mgrwt>
</event>
<event>
12    1  0.1335216E-007  0.8604555E+03  0.7818608E-02  0.9476410E-01
          1   -1    0    0  501    0  0.00000000000E+00  0.00000000000E+00  0.19392423442E+04  0.19392423442E+04  0.00000000000E+00 0. -1.
         -1   -1    0    0    0  501 -0.00000000000E+00 -0.00000000000E+00 -0.55889744641E+03  0.55889744641E+03  0.00000000000E+00 0.  1.
         23    2    1    2    0    0  0.11051726442E+02  0.78163033039E+03 -0.18345193338E+02  0.78717188188E+03  0.90746412931E+02 0.  0.
    5000000    2    1    2    0    0 -0.11051726442E+02 -0.78163033039E+03  0.13986900911E+04  0.17109679087E+04  0.60000758302E+03 0.  0.
         23    2    4    4    0    0 -0.25247577270E+03 -0.40284084334E+03  0.46484145207E+03  0.67086017883E+03  0.89168621767E+02 0.  0.
         23    2    4    4    0    0  0.24142404626E+03 -0.37878948704E+03  0.93384863906E+03  0.10401077299E+04  0.89351908472E+02 0.  0.
          1    1    3    3  502    0 -0.20115118989E+02  0.55261751401E+03 -0.43453698088E+02  0.55468816345E+03  0.00000000000E+00 0. -1.
         -1    1    3    3    0  502  0.31166845430E+02  0.22901281638E+03  0.25108504750E+02  0.23248371842E+03  0.00000000000E+00 0.  1.
         11    1    5    5    0    0 -0.18163626774E+03 -0.20971394064E+03  0.28285536326E+03  0.39620553653E+03  0.00000000000E+00 0. -1.
        -11    1    5    5    0    0 -0.70839504956E+02 -0.19312690271E+03  0.18198608881E+03  0.27465464229E+03  0.00000000000E+00 0.  1.
          1    1    6    6  503    0  0.23825138712E+03 -0.34243132427E+03  0.81168788271E+03  0.91261172151E+03  0.00000000000E+00 0. -1.
         -1    1    6    6    0  503  0.31726591386E+01 -0.36358162776E+02  0.12216075635E+03  0.12749600840E+03  0.00000000000E+00 0.  1.
<mgrwt>
<rscale>  0 0.86045552E+03</rscale>
<asrwt>0</asrwt>
<pdfrwt beam="1">  1        1 0.29834497E+00 0.86045552E+03</pdfrwt>
<pdfrwt beam="2">  1       -1 0.85984223E-01 0.86045552E+03</pdfrwt>
<totfact> 0.45085467E+00</totfact>
</mgrwt>
</event>
<event>
12    1  0.1335216E-007  0.3898126E+03  0.7818608E-02  0.1047365E+00
          2   -1    0    0  501    0  0.00000000000E+00  0.00000000000E+00  0.15917348474E+04  0.15917348474E+04  0.00000000000E+00 0. -1.
         -2   -1    0    0    0  501 -0.00000000000E+00 -0.00000000000E+00 -0.13626069287E+03  0.13626069287E+03  0.00000000000E+00 0.  1.
         23    2    1    2    0    0  0.23061594648E+03  0.86047932409E+02  0.59785041528E+03  0.65274908359E+03  0.89823636274E+02 0.  0.
    5000000    2    1    2    0    0 -0.23061594648E+03 -0.86047932409E+02  0.85762373923E+03  0.10752464567E+04  0.60004041784E+03 0.  0.
         23    2    4    4    0    0 -0.26845395505E+02  0.17232138866E+03  0.58193532354E+02  0.20522717253E+03  0.91194127473E+02 0.  0.
         23    2    4    4    0    0 -0.20377055098E+03 -0.25836932107E+03  0.79943020688E+03  0.87001928414E+03  0.97814904727E+02 0.  0.
          4    1    3    3  502    0  0.87785429759E+01  0.17814176871E+02  0.13554044620E+02  0.24044122773E+02  0.00000000000E+00 0.  1.
         -4    1    3    3    0  502  0.22183740351E+03  0.68233755538E+02  0.58429637066E+03  0.62870496082E+03  0.00000000000E+00 0. -1.
         11    1    5    5    0    0 -0.53157464059E+02  0.12461136002E+03  0.65102095486E+02  0.15030632012E+03  0.00000000000E+00 0. -1.
        -11    1    5    5    0    0  0.26312068555E+02  0.47710028643E+02 -0.69085631317E+01  0.54920852408E+02  0.00000000000E+00 0.  1.
          4    1    6    6  503    0 -0.11309738071E+03 -0.82993582847E+02  0.41124167661E+03  0.43450968793E+03  0.00000000000E+00 0. -1.
         -4    1    6    6    0  503 -0.90673170265E+02 -0.17537573823E+03  0.38818853026E+03  0.43550959621E+03  0.00000000000E+00 0.  1.
<mgrwt>
<rscale>  0 0.38981256E+03</rscale>
<asrwt>0</asrwt>
<pdfrwt beam="1">  1        2 0.24488227E+00 0.38981256E+03</pdfrwt>
<pdfrwt beam="2">  1       -2 0.20963185E-01 0.38981256E+03</pdfrwt>
<totfact> 0.23325330E+02</totfact>
</mgrwt>
</event>
<event>
12    1  0.1335216E-007  0.4768487E+03  0.7818608E-02  0.1020005E+00
          1   -1    0    0  501    0  0.00000000000E+00  0.00000000000E+00  0.28610385522E+03  0.28610385522E+03  0.00000000000E+00 0. -1.
         -1   -1    0    0    0  501 -0.00000000000E+00 -0.00000000000E+00 -0.10481434607E+04  0.10481434607E+04  0.00000000000E+00 0.  1.
         23    2    1    2    0    0  0.21712619364E+03  0.23969699236E+03 -0.50077676237E+03  0.60423746768E+03  0.98626160336E+02 0.  0.
    5000000    2    1    2    0    0 -0.21712619364E+03 -0.23969699236E+03 -0.26126284315E+03  0.73000984828E+03  0.60004805913E+03 0.  0.
         23    2    4    4    0    0  0.83463851309E+02  0.12458294875E+03  0.13393685641E+02  0.17607025997E+03  0.91291949456E+02 0.  0.
         23    2    4    4    0    0 -0.30059004495E+03 -0.36427994111E+03 -0.27465652879E+03  0.55393958831E+03  0.91425423534E+02 0.  0.
          1    1    3    3  502    0  0.20011695108E+03  0.20840090230E+03 -0.37429979095E+03  0.47284042096E+03  0.00000000000E+00 0.  1.
         -1    1    3    3    0  502  0.17009242557E+02  0.31296090057E+02 -0.12647697142E+03  0.13139704671E+03  0.00000000000E+00 0. -1.
         13    1    5    5    0    0  0.19021589852E+01  0.11203407523E+01  0.27353586952E+02  0.27442523414E+02  0.00000000000E+00 0. -1.
        -13    1    5    5    0    0  0.81561692324E+02  0.12346260800E+03 -0.13959901311E+02  0.14862773656E+03  0.00000000000E+00 0.  1.
          2    1    6    6  503    0 -0.17811709697E+03 -0.15320663448E+03 -0.10902385541E+03  0.25900612759E+03  0.00000000000E+00 0. -1.
         -2    1    6    6    0  503 -0.12247294798E+03 -0.21107330663E+03 -0.16563267338E+03  0.29493346072E+03  0.00000000000E+00 0.  1.
<mgrwt>
<rscale>  0 0.47684871E+03</rscale>
<asrwt>0</asrwt>
<pdfrwt beam="1">  1        1 0.44015978E-01 0.47684871E+03</pdfrwt>
<pdfrwt beam="2">  1       -1 0.16125284E+00 0.47684871E+03</pdfrwt>
<totfact> 0.28177151E+01</totfact>
</mgrwt>
</event>
<event>
12    1  0.1335216E-007  0.3245703E+03  0.7818608E-02  0.1073565E+00
          2   -1    0    0  501    0  0.00000000000E+00  0.00000000000E+00  0.42337768942E+03  0.42337768942E+03  0.00000000000E+00 0. -1.
         -2   -1    0    0    0  501 -0.00000000000E+00 -0.00000000000E+00 -0.48925393655E+03  0.48925393655E+03  0.00000000000E+00 0.  1.
         23    2    1    2    0    0  0.19490816761E+03 -0.94929607765E+02  0.96300310345E+02  0.25432906825E+03  0.91698969194E+02 0.  0.
    5000000    2    1    2    0    0 -0.19490816761E+03  0.94929607765E+02 -0.16217655747E+03  0.65830255772E+03  0.60005016247E+03 0.  0.
         23    2    4    4    0    0  0.86278323075E+02 -0.57241294362E+01 -0.29519219511E+03  0.32155460203E+03  0.93713474683E+02 0.  0.
         23    2    4    4    0    0 -0.28118649069E+03  0.10065373720E+03  0.13301563765E+03  0.33674795569E+03  0.80678426153E+02 0.  0.
          1    1    3    3  502    0  0.87593117641E+02 -0.13745246426E+02 -0.32761178770E+00  0.88665626862E+02  0.00000000000E+00 0. -1.
         -1    1    3    3    0  502  0.10731504997E+03 -0.81184361340E+02  0.96627922133E+02  0.16566344139E+03  0.00000000000E+00 0.  1.
         13    1    5    5    0    0  0.27212447362E+01 -0.37690633698E+02 -0.97261170236E+02  0.10434425848E+03  0.00000000000E+00 0.  1.
        -13    1    5    5    0    0  0.83557078339E+02  0.31966504262E+02 -0.19793102488E+03  0.21721034355E+03  0.00000000000E+00 0. -1.
          3    1    6    6  503    0 -0.13506998460E+03  0.47877634427E+02  0.10788061743E+03  0.17937222816E+03  0.00000000000E+00 0. -1.
         -3    1    6    6    0  503 -0.14611650609E+03  0.52776102774E+02  0.25135020222E+02  0.15737572754E+03  0.00000000000E+00 0.  1.
<mgrwt>
<rscale>  0 0.32457034E+03</rscale>
<asrwt>0</asrwt>
<pdfrwt beam="1">  1        2 0.65135029E-01 0.32457034E+03</pdfrwt>
<pdfrwt beam="2">  1       -2 0.75269836E-01 0.32457034E+03</pdfrwt>
<totfact> 0.12270039E+02</totfact>
</mgrwt>
</event>
<event>
12    1  0.1335216E-007  0.7468356E+03  0.7818608E-02  0.9640328E-01
         -1   -1    0    0    0  501 -0.00000000000E+00  0.00000000000E+00  0.36575354598E+03  0.36575354598E+03  0.00000000000E+00 0. -1.
          1   -1    0    0  501    0  0.00000000000E+00 -0.00000000000E+00 -0.16572055081E+04  0.16572055081E+04  0.00000000000E+00 0.  1.
         23    2    1    2    0    0 -0.40404490146E+03 -0.50576630947E+03 -0.39137845986E+03  0.76211788547E+03  0.92707768393E+02 0.  0.
    5000000    2    1    2    0    0  0.40404490146E+03  0.50576630947E+03 -0.90007350226E+03  0.12608411686E+04  0.60044675100E+03 0.  0.
         23    2    4    4    0    0 -0.34746730257E+02 -0.92018781181E+02 -0.83379712870E+02  0.15376943192E+03  0.83773923880E+02 0.  0.
         23    2    4    4    0    0  0.43879163172E+03  0.59778509066E+03 -0.81669378939E+03  0.11070717367E+04  0.93455732098E+02 0.  0.
          3    1    3    3  502    0 -0.12487359225E+03 -0.20590883081E+03 -0.18310363850E+03  0.30252074818E+03  0.00000000000E+00 0. -1.
         -3    1    3    3    0  502 -0.27917130921E+03 -0.29985747866E+03 -0.20827482136E+03  0.45959713729E+03  0.00000000000E+00 0.  1.
         11    1    5    5    0    0 -0.33903318004E+02 -0.71267379201E+02 -0.12493537144E+02  0.79903459125E+02  0.00000000000E+00 0. -1.
        -11    1    5    5    0    0 -0.84341225299E+00 -0.20751401980E+02 -0.70886175726E+02  0.73865972798E+02  0.00000000000E+00 0.  1.
          4    1    6    6  503    0  0.42780976358E+03  0.56368220810E+03 -0.79832756744E+03  0.10668110097E+04  0.00000000000E+00 0. -1.
         -4    1    6    6    0  503  0.10981868141E+02  0.34102882559E+02 -0.18366221955E+02  0.40260726963E+02  0.00000000000E+00 0.  1.
<mgrwt>
<rscale>  0 0.74683561E+03</rscale>
<asrwt>0</asrwt>
<pdfrwt beam="1">  1        1 0.25495469E+00 0.74683561E+03</pdfrwt>
<pdfrwt beam="2">  1       -1 0.56269777E-01 0.74683561E+03</pdfrwt>
<totfact> 0.16912727E+01</totfact>
</mgrwt>
</event>
<event>
12    1  0.1335216E-007  0.7320132E+03  0.7818608E-02  0.9663999E-01
         -2   -1    0    0    0  501 -0.00000000000E+00  0.00000000000E+00  0.23148771260E+03  0.23148771260E+03  0.00000000000E+00 0.  1.
          2   -1    0    0  501    0  0.00000000000E+00 -0.00000000000E+00 -0.24353541655E+04  0.24353541655E+04  0.00000000000E+00 0. -1.
         23    2    1    2    0    0  0.58732372183E+03  0.21827017185E+03 -0.89231913919E+03  0.10942739162E+04  0.92795125285E+02 0.  0.
    5000000    2    1    2    0    0 -0.58732372183E+03 -0.21827017185E+03 -0.13115473137E+04  0.15725679619E+04  0.60018548520E+03 0.  0.
         23    2    4    4    0    0 -0.42433034444E+02  0.15896847588E+03 -0.18733455118E+03  0.26471178143E+03  0.88918808061E+02 0.  0.
         23    2    4    4    0    0 -0.54489068739E+03 -0.37723864773E+03 -0.11242127625E+04  0.13078561805E+04  0.86131265443E+02 0.  0.
          3    1    3    3  502    0  0.32629800841E+03  0.16144815696E+03 -0.55932912130E+03  0.66737168326E+03  0.00000000000E+00 0. -1.
         -3    1    3    3    0  502  0.26102571342E+03  0.56822014888E+02 -0.33299001789E+03  0.42690223291E+03  0.00000000000E+00 0.  1.
         13    1    5    5    0    0 -0.30048047092E+02  0.10278068339E+03 -0.17608011623E+03  0.20608484016E+03  0.00000000000E+00 0.  1.
        -13    1    5    5    0    0 -0.12384987352E+02  0.56187792493E+02 -0.11254434949E+02  0.58626941272E+02  0.00000000000E+00 0. -1.
          1    1    6    6  503    0 -0.11460303673E+03 -0.12438591398E+03 -0.27513861817E+03  0.32296589732E+03  0.00000000000E+00 0. -1.
         -1    1    6    6    0  503 -0.43028765066E+03 -0.25285273375E+03 -0.84907414436E+03  0.98489028318E+03  0.00000000000E+00 0.  1.
<mgrwt>
<rscale>  0 0.73201325E+03</rscale>
<asrwt>0</asrwt>
<pdfrwt beam="1">  1        2 0.37466989E+00 0.73201325E+03</pdfrwt>
<pdfrwt beam="2">  1       -2 0.35613493E-01 0.73201325E+03</pdfrwt>
<totfact> 0.29368032E+01</totfact>
</mgrwt>
</event>
<event>
12    1  0.1335216E-007  0.9091324E+03  0.7818608E-02  0.9414237E-01
          2   -1    0    0  501    0  0.00000000000E+00  0.00000000000E+00  0.15816195327E+04  0.15816195327E+04  0.00000000000E+00 0. -1.
         -2   -1    0    0    0  501 -0.00000000000E+00 -0.00000000000E+00 -0.69401225530E+03  0.69401225530E+03  0.00000000000E+00 0.  1.
         23    2    1    2    0    0  0.77306405999E+03  0.40127102903E+03 -0.28541013190E+02  0.87636628923E+03  0.92502993896E+02 0.  0.
    5000000    2    1    2    0    0 -0.77306405999E+03 -0.40127102903E+03  0.91614829063E+03  0.13992654988E+04  0.59997480460E+03 0.  0.
         23    2    4    4    0    0 -0.10540294475E+02 -0.28356790689E+02  0.37986946007E+03  0.39110337797E+03  0.88010454967E+02 0.  0.
         23    2    4    4    0    0 -0.76252376551E+03 -0.37291423834E+03  0.53627883056E+03  0.10081621208E+04  0.91040406725E+02 0.  0.
          1    1    3    3  502    0  0.23572694128E+03  0.16191907617E+03  0.16146619815E+02  0.28643619081E+03  0.00000000000E+00 0. -1.
         -1    1    3    3    0  502  0.53733711871E+03  0.23935195286E+03 -0.44687633005E+02  0.58993009842E+03  0.00000000000E+00 0.  1.
         13    1    5    5    0    0 -0.32999853082E+02 -0.50548186373E+02  0.27681077095E+03  0.28331662917E+03  0.00000000000E+00 0. -1.
        -13    1    5    5    0    0  0.22459558607E+02  0.22191395684E+02  0.10305868911E+03  0.10778674880E+03  0.00000000000E+00 0.  1.
          2    1    6    6  503    0 -0.24895983912E+03 -0.16136015223E+03  0.21629045758E+03  0.36715073507E+03  0.00000000000E+00 0. -1.
         -2    1    6    6    0  503 -0.51356392639E+03 -0.21155408611E+03  0.31998837298E+03  0.64101138577E+03  0.00000000000E+00 0.  1.
<mgrwt>
<rscale>  0 0.90913240E+03</rscale>
<asrwt>0</asrwt>
<pdfrwt beam="1">  1        2 0.24332608E+00 0.90913240E+03</pdfrwt>
<pdfrwt beam="2">  1       -2 0.10677112E+00 0.90913240E+03</pdfrwt>
<totfact> 0.81085333E+00</totfact>
</mgrwt>
</event>
<event>
12    1  0.1335216E-007  0.1228690E+04  0.7818608E-02  0.9088108E-01
          2   -1    0    0  501    0  0.00000000000E+00  0.00000000000E+00  0.32258742372E+04  0.32258742372E+04  0.00000000000E+00 0. -1.
         -2   -1    0    0    0  501 -0.00000000000E+00 -0.00000000000E+00 -0.50766986786E+03  0.50766986786E+03  0.00000000000E+00 0.  1.
         23    2    1    2    0    0  0.10647766869E+04 -0.54606541340E+03  0.10490209031E+04  0.15939096599E+04  0.90367693763E+02 0.  0.
    5000000    2    1    2    0    0 -0.10647766869E+04  0.54606541340E+03  0.16691834662E+04  0.21396344452E+04  0.59993773549E+03 0.  0.
         23    2    4    4    0    0 -0.83926045850E+02  0.18050219598E+03  0.71793691992E+02  0.22783561473E+03  0.84439973973E+02 0.  0.
         23    2    4    4    0    0 -0.98085064101E+03  0.36556321742E+03  0.15973897742E+04  0.19117988305E+04  0.87271022417E+02 0.  0.
          1    1    3    3  502    0  0.29560574263E+03 -0.14439906957E+03  0.23674468677E+03  0.40531702787E+03  0.00000000000E+00 0. -1.
         -1    1    3    3    0  502  0.76917094423E+03 -0.40166634384E+03  0.81227621633E+03  0.11885926320E+04  0.00000000000E+00 0.  1.
         11    1    5    5    0    0 -0.53834403370E+02  0.17325228228E+03  0.75805700045E+02  0.19662400785E+03  0.00000000000E+00 0. -1.
        -11    1    5    5    0    0 -0.30091642480E+02  0.72499136987E+01 -0.40120080534E+01  0.31211606886E+02  0.00000000000E+00 0.  1.
          2    1    6    6  503    0 -0.78654652184E+03  0.31682853189E+03  0.12424971039E+04  0.15042721838E+04  0.00000000000E+00 0. -1.
         -2    1    6    6    0  503 -0.19430411918E+03  0.48734685533E+02  0.35489267030E+03  0.40752664666E+03  0.00000000000E+00 0.  1.
<mgrwt>
<rscale>  0 0.12286901E+04</rscale>
<asrwt>0</asrwt>
<pdfrwt beam="1">  1        2 0.49628833E+00 0.12286901E+04</pdfrwt>
<pdfrwt beam="2">  1       -2 0.78103059E-01 0.12286901E+04</pdfrwt>
<totfact> 0.18087737E+00</totfact>
</mgrwt>
</event>
<event>
12    1  0.1335216E-007  0.7708362E+03  0.7818608E-02  0.9603217E-01
          2   -1    0    0  501    0  0.00000000000E+00  0.00000000000E+00  0.14875331917E+04  0.14875331917E+04  0.00000000000E+00 0.  1.
         -2   -1    0    0    0  501 -0.00000000000E+00 -0.00000000000E+00 -0.44085910143E+03  0.44085910143E+03  0.00000000000E+00 0. -1.
         23    2    1    2    0    0  0.14288915607E+03  0.67052111306E+03  0.59153723186E+03  0.90999405797E+03  0.90316193874E+02 0.  0.
    5000000    2    1    2    0    0 -0.14288915607E+03 -0.67052111306E+03  0.45513685840E+03  0.10183982352E+04  0.59997460905E+03 0.  0.
         23    2    4    4    0    0  0.19222267770E+03 -0.22930926599E+03  0.30638162576E+03  0.43749969982E+03  0.89465017998E+02 0.  0.
         23    2    4    4    0    0 -0.33511183378E+03 -0.44121184707E+03  0.14875523264E+03  0.58089853533E+03  0.91362760355E+02 0.  0.
          4    1    3    3  502    0  0.85982531392E+02  0.26793791212E+03  0.19740760049E+03  0.34373460865E+03  0.00000000000E+00 0. -1.
         -4    1    3    3    0  502  0.56906624682E+02  0.40258320095E+03  0.39412963137E+03  0.56625944932E+03  0.00000000000E+00 0.  1.
         11    1    5    5    0    0  0.14990472018E+03 -0.17127969450E+03  0.17258841039E+03  0.28564824221E+03  0.00000000000E+00 0. -1.
        -11    1    5    5    0    0  0.42317957523E+02 -0.58029571488E+02  0.13379321538E+03  0.15185145761E+03  0.00000000000E+00 0.  1.
          3    1    6    6  503    0 -0.18969193852E+03 -0.23721370579E+03  0.34948389898E+02  0.30573642850E+03  0.00000000000E+00 0. -1.
         -3    1    6    6    0  503 -0.14541989525E+03 -0.20399814128E+03  0.11380684274E+03  0.27516210683E+03  0.00000000000E+00 0.  1.
<mgrwt>
<rscale>  0 0.77083625E+03</rscale>
<asrwt>0</asrwt>
<pdfrwt beam="1">  1        2 0.22885126E+00 0.77083625E+03</pdfrwt>
<pdfrwt beam="2">  1       -2 0.67824478E-01 0.77083625E+03</pdfrwt>
<totfact> 0.26227838E+01</totfact>
</mgrwt>
</event>
<event>
12    1  0.1335216E-007  0.1810611E+04  0.7818608E-02  0.8700677E-01
          2   -1    0    0  501    0  0.00000000000E+00  0.00000000000E+00  0.22468466204E+04  0.22468466204E+04  0.00000000000E+00 0.  1.
         -2   -1    0    0    0  501 -0.00000000000E+00 -0.00000000000E+00 -0.16004314941E+04  0.16004314941E+04  0.00000000000E+00 0. -1.
         23    2    1    2    0    0  0.81942054223E+02  0.17675766098E+04  0.85523374834E+03  0.19672054887E+04  0.86203819564E+02 0.  0.
    5000000    2    1    2    0    0 -0.81942054223E+02 -0.17675766098E+04 -0.20881862206E+03  0.18800726258E+04  0.60002190767E+03 0.  0.
         23    2    4    4    0    0  0.12364442575E+03 -0.15350833528E+04 -0.20934938700E+03  0.15569559916E+04  0.92281903617E+02 0.  0.
         23    2    4    4    0    0 -0.20558647997E+03 -0.23249325701E+03  0.53076494034E+00  0.32311663427E+03  0.89917530732E+02 0.  0.
          4    1    3    3  502    0  0.19328023968E+02  0.46267473447E+03  0.26632309053E+03  0.53419984180E+03  0.00000000000E+00 0.  1.
         -4    1    3    3    0  502  0.62614030255E+02  0.13049018754E+04  0.58891065782E+03  0.14330056469E+04  0.00000000000E+00 0. -1.
         11    1    5    5    0    0  0.12483463046E+03 -0.14457738831E+04 -0.21709955890E+03  0.14673029764E+04  0.00000000000E+00 0.  1.
        -11    1    5    5    0    0 -0.11902047118E+01 -0.89309469716E+02  0.77501719010E+01  0.89653015190E+02  0.00000000000E+00 0. -1.
          2    1    6    6  503    0 -0.13894420414E+03 -0.17341299156E+03  0.39863295426E+02  0.22575792307E+03  0.00000000000E+00 0. -1.
         -2    1    6    6    0  503 -0.66642275831E+02 -0.59080265443E+02 -0.39332530486E+02  0.97358711203E+02  0.00000000000E+00 0.  1.
<mgrwt>
<rscale>  0 0.18106114E+04</rscale>
<asrwt>0</asrwt>
<pdfrwt beam="1">  1        2 0.34566871E+00 0.18106114E+04</pdfrwt>
<pdfrwt beam="2">  1       -2 0.24622023E+00 0.18106114E+04</pdfrwt>
<totfact> 0.29898974E-01</totfact>
</mgrwt>
</event>
<event>
12    1  0.1335216E-007  0.4930756E+03  0.7818608E-02  0.1015602E+00
          2   -1    0    0  501    0  0.00000000000E+00  0.00000000000E+00  0.12385181814E+04  0.12385181814E+04  0.00000000000E+00 0. -1.
         -2   -1    0    0    0  501 -0.00000000000E+00 -0.00000000000E+00 -0.31474919663E+03  0.31474919663E+03  0.00000000000E+00 0.  1.
         23    2    1    2    0    0  0.23618553525E+03 -0.40685442386E+03  0.44583374427E+03  0.65330106840E+03  0.81978223795E+02 0.  0.
    5000000    2    1    2    0    0 -0.23618553525E+03  0.40685442386E+03  0.47793524047E+03  0.89996630959E+03  0.60016925532E+03 0.  0.
         23    2    4    4    0    0 -0.19463111366E+01  0.33242987360E+01  0.40932386493E+03  0.41952470749E+03  0.91870096918E+02 0.  0.
         23    2    4    4    0    0 -0.23423922411E+03  0.40353012513E+03  0.68611375542E+02  0.48044160210E+03  0.91717153109E+02 0.  0.
          1    1    3    3  502    0  0.34690771509E+02 -0.95684600424E+02  0.13781122223E+03  0.17132111766E+03  0.00000000000E+00 0. -1.
         -1    1    3    3    0  502  0.20149476374E+03 -0.31116982344E+03  0.30802252204E+03  0.48197995074E+03  0.00000000000E+00 0.  1.
         11    1    5    5    0    0 -0.12439765426E+02 -0.18820715349E+02  0.38260626576E+03  0.38327082029E+03  0.00000000000E+00 0. -1.
        -11    1    5    5    0    0  0.10493454289E+02  0.22145014085E+02  0.26717599171E+02  0.36253887201E+02  0.00000000000E+00 0.  1.
          1    1    6    6  503    0 -0.17912652845E+03  0.31073408805E+03  0.12702181607E+02  0.35889181112E+03  0.00000000000E+00 0. -1.
         -1    1    6    6    0  503 -0.55112695654E+02  0.92796037078E+02  0.55909193935E+02  0.12154979098E+03  0.00000000000E+00 0.  1.
<mgrwt>
<rscale>  0 0.49307564E+03</rscale>
<asrwt>0</asrwt>
<pdfrwt beam="1">  1        2 0.19054126E+00 0.49307564E+03</pdfrwt>
<pdfrwt beam="2">  1       -2 0.48422954E-01 0.49307564E+03</pdfrwt>
<totfact> 0.75868423E+01</totfact>
</mgrwt>
</event>
<event>
12    1  0.1335216E-007  0.3672830E+03  0.7818608E-02  0.1055737E+00
          1   -1    0    0  501    0  0.00000000000E+00  0.00000000000E+00  0.68694031405E+03  0.68694031405E+03  0.00000000000E+00 0. -1.
         -1   -1    0    0    0  501 -0.00000000000E+00 -0.00000000000E+00 -0.33978963591E+03  0.33978963591E+03  0.00000000000E+00 0.  1.
         23    2    1    2    0    0 -0.14579100706E+03  0.10987405630E+02  0.37083889088E+03  0.40868991532E+03  0.90167749636E+02 0.  0.
    5000000    2    1    2    0    0  0.14579100706E+03 -0.10987405630E+02 -0.23688212744E+02  0.61804003463E+03  0.60003050936E+03 0.  0.
         23    2    4    4    0    0 -0.20601683935E+03  0.31241149167E+02  0.71197772038E+02  0.23913842791E+03  0.93269059505E+02 0.  0.
         23    2    4    4    0    0  0.35180784642E+03 -0.42228554797E+02 -0.94885984782E+02  0.37890160672E+03  0.94926633931E+02 0.  0.
          2    1    3    3  502    0 -0.10897223545E+03  0.17741026697E+02  0.34740455575E+03  0.36452656622E+03  0.00000000000E+00 0. -1.
         -2    1    3    3    0  502 -0.36818771614E+02 -0.67536210673E+01  0.23434335131E+02  0.44163349099E+02  0.00000000000E+00 0.  1.
         11    1    5    5    0    0 -0.89611312537E+02  0.60364593372E+02  0.39366543410E+02  0.11499476600E+03  0.00000000000E+00 0.  1.
        -11    1    5    5    0    0 -0.11640552682E+03 -0.29123444205E+02  0.31831228628E+02  0.12414366191E+03  0.00000000000E+00 0. -1.
          4    1    6    6  503    0  0.27938202899E+02  0.11823107197E+02 -0.32901599508E+02  0.44753148439E+02  0.00000000000E+00 0. -1.
         -4    1    6    6    0  503  0.32386964352E+03 -0.54051661993E+02 -0.61984385274E+02  0.33414845829E+03  0.00000000000E+00 0.  1.
<mgrwt>
<rscale>  0 0.36728303E+03</rscale>
<asrwt>0</asrwt>
<pdfrwt beam="1">  1        1 0.10568312E+00 0.36728303E+03</pdfrwt>
<pdfrwt beam="2">  1       -1 0.52275329E-01 0.36728303E+03</pdfrwt>
<totfact> 0.10922212E+02</totfact>
</mgrwt>
</event>
<event>
12    1  0.1335216E-007  0.1426039E+04  0.7818608E-02  0.8935183E-01
         -1   -1    0    0    0  501 -0.00000000000E+00  0.00000000000E+00  0.12871563366E+04  0.12871563366E+04  0.00000000000E+00 0.  1.
          1   -1    0    0  501    0  0.00000000000E+00 -0.00000000000E+00 -0.17342618263E+04  0.17342618263E+04  0.00000000000E+00 0. -1.
         23    2    1    2    0    0  0.10346239087E+04 -0.94669556007E+03 -0.50883411624E+03  0.14947156970E+04  0.92648481896E+02 0.  0.
    5000000    2    1    2    0    0 -0.10346239087E+04  0.94669556007E+03  0.61728626544E+02  0.15267024659E+04  0.60027567030E+03 0.  0.
         23    2    4    4    0    0 -0.52578587926E+03  0.69148718988E+03  0.26908291637E+03  0.91404257870E+03  0.91993995451E+02 0.  0.
         23    2    4    4    0    0 -0.50883802940E+03  0.25520837019E+03 -0.20735428982E+03  0.61265988724E+03  0.91153077552E+02 0.  0.
          2    1    3    3  502    0  0.31708736104E+03 -0.34561612488E+03 -0.18613487005E+03  0.50461974809E+03  0.00000000000E+00 0. -1.
         -2    1    3    3    0  502  0.71753654761E+03 -0.60107943519E+03 -0.32269924619E+03  0.99009594891E+03  0.00000000000E+00 0.  1.
         11    1    5    5    0    0 -0.93684929178E+02  0.73885524870E+02  0.47189909915E+02  0.12830753812E+03  0.00000000000E+00 0.  1.
        -11    1    5    5    0    0 -0.43210095008E+03  0.61760166501E+03  0.22189300645E+03  0.78573504058E+03  0.00000000000E+00 0. -1.
          4    1    6    6  503    0 -0.26393976806E+03  0.17313539378E+03 -0.85253637578E+02  0.32696826828E+03  0.00000000000E+00 0. -1.
         -4    1    6    6    0  503 -0.24489826134E+03  0.82072976406E+02 -0.12210065225E+03  0.28569161896E+03  0.00000000000E+00 0.  1.
<mgrwt>
<rscale>  0 0.14260390E+04</rscale>
<asrwt>0</asrwt>
<pdfrwt beam="1">  1        1 0.26680951E+00 0.14260390E+04</pdfrwt>
<pdfrwt beam="2">  1       -1 0.19802405E+00 0.14260390E+04</pdfrwt>
<totfact> 0.66921999E-01</totfact>
</mgrwt>
</event>
<event>
12    1  0.1335216E-007  0.1559310E+04  0.7818608E-02  0.8845943E-01
          1   -1    0    0  501    0  0.00000000000E+00  0.00000000000E+00  0.26691624264E+04  0.26691624264E+04  0.00000000000E+00 0. -1.
         -1   -1    0    0    0  501 -0.00000000000E+00 -0.00000000000E+00 -0.10967929918E+04  0.10967929918E+04  0.00000000000E+00 0.  1.
         23    2    1    2    0    0  0.39190151943E+03  0.14747519501E+04  0.14738219460E+04  0.21233198588E+04  0.88633962302E+02 0.  0.
    5000000    2    1    2    0    0 -0.39190151943E+03 -0.14747519501E+04  0.98547488645E+02  0.16426355594E+04  0.60004987994E+03 0.  0.
         23    2    4    4    0    0 -0.19083021673E+03 -0.17487559403E+03 -0.13089440055E+03  0.30429963482E+03  0.92017817018E+02 0.  0.
         23    2    4    4    0    0 -0.20107130270E+03 -0.12998763560E+04  0.22944188920E+03  0.13383359246E+04  0.91603803604E+02 0.  0.
          4    1    3    3  502    0  0.27739459918E+03  0.11678878150E+04  0.11819016565E+04  0.16845774656E+04  0.00000000000E+00 0. -1.
         -4    1    3    3    0  502  0.11450692025E+03  0.30686413510E+03  0.29192028951E+03  0.43874239324E+03  0.00000000000E+00 0.  1.
         11    1    5    5    0    0 -0.14759912183E+03 -0.76323887219E+02 -0.67147191108E+02  0.17921936781E+03  0.00000000000E+00 0.  1.
        -11    1    5    5    0    0 -0.43231094898E+02 -0.98551706815E+02 -0.63747209445E+02  0.12508026701E+03  0.00000000000E+00 0. -1.
          4    1    6    6  503    0 -0.93309367088E+02 -0.80881308399E+03  0.10980295914E+03  0.82154849684E+03  0.00000000000E+00 0. -1.
         -4    1    6    6    0  503 -0.10776193561E+03 -0.49106327204E+03  0.11963893006E+03  0.51678742777E+03  0.00000000000E+00 0.  1.
<mgrwt>
<rscale>  0 0.15593095E+04</rscale>
<asrwt>0</asrwt>
<pdfrwt beam="1">  1        1 0.41064037E+00 0.15593095E+04</pdfrwt>
<pdfrwt beam="2">  1       -1 0.16873738E+00 0.15593095E+04</pdfrwt>
<totfact> 0.24430635E-01</totfact>
</mgrwt>
</event>
<event>
12    1  0.1335216E-007  0.1517652E+04  0.7818608E-02  0.8872799E-01
          2   -1    0    0  501    0  0.00000000000E+00  0.00000000000E+00  0.14012484338E+04  0.14012484338E+04  0.00000000000E+00 0. -1.
         -2   -1    0    0    0  501 -0.00000000000E+00 -0.00000000000E+00 -0.17690971422E+04  0.17690971422E+04  0.00000000000E+00 0.  1.
         23    2    1    2    0    0  0.14786692872E+04  0.14788931704E+03 -0.47906841994E+03  0.15639723833E+04  0.90382263289E+02 0.  0.
    5000000    2    1    2    0    0 -0.14786692872E+04 -0.14788931704E+03  0.11121971158E+03  0.16063731927E+04  0.59977570712E+03 0.  0.
         23    2    4    4    0    0 -0.67251703113E+03 -0.27517981545E+03  0.24924684099E+03  0.77354245438E+03  0.90779143992E+02 0.  0.
         23    2    4    4    0    0 -0.80615225610E+03  0.12729049841E+03 -0.13802712941E+03  0.83283073832E+03  0.92039226586E+02 0.  0.
          4    1    3    3  502    0  0.10605295956E+04  0.13853231618E+03 -0.31836829682E+03  0.11159178277E+04  0.00000000000E+00 0. -1.
         -4    1    3    3    0  502  0.41813969164E+03  0.93570008654E+01 -0.16070012312E+03  0.44805455556E+03  0.00000000000E+00 0.  1.
         11    1    5    5    0    0 -0.65333219249E+03 -0.25982336127E+03  0.22307165721E+03  0.73763954412E+03  0.00000000000E+00 0. -1.
        -11    1    5    5    0    0 -0.19184838648E+02 -0.15356454178E+02  0.26175183781E+02  0.35902910256E+02  0.00000000000E+00 0.  1.
          3    1    6    6  503    0 -0.24877651736E+03  0.30740662663E+01 -0.19090101042E+02  0.24952682708E+03  0.00000000000E+00 0. -1.
         -3    1    6    6    0  503 -0.55737573874E+03  0.12421643214E+03 -0.11893702837E+03  0.58330391124E+03  0.00000000000E+00 0.  1.
<mgrwt>
<rscale>  0 0.15176518E+04</rscale>
<asrwt>0</asrwt>
<pdfrwt beam="1">  1        2 0.21557668E+00 0.15176518E+04</pdfrwt>
<pdfrwt beam="2">  1       -2 0.27216879E+00 0.15176518E+04</pdfrwt>
<totfact> 0.63829502E-01</totfact>
</mgrwt>
</event>
<event>
12    1  0.1335216E-007  0.1685268E+04  0.7818608E-02  0.8769812E-01
          2   -1    0    0  501    0  0.00000000000E+00  0.00000000000E+00  0.36403162320E+04  0.36403162320E+04  0.00000000000E+00 0. -1.
         -2   -1    0    0    0  501 -0.00000000000E+00 -0.00000000000E+00 -0.83010598798E+03  0.83010598798E+03  0.00000000000E+00 0.  1.
         23    2    1    2    0    0  0.12824771235E+04  0.10635034127E+04  0.16911394389E+04  0.23756408310E+04  0.89048722706E+02 0.  0.
    5000000    2    1    2    0    0 -0.12824771235E+04 -0.10635034127E+04  0.11190708050E+04  0.20947813890E+04  0.60000209986E+03 0.  0.
         23    2    4    4    0    0 -0.74372386928E+03 -0.41792649049E+03  0.84917691951E+03  0.12069484680E+04  0.88517899565E+02 0.  0.
         23    2    4    4    0    0 -0.53875325418E+03 -0.64557692219E+03  0.26989388553E+03  0.88783292097E+03  0.91542092862E+02 0.  0.
          3    1    3    3  502    0  0.25067931750E+03  0.25424091342E+03  0.35109246357E+03  0.50074392683E+03  0.00000000000E+00 0. -1.
         -3    1    3    3    0  502  0.10317978060E+04  0.80926249925E+03  0.13400469754E+04  0.18748969042E+04  0.00000000000E+00 0.  1.
         11    1    5    5    0    0 -0.44574486442E+03 -0.29843527475E+03  0.54425838669E+03  0.76417883303E+03  0.00000000000E+00 0. -1.
        -11    1    5    5    0    0 -0.29797900485E+03 -0.11949121574E+03  0.30491853282E+03  0.44276963494E+03  0.00000000000E+00 0.  1.
          2    1    6    6  503    0 -0.27710874798E+03 -0.39447628181E+03  0.17632327205E+03  0.51331344361E+03  0.00000000000E+00 0. -1.
         -2    1    6    6    0  503 -0.26164450619E+03 -0.25110064038E+03  0.93570613489E+02  0.37451947737E+03  0.00000000000E+00 0.  1.
<mgrwt>
<rscale>  0 0.16852675E+04</rscale>
<asrwt>0</asrwt>
<pdfrwt beam="1">  1        2 0.56004864E+00 0.16852675E+04</pdfrwt>
<pdfrwt beam="2">  1       -2 0.12770862E+00 0.16852675E+04</pdfrwt>
<totfact> 0.27507417E-01</totfact>
</mgrwt>
</event>
<event>
12    1  0.1335216E-007  0.7063950E+03  0.7818608E-02  0.9706358E-01
          2   -1    0    0  501    0  0.00000000000E+00  0.00000000000E+00  0.78656672817E+03  0.78656672817E+03  0.00000000000E+00 0. -1.
         -2   -1    0    0    0  501 -0.00000000000E+00 -0.00000000000E+00 -0.70345967104E+03  0.70345967104E+03  0.00000000000E+00 0.  1.
         23    2    1    2    0    0  0.61059627566E+03 -0.47977294068E+02 -0.54350230692E+02  0.62169217187E+03  0.91747350875E+02 0.  0.
    5000000    2    1    2    0    0 -0.61059627566E+03  0.47977294068E+02  0.13745728781E+03  0.86833422734E+03  0.59998349294E+03 0.  0.
         23    2    4    4    0    0 -0.62396075192E+03  0.16833690918E+03  0.22805912585E+03  0.69098096816E+03  0.88200898822E+02 0.  0.
         23    2    4    4    0    0  0.13364476255E+02 -0.12035961511E+03 -0.90601838038E+02  0.17735325918E+03  0.92630660741E+02 0.  0.
          3    1    3    3  502    0  0.38868223605E+03 -0.72247800590E+02 -0.49258290658E+02  0.39839679279E+03  0.00000000000E+00 0. -1.
         -3    1    3    3    0  502  0.22191403961E+03  0.24270506523E+02 -0.50919400339E+01  0.22329537908E+03  0.00000000000E+00 0.  1.
         11    1    5    5    0    0 -0.56665825173E+03  0.17649838774E+03  0.21772634631E+03  0.63218511292E+03  0.00000000000E+00 0. -1.
        -11    1    5    5    0    0 -0.57302500191E+02 -0.81614785577E+01  0.10332779545E+02  0.58795855240E+02  0.00000000000E+00 0.  1.
          3    1    6    6  503    0  0.37155064561E+02 -0.25595579659E+02 -0.59794396728E+02  0.74906624544E+02  0.00000000000E+00 0. -1.
         -3    1    6    6    0  503 -0.23790588305E+02 -0.94764035456E+02 -0.30807441310E+02  0.10244663463E+03  0.00000000000E+00 0.  1.
<mgrwt>
<rscale>  0 0.70639499E+03</rscale>
<asrwt>0</asrwt>
<pdfrwt beam="1">  1        2 0.12101027E+00 0.70639499E+03</pdfrwt>
<pdfrwt beam="2">  1       -2 0.10822456E+00 0.70639499E+03</pdfrwt>
<totfact> 0.24521861E+01</totfact>
</mgrwt>
</event>
<event>
12    1  0.1335216E-007  0.6273865E+03  0.7818608E-02  0.9850162E-01
          2   -1    0    0  501    0  0.00000000000E+00  0.00000000000E+00  0.17424393421E+04  0.17424393421E+04  0.00000000000E+00 0. -1.
         -2   -1    0    0    0  501 -0.00000000000E+00 -0.00000000000E+00 -0.29069975703E+03  0.29069975703E+03  0.00000000000E+00 0.  1.
         23    2    1    2    0    0 -0.45107800300E+03 -0.21486589765E+03  0.10275251600E+04  0.11445055483E+04  0.66680408266E+02 0.  0.
    5000000    2    1    2    0    0  0.45107800300E+03  0.21486589765E+03  0.42421442501E+03  0.88863355080E+03  0.60006082230E+03 0.  0.
         23    2    4    4    0    0 -0.14446868491E+00 -0.15415487337E+03  0.39764287561E+02  0.18447026114E+03  0.93189767819E+02 0.  0.
         23    2    4    4    0    0  0.45122247168E+03  0.36902077102E+03  0.38445013745E+03  0.70416328966E+03  0.90917445649E+02 0.  0.
          3    1    3    3  502    0 -0.17375172553E+03 -0.95250816205E+02  0.33919920885E+03  0.39283391325E+03  0.00000000000E+00 0. -1.
         -3    1    3    3    0  502 -0.27732627746E+03 -0.11961508145E+03  0.68832595120E+03  0.75167163507E+03  0.00000000000E+00 0.  1.
         11    1    5    5    0    0  0.27987019230E+02 -0.97092135586E+02 -0.12919749837E+02  0.10186793398E+03  0.00000000000E+00 0. -1.
        -11    1    5    5    0    0 -0.28131487915E+02 -0.57062737781E+02  0.52684037398E+02  0.82602327158E+02  0.00000000000E+00 0.  1.
          4    1    6    6  503    0  0.17788449211E+03  0.90060783431E+02  0.13231674950E+03  0.23929387674E+03  0.00000000000E+00 0. -1.
         -4    1    6    6    0  503  0.27333797957E+03  0.27895998759E+03  0.25213338794E+03  0.46486941292E+03  0.00000000000E+00 0.  1.
<mgrwt>
<rscale>  0 0.62738651E+03</rscale>
<asrwt>0</asrwt>
<pdfrwt beam="1">  1        2 0.26806758E+00 0.62738651E+03</pdfrwt>
<pdfrwt beam="2">  1       -2 0.44723041E-01 0.62738651E+03</pdfrwt>
<totfact> 0.45879080E+01</totfact>
</mgrwt>
</event>
<event>
12    1  0.1335216E-007  0.9940698E+03  0.7818608E-02  0.9315073E-01
          1   -1    0    0  501    0  0.00000000000E+00  0.00000000000E+00  0.19341010635E+04  0.19341010635E+04  0.00000000000E+00 0. -1.
         -1   -1    0    0    0  501 -0.00000000000E+00 -0.00000000000E+00 -0.55895066200E+03  0.55895066200E+03  0.00000000000E+00 0.  1.
         23    2    1    2    0    0  0.76390552150E+03  0.54454722112E+03  0.81705149764E+03  0.12473272505E+04  0.90381403575E+02 0.  0.
    5000000    2    1    2    0    0 -0.76390552150E+03 -0.54454722112E+03  0.55809890386E+03  0.12457244751E+04  0.60022642348E+03 0.  0.
         23    2    4    4    0    0 -0.12638529405E+03  0.68567705821E+02  0.25500578876E+03  0.30631870909E+03  0.90157786149E+02 0.  0.
         23    2    4    4    0    0 -0.63752022745E+03 -0.61311492694E+03  0.30309311510E+03  0.93940576596E+03  0.90971438667E+02 0.  0.
          3    1    3    3  502    0  0.58124229970E+03  0.42201527557E+03  0.67364847143E+03  0.98475467343E+03  0.00000000000E+00 0. -1.
         -3    1    3    3    0  502  0.18266322180E+03  0.12253194556E+03  0.14340302621E+03  0.26257257702E+03  0.00000000000E+00 0.  1.
         11    1    5    5    0    0 -0.76531230886E+01  0.39474861398E+02  0.29711153057E+02  0.49995875743E+02  0.00000000000E+00 0. -1.
        -11    1    5    5    0    0 -0.11873217096E+03  0.29092844424E+02  0.22529463571E+03  0.25632283335E+03  0.00000000000E+00 0.  1.
          4    1    6    6  503    0 -0.52292756479E+01 -0.19410721991E+02 -0.14485624805E+01  0.20154894822E+02  0.00000000000E+00 0. -1.
         -4    1    6    6    0  503 -0.63229095180E+03 -0.59370420495E+03  0.30454167758E+03  0.91925087114E+03  0.00000000000E+00 0.  1.
<mgrwt>
<rscale>  0 0.99406981E+03</rscale>
<asrwt>0</asrwt>
<pdfrwt beam="1">  1        1 0.29755401E+00 0.99406981E+03</pdfrwt>
<pdfrwt beam="2">  1       -1 0.85992411E-01 0.99406981E+03</pdfrwt>
<totfact> 0.44592945E+00</totfact>
</mgrwt>
</event>
<event>
12    1  0.1335216E-007  0.8196625E+03  0.7818608E-02  0.9531985E-01
         -2   -1    0    0    0  501 -0.00000000000E+00  0.00000000000E+00  0.50876539167E+03  0.50876539167E+03  0.00000000000E+00 0.  1.
          2   -1    0    0  501    0  0.00000000000E+00 -0.00000000000E+00 -0.15612157479E+04  0.15612157479E+04  0.00000000000E+00 0. -1.
         23    2    1    2    0    0  0.12549921737E+03 -0.74332062833E+03 -0.73202428587E+03  0.10546787762E+04  0.90620945955E+02 0.  0.
    5000000    2    1    2    0    0 -0.12549921737E+03  0.74332062833E+03 -0.32042607036E+03  0.10153023633E+04  0.59990867005E+03 0.  0.
         23    2    4    4    0    0 -0.21226598255E+03  0.73788242051E+03 -0.40288252305E+03  0.87125723915E+03  0.85132458868E+02 0.  0.
         23    2    4    4    0    0  0.86766765185E+02  0.54382078177E+01  0.82456452694E+02  0.14404512419E+03  0.79949268717E+02 0.  0.
          1    1    3    3  502    0  0.90770295584E+02 -0.43895757925E+03 -0.37653312957E+03  0.58540601347E+03  0.00000000000E+00 0. -1.
         -1    1    3    3    0  502  0.34728921783E+02 -0.30436304908E+03 -0.35549115630E+03  0.46927276275E+03  0.00000000000E+00 0.  1.
         13    1    5    5    0    0 -0.44872952614E+02  0.19861584477E+03 -0.14811572253E+03  0.25179377064E+03  0.00000000000E+00 0.  1.
        -13    1    5    5    0    0 -0.16739302994E+03  0.53926657574E+03 -0.25476680052E+03  0.61946346851E+03  0.00000000000E+00 0. -1.
          4    1    6    6  503    0 -0.11499659860E+02 -0.12054793649E+02  0.21095567830E+02  0.26880907888E+02  0.00000000000E+00 0.  1.
         -4    1    6    6    0  503  0.98266425045E+02  0.17493001467E+02  0.61360884864E+02  0.11716421631E+03  0.00000000000E+00 0. -1.
<mgrwt>
<rscale>  0 0.81966245E+03</rscale>
<asrwt>0</asrwt>
<pdfrwt beam="1">  1        2 0.24018704E+00 0.81966245E+03</pdfrwt>
<pdfrwt beam="2">  1       -2 0.78271599E-01 0.81966245E+03</pdfrwt>
<totfact> 0.17305186E+01</totfact>
</mgrwt>
</event>
